ITEM: TIMESTEP
0
ITEM: NUMBER OF ATOMS
243
ITEM: BOX BOUNDS xy xz yz pp pp pp
-7.3456000000000001e+00 1.4691300000000000e+01 -7.3456000000000001e+00
0.0000000000000000e+00 1.2723000000000001e+01 0.0000000000000000e+00
0.0000000000000000e+00 1.5963100000000001e+01 0.0000000000000000e+00
ITEM: ATOMS id type x y z
1 2 2.313 0 1.774
3 2 1.292 2.238 0
4 2 2.313 0 7.095
6 2 1.292 2.238 5.321
10 2 -0.135 4.241 1.774
13 2 -0.135 4.241 7.095
28 2 7.21 0 1.774
29 2 3.74 2.003 3.547
31 2 7.21 0 7.095
37 2 4.762 4.241 1.774
38 2 1.292 6.244 3.547
40 2 4.762 4.241 7.095
82 1 1.394 1.118 1.121
83 1 0.271 1.766 4.2
84 1 1.394 1.118 6.442
88 1 -1.055 3.123 2.427
89 1 0.784 3.593 0.653
90 1 -1.055 5.359 1.121
91 1 -1.055 3.123 7.748
92 1 0.784 3.593 5.974
93 1 -2.178 6.007 4.2
94 1 -1.055 5.359 6.442
118 1 3.232 0.648 2.895
119 1 2.719 2.475 4.668
120 1 6.291 1.118 1.121
123 1 5.168 1.766 4.2
124 1 6.291 1.118 6.442
130 1 3.842 3.123 2.427
132 1 0.784 4.889 2.895
134 1 3.842 5.359 1.121
135 1 3.842 3.123 7.748
139 1 2.72 6.007 4.2
140 1 3.842 5.359 6.442
7 2 2.313 0 12.416
9 2 1.292 2.238 10.642
16 2 -0.135 4.241 12.416
32 2 3.74 2.003 8.868
34 2 7.21 0 12.416
35 2 3.74 2.003 14.189
41 2 1.292 6.244 8.868
43 2 4.762 4.241 12.416
44 2 1.292 6.244 14.189
85 1 0.271 1.766 14.842
86 1 0.271 1.766 9.521
87 1 1.394 1.118 11.763
95 1 -1.055 3.123 13.069
96 1 0.784 3.593 11.295
97 1 -2.178 6.007 14.842
98 1 -2.178 6.007 9.521
99 1 -1.055 5.359 11.763
121 1 3.232 0.648 8.216
122 1 2.719 2.475 9.989
125 1 3.232 0.648 13.537
126 1 5.168 1.766 14.842
127 1 2.719 2.475 15.32
128 1 5.168 1.766 9.521
129 1 6.291 1.118 11.763
137 1 0.784 4.889 8.216
141 1 3.842 3.123 13.069
143 1 0.784 4.889 13.537
144 1 2.72 6.007 14.842
146 1 2.72 6.007 9.521
147 1 3.842 5.359 11.763
12 2 -1.156 6.479 0
15 2 -1.156 6.479 5.321
19 2 -2.584 8.482 1.774
21 2 -3.605 10.72 0
22 2 -2.584 8.482 7.095
24 2 -3.605 10.72 5.321
46 2 2.313 8.482 1.774
47 2 -1.157 10.485 3.547
49 2 2.313 8.482 7.095
100 1 -3.503 7.364 2.427
101 1 -1.665 7.834 0.653
102 1 -5.952 11.605 2.427
103 1 -3.503 9.6 1.121
104 1 -4.113 12.075 0.653
105 1 -3.503 7.364 7.748
106 1 -1.665 7.834 5.974
107 1 -5.952 11.605 7.748
108 1 -4.626 10.248 4.2
109 1 -3.503 9.6 6.442
110 1 -4.113 12.075 5.974
133 1 0.271 6.716 4.668
148 1 1.394 7.364 2.427
150 1 -1.665 9.13 2.895
151 1 -1.055 11.605 2.427
152 1 -2.178 10.957 4.668
153 1 1.394 9.6 1.121
155 1 1.394 7.364 7.748
158 1 -1.055 11.605 7.748
160 1 0.271 10.248 4.2
161 1 1.394 9.6 6.442
18 2 -1.156 6.479 10.642
25 2 -2.584 8.482 12.416
27 2 -3.605 10.72 10.642
50 2 -1.157 10.485 8.868
52 2 2.313 8.482 12.416
53 2 -1.157 10.485 14.189
111 1 -3.503 7.364 13.069
112 1 -1.665 7.834 11.295
113 1 -4.626 10.248 14.842
114 1 -5.952 11.605 13.069
115 1 -4.626 10.248 9.521
116 1 -3.503 9.6 11.763
117 1 -4.113 12.075 11.295
138 1 0.271 6.716 9.989
145 1 0.271 6.716 15.32
157 1 -1.665 9.13 8.216
159 1 -2.178 10.957 9.989
163 1 1.394 7.364 13.069
165 1 -1.665 9.13 13.537
166 1 0.271 10.248 14.842
167 1 -1.055 11.605 13.069
168 1 -2.178 10.957 15.32
169 1 0.271 10.248 9.521
170 1 1.394 9.6 11.763
2 2 13.5343 2.003 3.547
11 2 11.0863 6.244 3.547
30 2 6.189 2.238 0
33 2 6.189 2.238 5.321
55 2 12.107 0 1.774
56 2 8.638 2.003 3.547
57 2 11.086 2.238 0
58 2 12.107 0 7.095
60 2 11.086 2.238 5.321
64 2 9.659 4.241 1.774
65 2 6.189 6.244 3.547
67 2 9.659 4.241 7.095
131 1 5.681 3.593 0.653
136 1 5.681 3.593 5.974
172 1 13.026 0.648 2.895
173 1 8.129 0.648 2.895
174 1 7.617 2.475 4.668
176 1 11.188 1.118 1.121
180 1 12.514 2.475 4.668
181 1 10.065 1.766 4.2
182 1 11.188 1.118 6.442
190 1 8.74 3.123 2.427
191 1 10.578 3.593 0.653
192 1 10.578 4.889 2.895
193 1 5.681 4.889 2.895
196 1 8.74 5.359 1.121
197 1 8.74 3.123 7.748
198 1 10.578 3.593 5.974
203 1 7.617 6.007 4.2
204 1 8.74 5.359 6.442
5 2 13.5343 2.003 8.868
8 2 13.5343 2.003 14.189
14 2 11.0863 6.244 8.868
17 2 11.0863 6.244 14.189
36 2 6.189 2.238 10.642
59 2 8.638 2.003 8.868
61 2 12.107 0 12.416
62 2 8.638 2.003 14.189
63 2 11.086 2.238 10.642
68 2 6.189 6.244 8.868
70 2 9.659 4.241 12.416
71 2 6.189 6.244 14.189
142 1 5.681 3.593 11.295
175 1 12.514 2.475 15.32
177 1 13.026 0.648 8.216
178 1 8.129 0.648 8.216
179 1 7.617 2.475 9.989
183 1 13.026 0.648 13.537
184 1 8.129 0.648 13.537
185 1 10.065 1.766 14.842
186 1 7.617 2.475 15.32
187 1 12.514 2.475 9.989
188 1 10.065 1.766 9.521
189 1 11.188 1.118 11.763
199 1 10.578 4.889 8.216
200 1 5.681 4.889 8.216
205 1 8.74 3.123 13.069
206 1 10.578 3.593 11.295
207 1 10.578 4.889 13.537
208 1 5.681 4.889 13.537
209 1 7.617 6.007 14.842
212 1 7.617 6.007 9.521
213 1 8.74 5.359 11.763
20 2 8.6373 10.485 3.547
39 2 3.741 6.479 0
42 2 3.741 6.479 5.321
48 2 1.292 10.72 0
51 2 1.292 10.72 5.321
66 2 8.638 6.479 0
69 2 8.638 6.479 5.321
73 2 7.21 8.482 1.774
74 2 3.741 10.485 3.547
75 2 6.189 10.72 0
76 2 7.21 8.482 7.095
78 2 6.189 10.72 5.321
149 1 3.232 7.834 0.653
154 1 0.784 12.075 0.653
156 1 3.232 7.834 5.974
162 1 0.784 12.075 5.974
194 1 5.168 6.716 4.668
202 1 10.065 6.716 4.668
214 1 6.291 7.364 2.427
215 1 8.129 7.834 0.653
216 1 8.129 9.13 2.895
217 1 3.232 9.13 2.895
218 1 3.843 11.605 2.427
219 1 2.72 10.957 4.668
221 1 6.291 9.6 1.121
222 1 5.681 12.075 0.653
223 1 6.291 7.364 7.748
224 1 8.129 7.834 5.974
227 1 3.843 11.605 7.748
229 1 7.617 10.957 4.668
230 1 5.168 10.248 4.2
231 1 6.291 9.6 6.442
232 1 5.681 12.075 5.974
23 2 8.6373 10.485 8.868
26 2 8.6373 10.485 14.189
45 2 3.741 6.479 10.642
54 2 1.292 10.72 10.642
72 2 8.638 6.479 10.642
77 2 3.741 10.485 8.868
79 2 7.21 8.482 12.416
80 2 3.741 10.485 14.189
81 2 6.189 10.72 10.642
164 1 3.232 7.834 11.295
171 1 0.784 12.075 11.295
195 1 10.065 6.716 15.32
201 1 5.168 6.716 9.989
210 1 5.168 6.716 15.32
211 1 10.065 6.716 9.989
220 1 7.617 10.957 15.32
225 1 8.129 9.13 8.216
226 1 3.232 9.13 8.216
228 1 2.72 10.957 9.989
233 1 6.291 7.364 13.069
234 1 8.129 7.834 11.295
235 1 8.129 9.13 13.537
236 1 3.232 9.13 13.537
237 1 5.168 10.248 14.842
238 1 3.843 11.605 13.069
239 1 2.72 10.957 15.32
240 1 7.617 10.957 9.989
241 1 5.168 10.248 9.521
242 1 6.291 9.6 11.763
243 1 5.681 12.075 11.295
ITEM: TIMESTEP
100
ITEM: NUMBER OF ATOMS
243
ITEM: BOX BOUNDS xy xz yz pp pp pp
-7.3088720000000000e+00 1.4617843499999999e+01 -7.3088720000000000e+00
0.0000000000000000e+00 1.2723000000000001e+01 0.0000000000000000e+00
0.0000000000000000e+00 1.5963100000000001e+01 0.0000000000000000e+00
ITEM: ATOMS id type x y z
135 1 3.8645 3.0371 7.69785
139 1 2.73697 6.15138 4.09807
11 2 -3.44423 6.22076 3.65591
6 2 1.32003 2.3316 5.26172
10 2 -0.208785 4.16416 1.81925
13 2 -0.141462 4.34615 7.1694
28 2 7.16837 0.0870674 1.70169
29 2 3.68216 1.88186 3.53291
140 1 3.69136 5.36474 6.46317
37 2 4.59756 4.22112 1.79695
38 2 1.34743 6.22463 3.46781
40 2 4.65839 4.23362 6.98478
82 1 1.35112 1.17105 1.18174
83 1 0.388564 1.88526 4.03326
84 1 1.30174 1.09675 6.34355
88 1 -1.14698 2.99045 2.32662
89 1 0.690994 3.62029 0.636093
90 1 -1.06562 5.31178 1.19893
91 1 -1.10625 3.2119 7.67951
92 1 0.780933 3.642 6.02331
93 1 -1.97989 6.06677 4.24965
94 1 -0.957583 5.57004 6.51336
118 1 3.11224 0.439472 3.06981
119 1 2.81967 2.5488 4.72768
120 1 6.17523 1.23808 1.17754
123 1 5.14557 1.75377 4.18521
124 1 6.2603 1.21023 6.46883
130 1 3.68332 2.94708 2.27845
132 1 0.661862 4.84241 2.99165
134 1 3.72554 5.43282 1.27829
3 2 1.26779 2.24181 0.0227119
7 2 2.23227 0.0268108 12.4739
9 2 1.39918 2.3056 10.6598
16 2 -0.0960783 4.21037 12.4592
32 2 3.75759 1.93886 8.85257
5 2 -1.04854 2.10545 8.90351
35 2 3.73756 1.91067 14.2549
41 2 1.30761 6.21906 9.04696
43 2 4.63894 4.21563 12.4654
44 2 1.37139 6.23779 14.2478
85 1 0.343723 1.84078 14.7797
86 1 0.419069 1.87746 9.48245
87 1 1.40657 1.21125 11.8298
95 1 -1.03946 3.09733 13.0148
96 1 0.844909 3.63307 11.3632
97 1 -2.09315 5.98383 14.9041
98 1 -2.1393 5.96285 9.4323
99 1 -1.01118 5.32461 11.7731
121 1 3.18285 0.621325 8.09048
122 1 2.8393 2.40242 10.0449
125 1 3.0686 0.550065 13.7542
126 1 5.20335 1.75153 14.8058
127 1 2.72786 2.46789 15.3815
128 1 5.24723 1.80566 9.46938
129 1 6.25581 1.17698 11.7899
137 1 0.736828 4.86652 8.43291
141 1 3.82958 3.00259 13.1124
143 1 0.860232 4.86208 13.574
144 1 2.77677 6.05087 14.9464
146 1 2.7466 6.0149 9.67663
147 1 3.86435 5.49772 11.9046
8 2 -1.12808 2.0158 14.1655
31 2 -0.189493 12.6853 7.05442
15 2 -0.968065 6.6262 5.30288
19 2 -2.58765 8.46045 1.79431
4 2 -5.07375 12.6969 7.02714
22 2 -2.58398 8.53209 7.1074
24 2 -3.59169 10.7068 5.23707
46 2 2.28933 8.56741 1.71981
47 2 -1.08949 10.5003 3.59259
49 2 2.26023 8.45034 7.18121
100 1 -3.37702 7.27111 2.46134
101 1 -1.59281 7.86316 0.733043
102 1 -6.03681 11.5224 2.33195
103 1 -3.47145 9.52829 1.01697
104 1 -4.1867 12.0901 0.635269
105 1 -3.48668 7.30262 7.61451
106 1 -1.70335 8.02538 5.91782
107 1 -5.91519 11.5038 7.65874
108 1 -4.57496 10.2128 4.07552
109 1 -3.56046 9.68059 6.44809
110 1 -4.26902 12.0577 5.8029
133 1 0.446493 6.85385 4.63591
148 1 1.42528 7.28341 2.25992
150 1 -1.79542 9.20722 2.96351
151 1 -0.869231 11.6332 2.48645
152 1 -2.10808 10.973 4.73495
153 1 1.35316 9.75368 1.17563
155 1 1.37386 7.27897 7.88013
158 1 -1.1454 11.5377 7.74147
160 1 0.320712 10.2016 4.22425
161 1 1.25919 9.51548 6.50177
12 2 -1.11746 6.48644 0.0955344
1 2 -5.09425 12.685 1.81624
18 2 -1.18771 6.46252 10.6436
25 2 -2.59467 8.48178 12.5146
27 2 -3.51679 10.7869 10.685
50 2 -1.15192 10.4609 8.90409
52 2 2.2327 8.48394 12.4067
53 2 -1.19216 10.4865 14.1902
111 1 -3.47289 7.25394 13.1377
112 1 -1.7441 7.7926 11.3464
113 1 -4.50562 10.2615 14.7374
114 1 -6.00376 11.5747 12.9696
115 1 -4.57614 10.4263 9.54726
116 1 -3.45088 9.60753 11.7583
117 1 -4.01269 12.1344 11.3935
138 1 0.329736 6.71104 10.1841
145 1 0.311592 6.73336 15.3178
157 1 -1.82898 9.11188 8.36159
159 1 -2.03874 10.9624 10.1524
163 1 1.35345 7.28782 13.0546
165 1 -1.6268 9.06926 13.6137
166 1 0.264311 10.4066 14.822
167 1 -1.12937 11.4773 12.9635
168 1 -2.15503 10.9274 15.3884
169 1 0.384506 10.327 9.39713
170 1 1.34307 9.64542 11.7189
26 2 -5.96242 10.5007 14.1574
21 2 -3.61237 10.7362 15.9584
34 2 -0.239969 12.6981 12.4713
2 2 13.4655 1.91015 3.52378
204 1 8.64823 5.479 6.55084
203 1 7.65943 5.94294 4.19218
33 2 6.13538 2.30561 5.26625
198 1 10.3341 3.59822 5.85063
56 2 8.56248 2.11346 3.43187
30 2 6.16148 2.28006 0.0143801
58 2 12.0792 0.124582 7.05466
60 2 11.0158 2.25363 5.25871
64 2 9.69988 4.3354 1.7604
65 2 6.14465 6.08297 3.55753
67 2 9.50894 4.22686 7.07333
131 1 5.48991 3.64169 0.58749
136 1 5.56341 3.6954 5.78768
172 1 13.0006 0.469664 2.98825
173 1 8.12575 0.786145 2.72406
174 1 7.57467 2.58243 4.6312
176 1 11.2495 1.18611 1.1188
180 1 12.4954 2.43904 4.74438
181 1 10.0607 1.87237 4.06455
182 1 10.9966 1.13523 6.41132
190 1 8.71753 3.2809 2.36676
191 1 10.4701 3.66547 0.559022
192 1 10.6185 4.86814 2.96733
193 1 5.49544 4.70456 3.02579
196 1 8.7513 5.51479 1.23295
197 1 8.64889 3.04942 7.77963
57 2 11.0507 2.28301 15.8863
213 1 8.73411 5.4456 11.7972
212 1 7.52999 6.02048 9.55599
209 1 7.66712 5.82051 14.7699
36 2 6.20652 2.28396 10.6442
59 2 8.64064 1.89459 8.88141
208 1 5.62783 4.81994 13.5498
62 2 8.53624 1.97115 14.1926
63 2 11.0294 2.22142 10.6007
68 2 6.1308 6.15787 8.85411
70 2 9.462 4.15265 12.4036
71 2 6.18035 6.17026 14.1534
142 1 5.53774 3.59534 11.2837
175 1 12.4913 2.51024 15.3263
177 1 13.0194 0.792281 8.1522
178 1 7.99914 0.503225 8.25643
179 1 7.69755 2.40031 10.0732
183 1 12.8414 0.691633 13.4795
184 1 7.94733 0.575622 13.6825
185 1 10.0423 1.79257 14.7513
186 1 7.61047 2.53239 15.3739
187 1 12.5643 2.41435 10.1326
188 1 10.1612 1.69392 9.34774
189 1 11.0374 1.09407 11.7489
199 1 10.5199 4.8151 8.12989
200 1 5.49089 4.86263 8.20011
205 1 8.53918 2.98967 12.9688
206 1 10.3148 3.53442 11.1079
207 1 10.5969 4.69441 13.5119
17 2 11.0906 6.0694 14.2065
14 2 11.0552 6.15028 8.73458
61 2 11.9429 0.00314283 12.3644
232 1 5.58938 12.0746 5.91486
39 2 3.78315 6.5878 0.109455
42 2 3.71841 6.50143 5.32377
55 2 4.7693 12.6905 1.73956
51 2 1.36336 10.6335 5.34638
20 2 8.56977 10.3987 3.44656
69 2 8.59598 6.50537 5.35378
73 2 7.01389 8.41847 1.72405
74 2 3.73052 10.4506 3.59752
231 1 6.18995 9.65857 6.55746
76 2 7.10578 8.47605 7.13102
78 2 6.23641 10.6777 5.32161
149 1 3.38158 8.06914 0.66899
154 1 0.756435 12.2666 0.52242
156 1 3.14457 7.81819 6.04255
162 1 0.743274 11.9658 5.95845
194 1 5.26804 6.68002 4.74045
202 1 10.1552 6.58109 4.84158
214 1 6.17788 7.16837 2.35078
215 1 7.94525 7.82977 0.607688
216 1 7.95729 9.09753 2.84698
217 1 3.13632 9.07719 3.01253
218 1 3.89876 11.4704 2.33012
219 1 2.79051 10.9938 4.75018
221 1 6.18507 9.62446 1.09404
222 1 5.67507 12.1394 0.541321
223 1 6.30448 7.17494 7.65425
224 1 8.04603 7.84496 5.91418
227 1 3.89729 11.6405 7.69753
229 1 7.67463 10.8525 4.69181
230 1 5.21255 10.2601 4.16507
23 2 8.60414 10.4519 8.85072
243 1 5.47297 12.098 11.1648
45 2 3.8045 6.5933 10.7582
54 2 1.31985 10.8181 10.6181
72 2 8.61065 6.51094 10.6133
77 2 3.70897 10.5766 8.86482
79 2 7.22281 8.50165 12.3741
80 2 3.7817 10.4156 14.1901
81 2 6.10342 10.7296 10.6298
164 1 3.2759 8.03176 11.223
171 1 0.767054 12.0786 11.3734
195 1 10.0503 6.60483 15.3191
201 1 5.19019 6.74507 10.0168
210 1 5.23807 6.64063 15.3471
211 1 9.99677 6.57937 9.81787
220 1 7.67122 10.9427 15.3617
225 1 8.02089 9.08101 8.29994
226 1 3.08337 9.26463 8.29106
228 1 2.83289 11.0707 10.0967
233 1 6.39426 7.30424 13.0696
234 1 8.14605 7.95593 11.1608
235 1 8.11908 9.09778 13.5711
236 1 3.15491 9.06562 13.5989
237 1 5.24287 10.3241 14.7999
238 1 3.85515 11.5325 13.0601
239 1 2.78669 10.9602 15.3035
240 1 7.52541 10.9185 9.94279
241 1 5.13526 10.2377 9.46433
242 1 6.28996 9.66082 11.7731
48 2 1.30977 10.8338 15.9587
75 2 6.24068 10.7689 15.9417
66 2 8.54898 6.49337 15.9392
ITEM: TIMESTEP
200
ITEM: NUMBER OF ATOMS
243
ITEM: BOX BOUNDS xy xz yz pp pp pp
-7.2721439999999999e+00 1.4544387000000000e+01 -7.2721439999999999e+00
0.0000000000000000e+00 1.2723000000000001e+01 0.0000000000000000e+00
0.0000000000000000e+00 1.5963100000000001e+01 0.0000000000000000e+00
ITEM: ATOMS id type x y z
135 1 3.79196 2.88219 7.5717
139 1 2.75565 6.09785 4.15038
11 2 -3.44446 6.16786 3.60281
6 2 1.3352 2.30687 5.37449
10 2 -0.229561 4.30555 1.84615
13 2 -0.0877364 4.34141 7.19586
28 2 7.05784 0.116329 1.7689
29 2 3.65799 1.90462 3.5403
140 1 3.65279 5.36365 6.43211
37 2 4.57072 4.27269 1.80875
38 2 1.31796 6.231 3.45653
40 2 4.58788 4.20349 7.03779
82 1 1.30453 1.12651 1.13214
83 1 0.31384 1.87901 4.20632
84 1 1.31964 1.20751 6.50174
88 1 -1.06943 3.06408 2.40688
89 1 0.686173 3.64239 0.724491
90 1 -1.06946 5.51599 1.26138
91 1 -1.11456 3.32496 7.86047
92 1 0.733246 3.64913 6.01133
93 1 -1.99593 6.08305 4.35104
94 1 -0.657802 5.67566 6.51879
118 1 2.92222 0.58792 2.96756
119 1 2.77986 2.41353 4.74044
120 1 6.12969 1.28149 1.18681
123 1 5.08106 1.84883 4.15339
124 1 6.19622 1.25777 6.48354
130 1 3.7063 3.02421 2.40854
132 1 0.693185 4.8938 2.97012
134 1 3.77347 5.51756 1.2261
3 2 1.29309 2.29407 0.0594369
31 2 6.99946 0.0291331 7.08239
34 2 6.9511 0.0289553 12.4287
9 2 1.40967 2.34845 10.5877
16 2 -0.0588193 4.26911 12.3974
32 2 3.77787 1.816 8.76997
5 2 -1.13815 2.06956 8.81898
35 2 3.71364 2.0493 14.2258
41 2 1.3465 6.1924 9.04186
43 2 4.74526 4.20439 12.4434
44 2 1.35488 6.22076 14.2575
85 1 0.279336 1.68054 14.8879
86 1 0.313563 1.97673 9.48838
87 1 1.4531 1.19531 11.7249
95 1 -0.813211 2.95204 13.0237
96 1 0.919386 3.74354 11.2468
97 1 -2.09007 6.0067 14.8972
98 1 -2.02417 6.08524 9.47883
99 1 -1.04377 5.43441 11.8779
121 1 3.06384 0.534833 8.21843
122 1 2.86955 2.35447 9.96307
125 1 3.05601 0.658231 13.6717
126 1 5.12372 1.80685 14.8315
127 1 2.80231 2.49545 15.4877
128 1 5.2626 1.62505 9.32386
129 1 6.03299 1.20099 11.844
137 1 0.821983 4.813 8.40651
141 1 3.76712 3.12364 13.0274
143 1 0.688412 4.87879 13.6765
144 1 2.81043 6.20931 14.8568
146 1 2.77905 5.9801 9.61933
147 1 3.95056 5.45571 11.9274
1 2 -5.19849 12.5961 1.77847
15 2 -0.959561 6.7171 5.34926
19 2 -2.63336 8.47509 1.77199
12 2 -1.16521 6.52648 0.0557101
22 2 -2.63199 8.50738 7.10146
24 2 -3.586 10.7568 5.17427
46 2 2.23319 8.51078 1.73528
47 2 -1.12111 10.545 3.50477
49 2 2.23372 8.48187 7.14979
100 1 -3.38155 7.33034 2.54285
101 1 -1.72619 7.91207 0.573508
102 1 -5.97871 11.4053 2.50479
103 1 -3.55519 9.54666 1.05931
104 1 -4.18274 11.9507 0.761965
105 1 -3.3897 7.15434 7.58312
106 1 -1.55481 8.07963 5.94464
107 1 -5.97258 11.5329 7.64398
108 1 -4.49902 10.2013 4.00992
109 1 -3.57842 9.65258 6.36295
110 1 -4.18608 12.1155 5.81078
133 1 0.399888 6.89762 4.59059
148 1 1.40148 7.31107 2.3171
150 1 -1.69423 9.17866 2.8703
151 1 -1.03076 11.6192 2.34537
152 1 -2.08139 11.0326 4.68513
153 1 1.47622 9.79081 1.10966
155 1 1.43983 7.23607 7.83066
158 1 -1.20988 11.6038 7.70647
160 1 0.267164 10.3802 4.17528
161 1 1.40942 9.70267 6.50006
4 2 -5.09053 12.708 7.0124
21 2 -3.52215 10.7192 0.000691773
18 2 -1.14499 6.52105 10.7245
25 2 -2.64661 8.45567 12.5179
27 2 -3.52162 10.7303 10.7241
50 2 -1.19541 10.5496 8.91972
52 2 2.23662 8.52999 12.5159
53 2 -1.11709 10.3466 14.184
111 1 -3.50548 7.18125 12.9791
112 1 -1.76475 7.8812 11.3188
113 1 -4.48523 10.4316 14.6989
114 1 -5.9741 11.4965 12.992
115 1 -4.48018 10.3125 9.51604
116 1 -3.41059 9.68018 11.9186
117 1 -4.08576 12.097 11.3188
138 1 0.331421 6.75557 10.1703
145 1 0.321352 6.59389 15.4056
157 1 -1.75943 9.22207 8.25165
159 1 -2.09651 11.0416 10.1256
163 1 1.39268 7.29765 13.0711
165 1 -1.79062 8.96202 13.7201
166 1 0.394201 10.2497 14.7186
167 1 -1.10215 11.5205 13.0975
168 1 -2.01696 10.8957 15.3971
169 1 0.257199 10.3869 9.52011
170 1 1.37858 9.7405 11.8567
23 2 -5.89407 10.5111 8.84076
7 2 -5.03947 12.702 12.452
2 2 13.4316 1.94462 3.49454
204 1 8.50907 5.33661 6.50164
203 1 7.58131 5.96309 4.17251
33 2 6.14097 2.29337 5.24185
198 1 10.3079 3.6471 5.82949
56 2 8.61283 2.01634 3.46571
197 1 8.6051 2.97682 7.62327
58 2 11.9385 0.078578 7.00831
60 2 11.0344 2.29201 5.24269
64 2 9.57071 4.30931 1.76563
65 2 6.1379 6.11477 3.56227
67 2 9.45107 4.19987 7.03983
131 1 5.42779 3.6978 0.585149
136 1 5.56025 3.6451 5.88703
172 1 12.8966 0.577109 2.92821
173 1 7.97827 0.72997 2.91562
174 1 7.6407 2.43774 4.64368
176 1 11.0722 1.16534 1.09285
180 1 12.5096 2.40047 4.69176
181 1 10.1017 1.82097 4.01849
182 1 11.0289 1.21181 6.40521
190 1 8.63591 3.17315 2.40123
191 1 10.4789 3.64102 0.648478
192 1 10.6234 4.78171 2.92273
193 1 5.56156 4.78228 2.92146
196 1 8.78449 5.63783 1.25957
30 2 6.06558 2.33389 0.0303607
57 2 11.0565 2.30757 15.9471
213 1 8.69664 5.44789 11.826
212 1 7.61438 5.8948 9.49167
209 1 7.66806 5.83215 14.8633
36 2 6.1152 2.21371 10.5823
59 2 8.55605 1.95152 8.82655
208 1 5.63798 4.67135 13.694
62 2 8.55442 2.05753 14.228
63 2 10.9239 2.20125 10.5542
68 2 6.16361 6.18376 8.86599
70 2 9.48586 4.20463 12.3664
71 2 6.18451 6.06742 14.2284
142 1 5.5534 3.63333 11.1755
175 1 12.45 2.49613 15.2822
177 1 12.8772 0.76865 8.10643
178 1 7.97094 0.510123 8.27204
179 1 7.59623 2.30304 10.0266
183 1 12.7562 0.599083 13.5343
184 1 7.90452 0.725622 13.5372
185 1 10.0305 1.89588 14.8033
186 1 7.53331 2.42894 15.3628
187 1 12.4071 2.37135 9.99017
188 1 10.0505 1.74806 9.31043
189 1 10.9848 1.17988 11.775
199 1 10.441 4.81353 8.11582
200 1 5.48312 4.91123 8.16587
205 1 8.58062 3.13922 13.0511
206 1 10.3766 3.59006 11.2112
207 1 10.3682 4.72872 13.5794
17 2 10.9861 6.12271 14.1649
14 2 11.0416 6.11656 8.82223
8 2 13.423 1.90757 14.1614
232 1 5.61015 12.173 5.8263
39 2 3.78446 6.57333 0.0429144
42 2 3.69096 6.45544 5.31585
55 2 4.67737 12.7036 1.73042
51 2 1.27986 10.8013 5.29726
20 2 8.55472 10.2073 3.56006
69 2 8.56188 6.44233 5.32643
73 2 7.04559 8.41632 1.69824
74 2 3.7402 10.4203 3.57536
231 1 6.2184 9.69756 6.57051
76 2 7.18856 8.50519 7.06914
78 2 6.14583 10.7391 5.30033
149 1 3.23195 7.9298 0.630882
154 1 0.700925 12.1755 0.643403
156 1 3.21556 7.80902 6.07598
162 1 0.629828 12.1117 5.92861
194 1 5.20454 6.56066 4.82946
202 1 10.068 6.56864 4.72049
214 1 6.18783 7.21171 2.35677
215 1 7.85387 7.89835 0.434967
216 1 7.96627 8.8997 2.89915
217 1 3.1302 9.08347 2.95095
218 1 3.84619 11.5646 2.47422
219 1 2.77934 10.8687 4.75578
221 1 6.16318 9.6136 1.19184
222 1 5.61219 12.0376 0.624945
223 1 6.23432 7.41652 7.79854
224 1 8.01712 7.87849 5.91121
227 1 3.86632 11.6209 7.77023
229 1 7.60566 10.728 4.73489
230 1 5.1546 10.2099 4.22731
66 2 8.55938 6.5407 15.9334
243 1 5.54464 12.1442 11.213
45 2 3.76169 6.46631 10.7441
54 2 1.25211 10.8585 10.6715
72 2 8.59144 6.46492 10.627
77 2 3.74257 10.4585 8.91489
79 2 7.10834 8.34479 12.3718
80 2 3.79094 10.524 14.1859
81 2 6.19367 10.8154 10.6164
164 1 3.17428 7.85345 11.3625
171 1 0.610297 12.1741 11.2748
195 1 10.0444 6.65086 15.291
201 1 5.18177 6.65845 10.0656
210 1 5.18861 6.63092 15.3379
211 1 10.0432 6.59208 9.96737
220 1 7.60167 10.7641 15.3194
225 1 8.14095 9.09459 8.21411
226 1 3.05897 9.15922 8.33334
228 1 2.7184 10.9966 10.0169
233 1 6.30769 7.10627 12.9847
234 1 8.01232 7.84075 11.1713
235 1 8.08314 8.94956 13.5344
236 1 3.1409 9.15073 13.6712
237 1 5.24245 10.2637 14.7386
238 1 3.69265 11.5111 12.9468
239 1 2.87293 11.0436 15.4048
240 1 7.66927 11.0441 9.99098
241 1 5.20827 10.2484 9.52473
242 1 6.32247 9.61712 11.7517
48 2 1.31157 10.8475 15.885
26 2 8.57444 10.3814 14.1536
61 2 4.57221 12.7166 12.3276
75 2 6.14548 10.6657 15.9554
