ITEM: TIMESTEP
0
ITEM: NUMBER OF ATOMS
243
ITEM: BOX BOUNDS xy xz yz pp pp pp
-7.3456000000000001e+00 1.4691300000000000e+01 -7.3456000000000001e+00
0.0000000000000000e+00 1.2723000000000001e+01 0.0000000000000000e+00
0.0000000000000000e+00 1.5963100000000001e+01 0.0000000000000000e+00
ITEM: ATOMS id type q x y z
135 1 -0.930924 3.89326 2.95552 7.72199
139 1 -0.989821 2.84432 6.07534 4.14258
1 2 1.85563 2.35916 0.0855971 1.84194
6 2 1.87105 1.36612 2.32072 5.24825
10 2 1.95109 -0.224878 4.29864 1.69982
13 2 1.90566 -0.205973 4.21769 6.97711
134 1 -0.996724 3.85177 5.42967 1.0473
29 2 1.9806 3.86264 2.11595 3.50168
140 1 -1.04943 3.89407 5.40063 6.49036
37 2 2.06954 4.75391 4.26658 1.65355
38 2 1.87984 1.38546 6.18374 3.5748
40 2 1.95856 4.75886 4.27711 7.21789
82 1 -0.939139 1.49568 1.40203 1.28798
83 1 -0.931045 0.352969 1.86273 4.10001
84 1 -0.892287 1.40264 1.18302 6.47305
88 1 -0.965071 -1.00785 3.05729 2.35581
89 1 -0.99181 0.694942 3.76193 0.500857
90 1 -0.977356 -1.14136 5.45684 1.09698
91 1 -0.925831 -0.980129 2.96408 7.61798
92 1 -0.942827 0.752447 3.72162 5.78143
93 1 -0.940115 -2.15944 6.17216 4.01887
94 1 -0.959895 -1.15121 5.37873 6.39271
118 1 -0.948166 3.22632 0.719837 3.06383
119 1 -0.935417 2.80538 2.57218 4.60731
120 1 -1.00381 6.21379 1.11256 1.24997
123 1 -0.994171 5.26809 2.07876 4.31312
124 1 -1.03384 6.36553 1.20527 6.51113
130 1 -1.00298 3.81329 3.16634 2.32837
132 1 -0.928118 0.774475 4.86558 2.82348
2 2 1.8722 -1.14556 1.99658 3.54699
31 2 2.02397 7.26821 0.0240114 6.98841
3 2 2.02184 1.35751 2.41599 0.0435136
4 2 1.72995 2.29642 0.00949363 7.17053
14 2 1.93531 -3.56628 6.23008 8.86051
9 2 1.86543 1.31722 2.3561 10.686
16 2 1.96542 -0.287164 4.24317 12.4205
32 2 1.78303 3.71365 1.90966 8.96656
8 2 1.93802 -1.09404 2.01445 14.2535
35 2 1.99294 3.70522 2.05121 14.2076
41 2 1.92743 1.31854 6.21814 8.7385
43 2 1.89353 4.57118 4.31173 12.4525
44 2 2.0586 1.37812 6.18064 14.0769
85 1 -1.00834 0.392364 1.94917 14.8426
86 1 -0.942408 0.2992 1.78488 9.55884
87 1 -0.913412 1.46521 1.17113 11.83
95 1 -0.968615 -1.25343 3.13479 13.1428
96 1 -1.01327 0.582801 3.6292 11.2893
97 1 -0.966642 -2.16289 6.06784 14.8129
98 1 -0.958837 -2.07197 6.09355 9.46241
99 1 -1.00341 -1.10354 5.47177 11.7964
121 1 -0.907488 3.20039 0.441145 8.45966
122 1 -0.931902 2.82785 2.58223 10.1284
125 1 -0.92908 3.23159 0.655922 13.5737
126 1 -1.01928 5.15757 1.80731 14.794
127 1 -1.03138 2.78259 2.61697 15.3619
128 1 -0.898096 5.22925 1.73799 9.5536
129 1 -0.957282 6.24293 1.12954 11.7746
137 1 -0.9733 0.722838 4.8745 8.12964
141 1 -0.951844 3.76125 2.95784 12.911
143 1 -0.980048 0.798594 4.82454 13.4737
144 1 -1.03369 2.83027 6.04 14.6767
146 1 -1.02047 2.84257 6.15688 9.2203
147 1 -0.952533 3.68083 5.40212 11.6788
21 2 1.9821 -3.51466 10.9386 0.0154604
15 2 1.9811 -1.16818 6.48983 5.24668
19 2 1.91297 -2.70537 8.48342 1.72948
28 2 1.85615 -0.233235 12.6549 1.85362
22 2 2.03817 -2.64648 8.41523 7.07656
24 2 1.91843 -3.61091 10.7937 5.43553
46 2 1.91123 2.30447 8.52733 1.79871
47 2 1.93328 -1.23417 10.2936 3.59226
49 2 1.94405 2.27316 8.49382 7.10193
100 1 -0.960166 -3.62409 7.22136 2.15902
101 1 -0.91102 -1.66523 7.91664 0.563131
102 1 -0.953302 -5.89723 11.5859 2.38348
103 1 -0.979364 -3.3362 9.83546 1.18814
104 1 -1.01641 -4.09057 12.2619 0.615401
105 1 -1.03668 -3.52225 7.31863 7.75708
106 1 -1.00434 -1.71285 7.79967 5.96852
107 1 -0.933745 -5.99745 11.4509 7.59228
108 1 -0.894935 -4.52955 10.4228 4.16473
109 1 -0.989922 -3.57809 9.5949 6.4867
110 1 -0.905284 -4.12581 12.2476 5.91275
133 1 -0.956079 0.350144 6.56068 4.79738
148 1 -0.896925 1.32835 7.30453 2.3875
150 1 -0.976922 -1.86508 8.957 2.99333
151 1 -0.947305 -1.06423 11.3581 2.41234
152 1 -0.954973 -2.15518 10.8154 4.83791
153 1 -0.99589 1.34955 9.64864 1.23502
155 1 -0.935644 1.29547 7.27229 7.52188
158 1 -0.969796 -0.917451 11.4509 7.5003
160 1 -0.937137 0.269506 10.3099 4.18711
161 1 -0.975773 1.48303 9.72932 6.47431
18 2 2.05248 -1.04351 6.50549 10.6102
25 2 2.03502 -2.60265 8.42088 12.3712
27 2 1.8808 -3.55187 10.7326 10.4958
50 2 1.88926 -1.09744 10.4831 8.7661
52 2 1.97758 2.25172 8.42224 12.3534
53 2 1.98973 -1.07638 10.3856 14.1271
111 1 -1.03219 -3.37835 7.22455 13.0333
112 1 -0.986273 -1.68215 7.82007 11.2208
113 1 -0.970148 -4.49245 10.3889 14.7958
114 1 -0.957203 -6.00139 11.4939 13.0168
115 1 -0.943757 -4.55641 10.174 9.34411
116 1 -0.97143 -3.43006 9.6163 11.7126
117 1 -0.909499 -4.2563 12.0515 11.1172
138 1 -1.00958 0.367318 6.74103 9.9299
145 1 -1.013 0.375059 6.60404 15.2351
157 1 -0.926741 -1.69323 9.03415 8.22213
159 1 -0.953955 -2.1167 11.0091 9.86919
163 1 -1.0252 1.35894 7.2227 12.9089
165 1 -0.981671 -1.67876 9.01351 13.5562
166 1 -1.03206 0.378645 10.3435 14.7571
167 1 -0.971135 -0.97907 11.4624 12.9428
168 1 -0.984303 -2.0905 10.9187 15.2623
169 1 -0.928116 0.319358 10.1967 9.5125
170 1 -1.00165 1.36423 9.60777 11.8054
34 2 1.96282 -0.168869 12.7141 12.3827
12 2 1.96264 -1.09242 6.52553 15.8812
7 2 1.84542 -5.05849 12.6653 12.4125
26 2 1.85747 -5.96889 10.4024 14.1877
196 1 -0.974836 8.71744 5.39496 1.20493
204 1 -0.983651 8.87385 5.46447 6.53038
203 1 -0.943157 7.69236 5.76386 4.23042
33 2 2.04853 6.29476 2.43633 5.48965
198 1 -0.945548 10.4444 3.53748 5.98129
56 2 2.05101 8.60909 1.92672 3.65596
197 1 -1.01492 8.69734 3.12737 7.86505
193 1 -1.0117 5.5732 4.85384 2.85632
60 2 1.90816 11.0678 2.17912 5.38279
64 2 1.88533 9.51821 4.19601 1.83822
65 2 1.93452 6.23284 6.11873 3.57559
67 2 2.0088 9.59194 4.22164 7.17755
131 1 -1.03245 5.60239 3.50955 0.56906
136 1 -1.01249 5.80271 3.78413 6.13852
172 1 -0.910577 12.9562 0.54538 2.99109
173 1 -0.985157 8.00327 0.615989 3.05348
174 1 -1.0438 7.73585 2.47803 4.84966
176 1 -0.942605 11.2607 1.30214 1.28656
180 1 -0.929124 12.5539 2.44723 4.75594
181 1 -0.979384 10.1085 1.76751 4.12963
182 1 -1.00927 11.0406 1.11588 6.56885
190 1 -0.973257 8.61261 2.96845 2.4549
191 1 -0.941293 10.5513 3.76732 0.640316
192 1 -0.950114 10.4499 4.79144 2.99541
57 2 1.90564 11.1718 2.40638 0.10109
11 2 1.88404 10.9897 6.24284 3.42356
30 2 2.02893 6.15302 2.12806 0.00977913
36 2 1.93102 6.22051 2.30964 10.6776
213 1 -0.955336 8.71384 5.32824 11.748
212 1 -0.987004 7.75567 6.06282 9.39367
209 1 -0.937885 7.71077 5.98361 14.7867
5 2 1.8144 13.5237 1.97736 8.9379
59 2 1.98863 8.64541 1.98342 8.96335
208 1 -0.942882 5.36702 5.02126 13.5977
62 2 1.8756 8.74785 1.94242 14.2534
63 2 1.88955 11.1684 2.2813 10.7339
68 2 1.9502 6.25408 6.18249 8.92557
70 2 2.02448 9.59309 4.20063 12.4648
71 2 1.80027 6.18995 6.2927 14.2804
142 1 -0.899289 5.57426 3.69123 11.2843
175 1 -0.956859 12.6851 2.44722 15.4528
177 1 -0.928573 12.6779 0.650992 8.42968
178 1 -0.976857 8.11068 0.582157 8.23469
179 1 -1.0295 7.67253 2.45037 10.0789
183 1 -0.916914 13.0822 0.557491 13.6518
184 1 -0.950643 8.16431 0.595398 13.5257
185 1 -0.984616 10.2217 1.98375 14.8494
186 1 -0.96206 7.58252 2.36499 15.3651
187 1 -0.931238 12.6486 2.58402 10.1559
188 1 -0.975684 10.1247 1.89857 9.55575
189 1 -0.972294 11.2089 1.18892 11.9236
199 1 -0.944459 10.648 4.76733 8.24471
200 1 -1.017 5.6364 4.84041 8.42247
205 1 -0.97128 8.69017 3.08585 13.1044
206 1 -0.957749 10.5122 3.63314 11.314
207 1 -1.01196 10.5156 4.80668 13.61
17 2 2.06458 11.028 6.19354 14.1809
232 1 -0.970328 5.51324 12.2252 6.03685
58 2 1.94074 4.50108 12.6658 7.18547
42 2 2.06403 3.72247 6.48781 5.40004
55 2 1.78508 4.75647 12.7197 1.76738
51 2 1.98542 1.39705 10.7979 5.28082
230 1 -0.992809 5.35185 10.4341 4.10693
69 2 1.86994 8.64694 6.49695 5.30706
73 2 1.93739 7.14435 8.54681 1.80424
74 2 1.97355 3.89634 10.3618 3.54722
231 1 -0.949722 6.23546 9.6889 6.49218
76 2 1.84237 7.19562 8.50243 7.03283
78 2 1.86465 6.2083 10.8878 5.40706
149 1 -0.972808 3.04503 7.891 0.52326
154 1 -0.967663 0.654845 12.0761 0.601538
156 1 -1.0333 3.12591 7.84466 5.92529
162 1 -1.02099 0.847603 12.1714 5.87779
194 1 -0.952379 5.1681 6.62039 4.6664
202 1 -0.936237 10.1237 6.79902 4.63305
214 1 -0.962719 6.38946 7.32806 2.51338
215 1 -0.98072 7.97408 7.86992 0.6222
216 1 -0.956276 8.24448 9.08569 2.84721
217 1 -0.998306 3.27721 9.01644 2.95575
218 1 -0.905904 3.95265 11.3827 2.25715
219 1 -1.01846 2.81336 10.9064 4.5693
221 1 -0.961395 6.16734 9.64001 1.14901
222 1 -0.834742 5.66885 12.1195 0.473295
223 1 -0.919232 6.30314 7.31475 7.73971
224 1 -0.965052 7.95188 7.85344 5.77639
227 1 -1.06181 3.7148 11.3621 7.68725
229 1 -0.95757 7.71151 10.8813 4.76288
66 2 1.93034 8.59714 6.52492 0.0419773
48 2 2.00402 1.25548 10.716 0.0359308
20 2 1.89845 8.61478 10.4976 3.53241
23 2 1.89603 8.66159 10.3822 8.79391
243 1 -0.992903 5.59742 12.0672 11.2423
45 2 1.95628 3.74286 6.48498 10.5017
54 2 1.96773 1.36076 10.679 10.6461
72 2 1.90995 8.68711 6.50816 10.6195
77 2 2.10038 3.8097 10.3781 8.89437
79 2 1.96729 7.22278 8.4959 12.4481
80 2 1.92131 3.55947 10.4606 14.155
81 2 2.0086 6.20819 10.7617 10.6148
164 1 -0.962901 3.24788 7.7945 11.2707
171 1 -0.972686 0.62686 12.0059 11.1954
195 1 -0.988265 10.0361 6.7286 15.2633
201 1 -0.964985 5.28764 6.6672 10.1197
210 1 -0.955779 5.27827 6.702 15.5456
211 1 -0.945639 10.2214 6.63042 10.1614
220 1 -0.911994 7.65853 10.7992 15.3759
225 1 -0.941386 8.18254 8.9643 8.23708
226 1 -1.00565 3.09301 9.0574 8.37293
228 1 -1.03293 2.87378 10.7411 10.1032
233 1 -0.916335 6.24631 7.42204 13.0769
234 1 -0.981942 8.10131 7.85075 11.2968
235 1 -0.971356 8.17431 8.98072 13.6421
236 1 -0.962316 3.11242 9.03764 13.5721
237 1 -0.902352 5.07704 10.1724 14.6565
238 1 -0.954657 3.74532 11.5589 12.9869
239 1 -1.0134 2.70144 10.9497 15.3748
240 1 -0.975935 7.67512 10.8911 9.96734
241 1 -1.06225 5.25816 10.2638 9.4476
242 1 -0.967225 6.33562 9.6432 11.7742
39 2 1.97636 3.71546 6.54384 15.8913
75 2 1.78347 6.12756 10.6187 15.8538
61 2 1.87699 4.74447 12.7064 12.4648
ITEM: TIMESTEP
100
ITEM: NUMBER OF ATOMS
243
ITEM: BOX BOUNDS xy xz yz pp pp pp
-7.3710460000000007e+00 1.4691300000000000e+01 -7.3456000000000001e+00
0.0000000000000000e+00 1.2723000000000001e+01 -2.5446000000000524e-02
0.0000000000000000e+00 1.5963100000000001e+01 0.0000000000000000e+00
ITEM: ATOMS id type q x y z
135 1 -1.03891 3.87751 3.15802 7.81031
139 1 -1.07358 2.70408 5.81984 4.26419
1 2 2.00923 2.43948 0.0426652 1.77772
6 2 2.09047 1.25923 2.29164 5.2555
10 2 1.97971 -0.116436 4.21723 1.79915
13 2 2.17995 -0.284655 4.11556 7.12495
134 1 -0.988675 3.8727 5.32257 1.14076
29 2 1.8738 3.82484 2.02393 3.57674
140 1 -1.05138 3.81025 5.36973 6.5556
37 2 1.88461 4.81975 4.15524 1.76264
38 2 1.99769 1.32377 6.15505 3.6279
40 2 2.06936 4.75325 4.29009 7.19485
82 1 -0.935505 1.4644 1.14217 1.12374
83 1 -1.02686 0.240113 1.73584 4.15696
84 1 -1.03986 1.44159 1.14683 6.30694
88 1 -1.04518 -1.05202 3.05476 2.37025
89 1 -1.03075 0.866134 3.64946 0.675711
90 1 -0.954605 -0.975827 5.4703 1.26946
91 1 -1.08608 -1.0827 3.01113 7.79551
92 1 -1.06847 0.62428 3.51989 5.98107
93 1 -1.00113 -2.16712 5.96771 4.08673
94 1 -1.01465 -1.17943 5.17617 6.31108
118 1 -0.945874 3.26815 0.586635 3.03204
119 1 -0.973247 2.75382 2.52769 4.69319
120 1 -1.01711 6.23263 1.0519 1.13121
123 1 -0.96671 5.33483 1.87815 4.16318
124 1 -1.01265 6.36454 1.13072 6.43165
130 1 -0.982002 3.82019 3.00672 2.35365
132 1 -0.990822 0.645534 4.82564 3.06701
4 2 2.14467 2.34198 0.0961624 7.05122
31 2 2.01661 7.31576 0.030133 7.08616
14 2 1.98339 -3.56018 6.19462 8.74674
9 2 2.00841 1.29373 2.11499 10.6842
16 2 2.02939 -0.157037 4.18572 12.4108
32 2 2.00623 3.77913 2.04439 8.92576
147 1 -1.00511 3.87044 5.34946 11.5967
35 2 2.10865 3.7943 1.94275 14.1635
41 2 1.98817 1.14788 6.27157 8.81214
43 2 2.07822 4.74539 4.26984 12.3609
44 2 2.04181 1.21509 6.26262 14.1439
85 1 -1.07098 0.23024 1.7573 14.9643
86 1 -0.97745 0.30184 1.54937 9.51966
87 1 -1.00382 1.49226 1.01619 11.8149
95 1 -1.00797 -1.09205 3.10242 13.2096
96 1 -1.05454 0.656006 3.39933 11.3348
97 1 -0.97465 -2.2545 5.9776 14.9381
98 1 -1.02618 -2.14154 6.04175 9.49658
99 1 -1.02436 -0.999019 5.41861 11.7656
121 1 -1.0462 3.03312 0.781714 8.26067
122 1 -1.00443 2.70451 2.4394 10.0524
125 1 -1.01173 3.23192 0.568969 13.7025
126 1 -1.03038 5.20229 1.79877 14.8161
127 1 -1.04104 2.75692 2.39221 15.2601
128 1 -1.02964 5.24522 1.92528 9.5745
129 1 -1.04818 6.27761 1.15111 11.8181
137 1 -1.03734 0.55342 4.88735 8.19055
141 1 -1.02809 3.90012 3.0809 13.0345
143 1 -1.01658 0.725463 4.86672 13.5281
144 1 -1.02937 2.6867 6.1341 14.7945
146 1 -1.00179 2.5871 6.04651 9.48313
3 2 2.03084 1.31192 2.3104 15.9106
15 2 2.11473 -1.20895 6.37394 5.26461
12 2 1.88763 -1.2252 6.50243 0.0443952
19 2 2.01643 -2.57276 8.5439 1.77015
28 2 2.13052 -0.162985 12.7043 1.82583
22 2 2.10718 -2.67942 8.43187 6.97007
24 2 2.00846 -3.56221 10.869 5.32527
46 2 2.06753 2.25684 8.46453 1.79866
47 2 2.01684 -1.18567 10.4757 3.61632
49 2 2.02045 2.37325 8.35965 7.08257
100 1 -1.01849 -3.50284 7.43654 2.40333
101 1 -0.953396 -1.5551 7.98688 0.648804
102 1 -0.987921 -5.90077 11.7121 2.41016
103 1 -1.00059 -3.41196 9.69421 1.03126
104 1 -1.02581 -3.98122 12.1657 0.686096
105 1 -1.06942 -3.50746 7.28033 7.63311
106 1 -1.07067 -1.75386 7.64394 6.00033
107 1 -1.03516 -5.97073 11.6841 7.62606
108 1 -0.978888 -4.60688 10.4945 4.13248
109 1 -1.06991 -3.468 9.5688 6.21457
110 1 -1.06061 -3.92876 12.1876 6.14015
133 1 -0.991068 0.230711 6.67734 4.74006
148 1 -1.01637 1.41879 7.28557 2.50367
150 1 -1.03433 -1.76908 9.16326 2.94424
151 1 -1.01658 -1.01913 11.568 2.43913
152 1 -0.995855 -2.15367 11.1662 4.63566
153 1 -1.06646 1.49532 9.67938 1.18873
155 1 -0.978877 1.24482 7.34442 7.62056
158 1 -0.975343 -1.00503 11.6254 7.7498
160 1 -0.997247 0.222523 10.1614 4.30191
161 1 -0.971717 1.51561 9.56183 6.48225
20 2 1.99043 -6.07486 10.5677 3.52626
18 2 2.12905 -1.18981 6.51932 10.6489
25 2 2.05266 -2.60533 8.50454 12.4285
27 2 2.02733 -3.5984 10.6866 10.5918
50 2 1.92082 -1.17255 10.4602 8.81386
52 2 1.99103 2.20874 8.48916 12.3883
53 2 1.90559 -1.06961 10.553 14.1506
111 1 -1.0147 -3.50707 7.39096 13.0844
112 1 -1.05012 -1.67551 7.87677 11.3051
113 1 -0.986827 -4.65698 10.3974 14.8392
114 1 -0.936129 -5.92801 11.525 12.9337
115 1 -1.07481 -4.67554 10.4194 9.46997
116 1 -0.9807 -3.58959 9.49343 11.6848
117 1 -0.973193 -3.79394 12.0131 11.43
138 1 -1.04008 0.186187 6.71589 9.98038
145 1 -0.992798 0.183993 6.67076 15.2396
157 1 -0.981285 -1.79356 9.1104 8.14138
159 1 -1.01988 -2.14954 10.8301 10.0124
163 1 -1.03744 1.40488 7.2698 12.9385
165 1 -1.0039 -1.84835 9.23055 13.6133
166 1 -1.00202 0.366232 10.3212 14.8898
167 1 -1.02843 -1.06864 11.5866 12.9649
168 1 -0.920217 -2.05882 11.1506 15.3089
169 1 -0.950575 0.307687 10.2105 9.42925
170 1 -0.995488 1.30099 9.62644 11.7269
34 2 2.02423 -0.178814 12.7153 12.3814
23 2 2.04685 -6.05463 10.5978 8.75946
7 2 1.91674 -4.89422 12.6644 12.4368
21 2 1.99459 -3.53532 10.8565 15.9161
196 1 -1.00199 8.6682 5.46805 1.0621
204 1 -1.03067 8.66927 5.38178 6.57002
203 1 -1.02767 7.58744 5.97653 4.2855
33 2 1.97422 6.25916 2.29546 5.39576
198 1 -0.958221 10.5025 3.53904 5.97195
56 2 1.94932 8.63827 2.04491 3.55409
197 1 -1.12751 8.73313 3.07626 7.85516
193 1 -0.964865 5.75036 4.95018 2.83589
60 2 1.94511 11.0589 2.15463 5.28391
64 2 1.98927 9.59692 4.33942 1.7758
65 2 2.06152 6.20226 6.29499 3.53244
67 2 2.0011 9.56696 4.17687 7.10585
131 1 -0.990351 5.75069 3.63178 0.599933
136 1 -1.00193 5.62968 3.61456 6.02353
172 1 -1.06346 13.0842 0.604681 2.79053
173 1 -1.01397 7.99058 0.695037 2.97717
174 1 -0.968242 7.74909 2.58232 4.80158
176 1 -1.06045 11.1754 1.10202 1.17202
180 1 -0.974831 12.5487 2.33507 4.63888
181 1 -0.989318 10.1284 1.75385 4.07959
182 1 -1.03147 11.095 1.0515 6.40745
190 1 -0.983567 8.73781 3.15448 2.42727
191 1 -0.975899 10.5481 3.60819 0.699967
192 1 -1.00783 10.5499 4.93298 2.86616
57 2 2.11708 11.0652 2.19818 0.0631127
42 2 2.13129 3.71805 6.35888 5.32827
30 2 2.00636 6.21501 2.20035 0.0516215
2 2 2.12042 13.548 1.94157 3.44233
11 2 1.9656 11.0513 6.28251 3.51614
36 2 2.0421 6.30469 2.25723 10.7222
213 1 -0.99526 8.65992 5.32188 11.8279
212 1 -1.0204 7.50933 6.10286 9.63918
209 1 -0.982268 7.43314 5.94852 14.8637
61 2 1.96302 12.004 0.0339195 12.3384
59 2 2.21583 8.61536 2.02281 8.92569
208 1 -1.01678 5.43098 5.01853 13.5544
62 2 2.05553 8.63713 1.88192 14.3128
63 2 1.96798 11.072 2.24832 10.6007
68 2 2.04078 6.15389 6.31186 8.84269
70 2 2.00432 9.53703 4.16419 12.4438
71 2 1.99811 5.98046 6.36124 14.2019
142 1 -1.01791 5.80909 3.61732 11.4119
175 1 -1.04199 12.4668 2.39869 15.3827
177 1 -1.01801 12.8595 0.704837 8.28077
178 1 -1.06456 8.02553 0.683142 8.35338
179 1 -1.09147 7.80037 2.43589 10.1405
183 1 -0.969061 12.9956 0.735667 13.4565
184 1 -1.01566 8.06292 0.618009 13.5706
185 1 -1.05096 10.0541 1.67587 14.9599
186 1 -1.01049 7.71044 2.21203 15.5796
187 1 -1.0202 12.588 2.46735 10.0898
188 1 -0.998556 10.0867 1.70993 9.4417
189 1 -1.01291 11.0885 1.16148 11.7498
199 1 -0.946304 10.6696 4.75283 8.14887
200 1 -1.04017 5.72501 4.89664 8.27952
205 1 -1.02911 8.74604 3.07044 13.229
206 1 -0.973251 10.4459 3.58113 11.1893
207 1 -0.975661 10.5214 4.85305 13.4914
17 2 1.98959 10.976 6.24553 14.1801
8 2 2.11784 13.5289 1.96624 14.2747
5 2 2.06369 13.5364 1.92948 8.95479
232 1 -0.981612 5.76164 12.0752 6.15314
229 1 -1.02364 7.59691 11.0104 4.70326
48 2 2.05373 1.42864 10.739 0.0633136
55 2 2.10721 4.6983 12.7013 1.75852
51 2 2.03624 1.29052 10.7202 5.34766
230 1 -1.04986 5.15015 10.3335 4.25853
69 2 2.02953 8.54499 6.44468 5.39916
73 2 2.051 7.24792 8.55054 1.73354
74 2 2.08545 3.76373 10.4621 3.46769
231 1 -1.03149 6.22202 9.6094 6.4186
76 2 2.01742 7.16502 8.51404 7.072
78 2 2.07163 6.20892 10.757 5.35959
149 1 -1.05804 3.08166 7.74244 0.639531
154 1 -0.994653 0.82877 12.0927 0.780637
156 1 -1.06308 3.26695 7.71483 5.98236
162 1 -1.08001 0.814522 12.063 5.95333
194 1 -1.06035 5.13585 6.49413 4.68249
202 1 -0.971099 9.971 6.69499 4.64317
214 1 -1.04525 6.37497 7.42442 2.4368
215 1 -1.07132 8.04466 7.93023 0.527466
216 1 -1.02294 8.13186 9.20335 2.92488
217 1 -1.03084 3.27024 9.1098 2.84462
218 1 -1.03983 3.71341 11.6194 2.40299
219 1 -1.01993 2.66687 10.7877 4.54827
221 1 -1.07918 6.3617 9.71423 1.20052
222 1 -1.00985 5.54495 12.0635 0.600523
223 1 -1.00516 6.23368 7.31336 7.61381
224 1 -1.02545 8.09638 7.85306 5.99795
227 1 -1.01514 3.76956 11.5693 7.84335
39 2 2.08834 3.6476 6.45398 0.0360296
58 2 2.0081 4.64514 12.7196 7.14545
75 2 1.99787 6.26423 10.7439 0.0251396
66 2 2.06813 8.47969 6.54206 15.8696
243 1 -1.00555 5.56276 12.0219 11.1789
45 2 1.97873 3.68979 6.53803 10.5185
54 2 1.97621 1.24215 10.7953 10.6139
72 2 2.00168 8.63959 6.44595 10.6791
77 2 2.00964 3.7054 10.3814 8.88519
79 2 1.9775 7.17448 8.50427 12.4082
80 2 1.97633 3.7817 10.446 14.2421
81 2 2.03937 6.17837 10.7659 10.4857
164 1 -0.949188 3.18631 7.8949 11.2484
171 1 -1.02517 0.856542 12.1488 11.2711
195 1 -1.06822 9.89658 6.64423 15.1885
201 1 -1.01305 5.0977 6.86501 9.86414
210 1 -1.00931 5.03064 6.8633 15.3394
211 1 -0.983664 10.0673 6.57333 9.90327
220 1 -0.982936 7.55271 11.0914 15.1592
225 1 -1.03504 8.06792 9.21872 8.17001
226 1 -1.00207 3.20924 8.97411 8.27944
228 1 -1.00237 2.69476 10.8966 9.9826
233 1 -1.01102 6.18105 7.43872 13.0679
234 1 -0.972933 8.17926 7.79493 11.366
235 1 -0.993396 8.14314 9.0593 13.5479
236 1 -0.978134 3.12483 9.10251 13.5556
237 1 -0.979689 5.23109 10.257 14.8271
238 1 -0.978825 3.89598 11.6156 13.1747
239 1 -1.0108 2.84408 10.9618 15.4336
240 1 -0.985203 7.62667 11.1156 9.88641
241 1 -1.01325 5.19779 10.1343 9.43175
242 1 -0.989017 6.39662 9.66142 11.6146
26 2 1.9635 8.61447 10.4643 14.129
ITEM: TIMESTEP
200
ITEM: NUMBER OF ATOMS
243
ITEM: BOX BOUNDS xy xz yz pp pp pp
-7.3964919999999994e+00 1.4691300000000000e+01 -7.3456000000000001e+00
0.0000000000000000e+00 1.2723000000000001e+01 -5.0891999999999271e-02
0.0000000000000000e+00 1.5963100000000001e+01 0.0000000000000000e+00
ITEM: ATOMS id type q x y z
135 1 -0.929115 3.69052 3.12626 7.76077
139 1 -0.940072 2.76372 5.79202 4.22145
1 2 1.85451 2.31994 0.0112596 1.76606
6 2 1.94838 1.32868 2.25409 5.25437
10 2 2.0523 -0.164532 4.10639 1.81018
13 2 1.83425 -0.284246 4.19121 7.16461
134 1 -0.939047 3.81249 5.34888 1.16514
29 2 1.89813 3.76769 1.97365 3.50921
140 1 -0.937448 3.94873 5.46608 6.50656
37 2 1.88478 4.70384 4.20647 1.80176
38 2 1.90571 1.29063 6.06522 3.6541
40 2 1.90282 4.68904 4.17356 7.10543
82 1 -0.960868 1.45386 1.21479 1.17453
83 1 -0.994698 0.411305 1.92348 3.99447
84 1 -0.960229 1.48083 1.1775 6.39432
88 1 -0.944666 -1.24058 3.04003 2.29472
89 1 -0.98947 0.836746 3.56534 0.716457
90 1 -1.02396 -0.873942 5.32795 1.15656
91 1 -0.909712 -1.17749 2.99229 7.77021
92 1 -0.916443 0.762218 3.50412 6.06924
93 1 -0.917673 -2.18068 5.90771 4.16452
94 1 -0.936426 -1.3337 5.28859 6.56229
118 1 -0.916171 3.32666 0.512368 2.95016
119 1 -0.93695 2.83928 2.53356 4.71905
120 1 -0.98896 6.26691 1.15657 1.08349
123 1 -0.95738 5.21415 1.69476 4.13713
124 1 -0.966606 6.30362 1.14076 6.40576
130 1 -0.978509 3.77624 2.99611 2.32881
132 1 -0.980801 0.70706 4.73621 2.96292
4 2 2.01518 2.40006 0.0188238 7.0929
28 2 1.92371 7.26121 0.0591417 1.72169
146 1 -0.938797 2.61469 5.89548 9.58792
9 2 1.96327 1.30921 2.19218 10.65
16 2 2.02525 -0.123435 4.22878 12.4142
32 2 1.9093 3.7668 2.02894 8.95848
147 1 -0.945079 3.86472 5.32196 11.6646
35 2 1.82663 3.80784 1.97206 14.1521
41 2 1.92354 1.18562 6.20186 8.94408
43 2 1.88449 4.71664 4.17251 12.3754
44 2 1.94315 1.17221 6.23257 14.157
85 1 -1.01758 0.245117 1.77426 14.8598
86 1 -0.908532 0.343549 1.7497 9.44507
87 1 -0.926841 1.35906 1.11631 11.858
95 1 -0.947412 -1.11328 3.155 13.1156
96 1 -0.96511 0.764513 3.54022 11.2946
97 1 -0.985568 -2.33199 5.96362 15.1288
98 1 -0.962546 -2.20893 6.19199 9.43563
99 1 -0.98492 -1.07174 5.2561 11.6803
121 1 -0.993421 3.24025 0.719731 8.25407
122 1 -0.968675 2.73947 2.51745 10.1098
125 1 -0.950944 3.26814 0.52606 13.688
126 1 -0.925767 5.33684 1.84509 14.6726
127 1 -0.94878 2.71424 2.53673 15.2176
128 1 -0.97597 5.29813 1.86985 9.46966
129 1 -0.968245 6.28814 1.21349 11.8926
137 1 -0.924513 0.519887 4.81732 8.41809
141 1 -0.932889 3.77957 3.0139 12.8846
143 1 -1.03376 0.807694 4.81581 13.4889
144 1 -0.962569 2.61837 6.00813 14.8291
3 2 1.98897 1.29386 2.25831 15.8917
161 1 -0.915698 1.17076 9.64103 6.66096
12 2 1.98694 -1.11557 6.49863 0.0961387
19 2 2.00709 -2.63722 8.54339 1.86858
20 2 1.90898 -6.0259 10.5754 3.52753
22 2 1.96822 -2.75793 8.41729 7.03411
24 2 1.98732 -3.48614 10.8339 5.30588
46 2 1.94205 2.22444 8.49149 1.83511
47 2 1.97166 -1.10474 10.5513 3.55874
49 2 1.85696 2.22826 8.47466 7.05776
100 1 -1.00929 -3.57437 7.49737 2.58192
101 1 -0.991834 -1.64179 7.8308 0.828492
102 1 -0.955849 -5.95523 11.5035 2.23157
103 1 -1.02778 -3.54291 9.64143 1.12426
104 1 -0.966971 -4.06179 12.1548 0.624522
105 1 -0.991164 -3.74352 7.4114 7.75779
106 1 -0.991319 -1.79771 7.83113 5.93262
107 1 -0.985446 -5.88886 11.5608 7.60306
108 1 -0.997777 -4.61245 10.508 4.20532
109 1 -1.01071 -3.44803 9.6789 6.42448
110 1 -0.997644 -4.02426 12.1808 5.98428
133 1 -0.948182 0.24043 6.46519 4.77453
148 1 -0.91574 1.35925 7.33068 2.5666
150 1 -1.00155 -1.76508 9.22948 3.00834
151 1 -0.985803 -0.867922 11.5268 2.2795
152 1 -0.989743 -2.06046 11.188 4.6133
153 1 -0.980158 1.32353 9.56614 1.10412
155 1 -0.941698 1.40488 7.21412 7.72512
158 1 -0.926535 -1.28845 11.463 7.66621
160 1 -0.963995 0.289437 10.2094 4.30437
31 2 1.85396 -0.303272 12.6666 7.20448
15 2 1.85958 -1.25564 6.42 5.43737
21 2 1.98721 -3.61189 10.7614 0.0442521
18 2 1.96697 -1.23181 6.53587 10.6732
25 2 2.0169 -2.65023 8.51553 12.49
27 2 1.95978 -3.5459 10.7635 10.6006
50 2 1.78601 -1.16815 10.3481 8.85562
52 2 1.98818 2.12961 8.49962 12.5094
53 2 1.88404 -1.15615 10.5217 14.2088
111 1 -1.01069 -3.51865 7.31851 13.104
112 1 -1.02645 -1.74156 7.82201 11.4439
113 1 -0.967583 -4.57057 10.3095 14.7808
114 1 -0.934622 -5.84263 11.4612 12.9231
115 1 -1.02109 -4.61739 10.5437 9.48328
116 1 -0.960686 -3.58155 9.66661 11.7973
117 1 -0.928572 -4.09303 12.1877 11.2362
138 1 -0.97791 0.221342 6.79477 10.0501
145 1 -0.983978 0.134465 6.82922 15.1853
157 1 -0.895203 -1.72491 8.94555 8.21823
159 1 -0.999046 -2.07362 10.8611 10.0785
163 1 -0.980401 1.14774 7.43136 13.1044
165 1 -0.958787 -1.68855 9.13179 13.5788
166 1 -0.914617 0.324926 10.3161 14.8135
167 1 -0.916881 -1.11679 11.4815 12.9074
168 1 -0.941128 -2.20107 11.03 15.3107
169 1 -0.915629 0.389517 10.1939 9.37106
170 1 -0.956343 1.29293 9.70523 11.8264
34 2 1.87997 -0.16092 12.6922 12.352
23 2 1.94728 -6.08049 10.5898 8.84848
7 2 1.87181 -4.95471 12.7037 12.4813
26 2 1.8948 -6.07182 10.4812 14.2097
196 1 -0.972406 8.63112 5.48145 1.1369
204 1 -0.96316 8.73323 5.38689 6.37925
203 1 -0.979772 7.66784 6.22406 4.19412
33 2 1.94407 6.25094 2.18685 5.23769
198 1 -0.90637 10.4652 3.55849 5.77331
56 2 1.94303 8.63987 2.10131 3.4854
197 1 -0.987444 8.6976 3.03636 7.68934
193 1 -0.941507 5.67895 4.79913 2.99408
60 2 1.89609 11.1315 2.13874 5.20024
64 2 1.95465 9.62601 4.2815 1.60166
65 2 1.94069 6.17401 6.24297 3.54154
67 2 1.91599 9.57966 4.15234 6.97864
131 1 -0.929714 5.6818 3.62935 0.682485
136 1 -0.915881 5.63476 3.54298 5.901
172 1 -1.00186 13.0897 0.507219 2.88357
173 1 -0.996255 8.0824 0.734885 2.88656
174 1 -0.978061 7.69511 2.60222 4.64862
176 1 -0.940329 11.098 1.17167 1.24326
180 1 -0.935146 12.611 2.43928 4.67654
181 1 -0.970682 10.1314 1.73763 4.07717
182 1 -0.956993 11.1817 1.15377 6.44912
190 1 -0.969319 8.70877 3.23884 2.36936
191 1 -0.965683 10.3297 3.61381 0.335421
192 1 -1.0084 10.543 4.94288 2.7172
30 2 1.86704 6.27623 2.27052 0.00743478
2 2 1.84309 13.5763 1.85918 3.47508
11 2 1.97113 11.0944 6.20941 3.50952
36 2 1.8961 6.30089 2.24456 10.6993
213 1 -0.987746 8.68054 5.43036 11.8346
212 1 -1.01876 7.46115 6.10456 9.61461
209 1 -0.927991 7.50517 6.1392 14.7772
5 2 1.87325 13.4484 1.85557 8.91557
59 2 1.92854 8.64857 1.9483 8.8364
208 1 -0.947594 5.44685 4.90692 13.691
62 2 1.84895 8.5952 1.92569 14.2278
63 2 1.92063 11.003 2.2117 10.5998
68 2 1.94374 6.04179 6.21545 8.85258
70 2 1.84659 9.55425 4.23145 12.4665
14 2 1.91718 10.9829 6.237 8.83607
142 1 -0.953941 5.81583 3.61912 11.3517
175 1 -0.949383 12.4659 2.38749 15.4061
177 1 -0.960306 12.9881 0.480874 8.28755
178 1 -0.954762 8.05691 0.554159 8.30776
179 1 -0.968678 7.8114 2.40069 10.1175
183 1 -0.940253 13.037 0.596353 13.4422
184 1 -0.932559 7.96382 0.531588 13.6326
185 1 -0.944256 10.0603 1.59867 14.7905
186 1 -0.919934 7.7608 2.54485 15.4567
187 1 -0.942871 12.5404 2.33506 10.1632
188 1 -0.980684 10.2001 1.81186 9.32172
189 1 -0.914659 10.9926 1.10557 11.8426
199 1 -0.928427 10.5087 4.84713 8.15119
200 1 -0.977843 5.53189 4.77858 8.30434
205 1 -0.926073 8.63217 3.03945 13.0528
206 1 -0.921497 10.4603 3.53119 11.2677
207 1 -0.93342 10.6925 4.7631 13.512
17 2 2.00188 11.0463 6.17977 14.1941
8 2 1.90413 13.5029 1.96532 14.1976
71 2 1.91692 6.0272 6.32286 14.0942
57 2 1.89799 10.9956 2.17322 15.934
232 1 -0.968477 5.67967 12.1563 5.82605
229 1 -1.01306 7.48586 11.0922 4.50772
48 2 1.82934 1.40717 10.757 0.0637449
58 2 1.88542 4.74681 12.6876 7.06239
51 2 1.86951 1.22971 10.7621 5.4732
230 1 -1.00945 5.10681 10.1717 4.19262
69 2 2.01184 8.72017 6.56308 5.30524
73 2 1.96024 7.17413 8.55466 1.77245
74 2 1.94898 3.66156 10.4621 3.60113
231 1 -0.99671 6.36679 9.64535 6.30745
76 2 1.99685 7.2193 8.50813 7.08428
78 2 2.06376 6.14941 10.7527 5.19291
149 1 -0.964728 3.1116 7.7712 0.691487
154 1 -0.906299 0.990239 12.2647 0.618477
156 1 -0.969089 2.993 7.87397 5.79634
162 1 -0.940721 0.760237 12.1092 6.11778
194 1 -0.967826 5.15504 6.81296 4.63165
202 1 -0.989613 10.2394 6.63807 4.80018
214 1 -0.96581 6.29742 7.37486 2.43344
215 1 -1.01564 8.04354 7.84886 0.69151
216 1 -0.881777 8.24739 9.09331 2.92088
217 1 -0.973031 3.18221 9.07428 2.95819
218 1 -0.975505 3.78467 11.5594 2.45537
219 1 -0.959409 2.70898 10.9427 4.8069
221 1 -0.983404 6.40451 9.85377 1.26355
222 1 -0.943241 5.49176 12.2434 0.448414
223 1 -0.951345 6.34362 7.27238 7.67658
224 1 -0.997417 8.23432 7.90213 6.04246
227 1 -0.942288 3.88179 11.4665 7.59825
42 2 1.89116 3.74132 6.54439 5.29401
55 2 1.89373 4.69334 12.719 1.78864
75 2 1.91231 6.23288 10.8603 0.0121898
66 2 2.01115 8.54725 6.55355 15.9521
243 1 -0.965977 5.4317 12.171 11.1603
45 2 1.93244 3.65894 6.55281 10.6208
54 2 1.92308 1.27115 10.7656 10.611
72 2 2.0361 8.50245 6.5101 10.6947
77 2 1.84169 3.73095 10.414 8.84051
79 2 1.89418 7.23654 8.58528 12.4101
80 2 1.90843 3.7563 10.4153 14.3153
81 2 1.88131 6.0819 10.8089 10.613
164 1 -1.01837 3.02443 7.78768 11.3859
171 1 -1.00616 0.725811 12.1348 11.1406
195 1 -1.03288 9.93128 6.66107 15.1544
201 1 -0.979704 4.98975 6.91783 9.8206
210 1 -0.959739 5.07136 6.87833 15.2092
211 1 -0.958096 9.97946 6.63816 10.025
220 1 -0.963156 7.64422 11.0762 15.334
225 1 -0.972663 7.98315 9.19801 8.29347
226 1 -0.932381 3.27642 9.03281 8.13974
228 1 -0.975227 2.75494 10.8901 10.0417
233 1 -0.953602 6.25255 7.34037 12.8652
234 1 -0.985448 8.22963 7.92664 11.3219
235 1 -0.95582 7.99091 9.10398 13.7253
236 1 -0.983471 3.03806 9.11335 13.6666
237 1 -0.950135 5.23535 10.1386 14.9471
238 1 -1.02328 3.88164 11.4668 13.1462
239 1 -0.938689 2.87995 10.9354 15.5829
240 1 -0.89485 7.49612 11.2004 9.84315
241 1 -0.934024 5.22799 10.1863 9.43543
242 1 -0.990164 6.42221 9.82452 11.8436
61 2 1.94054 4.61987 12.6593 12.4331
39 2 1.9031 3.65427 6.49929 15.9369
ITEM: TIMESTEP
300
ITEM: NUMBER OF ATOMS
243
ITEM: BOX BOUNDS xy xz yz pp pp pp
-7.4219379999999999e+00 1.4691300000000000e+01 -7.3456000000000001e+00
0.0000000000000000e+00 1.2723000000000001e+01 -7.6337999999999795e-02
0.0000000000000000e+00 1.5963100000000001e+01 0.0000000000000000e+00
ITEM: ATOMS id type q x y z
135 1 -0.950607 3.75748 3.02776 7.70513
139 1 -0.995269 2.78346 6.08 4.09521
11 2 1.96955 -3.50935 6.09505 3.47037
6 2 1.91561 1.36289 2.35396 5.37699
10 2 1.8531 -0.154933 4.19972 1.75948
13 2 1.86172 -0.289091 4.14778 7.14652
134 1 -0.946133 3.97481 5.45438 0.990394
29 2 1.981 3.75873 2.02096 3.5052
140 1 -0.920475 3.7295 5.53264 6.47472
37 2 2.01024 4.73499 4.29158 1.81991
38 2 1.90579 1.25345 6.1152 3.65258
40 2 1.82714 4.62627 4.30342 7.09934
82 1 -0.978059 1.38085 1.13793 1.02541