LAMMPS (2 Aug 2023 - Update 2)
  using 2 OpenMP thread(s) per MPI task
Reading data file ...
  triclinic box = (0 0 0) to (15.4114 12.7411 17.5034) with tilt (-7.2027 -1.8261 0.3384)
WARNING: Triclinic box skew is large. LAMMPS will run inefficiently. (src/domain.cpp:220)
  2 by 2 by 2 MPI processor grid
  reading atoms ...
  310 atoms
Finding 1-2 1-3 1-4 neighbors ...
  special bond factors lj:    0        0        0       
  special bond factors coul:  0        0        0       
     0 = max # of 1-2 neighbors
     0 = max # of 1-3 neighbors
     0 = max # of 1-4 neighbors
     1 = max # of special neighbors
  special bonds CPU = 0.001 seconds
  read_data CPU = 0.008 seconds
*****Minimization starts.*****

CITE-CITE-CITE-CITE-CITE-CITE-CITE-CITE-CITE-CITE-CITE-CITE-CITE

Your simulation uses code contributions which should be cited:
- pair reaxff command: doi:10.1016/j.parco.2011.08.005
- fix qeq/reaxff command: doi:10.1016/j.parco.2011.08.005
The log file lists these citations in BibTeX format.

CITE-CITE-CITE-CITE-CITE-CITE-CITE-CITE-CITE-CITE-CITE-CITE-CITE

WARNING: Fix qeq/reaxff group is not charge neutral, net charge = 22.14 (src/REAXFF/fix_qeq_reaxff.cpp:392)
Neighbor list info ...
  update: every = 1 steps, delay = 0 steps, check = yes
  max neighbors/atom: 2000, page size: 100000
  master list distance cutoff = 12
  ghost atom cutoff = 12
  binsize = 6, bins = 5 3 3
  2 neighbor lists, perpetual/occasional/extra = 2 0 0
  (1) pair reaxff, perpetual
      attributes: half, newton off, ghost
      pair build: half/bin/newtoff/ghost
      stencil: full/ghost/bin/3d
      bin: standard
  (2) fix qeq/reaxff, perpetual, copy from (1)
      attributes: half, newton off
      pair build: copy
      stencil: none
      bin: none
Setting up cg style minimization ...
  Unit style    : real
  Current step  : 0
Per MPI rank memory allocation (min/avg/max) = 124 | 124.6 | 125.5 Mbytes
   Step          Temp          E_pair         E_mol          TotEng         Press     
         0   0             -32388.564      0             -32388.564      116060.1     
        25   0             -33927.68       0             -33927.68      -109.65728    
Loop time of 1.98436 on 16 procs for 25 steps with 310 atoms

97.0% CPU use with 8 MPI tasks x 2 OpenMP threads

Minimization stats:
  Stopping criterion = energy tolerance
  Energy initial, next-to-last, final = 
     -32388.5643076697   -33927.656273274  -33927.6803894307
  Force two-norm initial, final = 2091.6772 144.25927
  Force max component initial, final = 278.81621 49.432397
  Final line search alpha, max atom move = 0.0021989471 0.10869923
  Iterations, force evaluations = 25 63

MPI task timing breakdown:
Section |  min time  |  avg time  |  max time  |%varavg| %total
---------------------------------------------------------------
Pair    | 1.2422     | 1.3122     | 1.4263     |   5.9 | 66.13
Bond    | 1.2861e-05 | 1.7467e-05 | 2.0814e-05 |   0.0 |  0.00
Neigh   | 0          | 0          | 0          |   0.0 |  0.00
Comm    | 0.14288    | 0.25688    | 0.32701    |  13.3 | 12.95
Output  | 0          | 0          | 0          |   0.0 |  0.00
Modify  | 0.41195    | 0.41213    | 0.41233    |   0.0 | 20.77
Other   |            | 0.003158   |            |       |  0.16

Nlocal:          38.75 ave          46 max          34 min
Histogram: 1 2 0 1 2 0 1 0 0 1
Nghost:        3126.75 ave        3154 max        3097 min
Histogram: 1 0 1 1 1 2 0 0 1 1
Neighs:        24559.1 ave       28996 max       21632 min
Histogram: 1 2 0 1 2 0 1 0 0 1

Total # of neighbors = 196473
Ave neighs/atom = 633.78387
Ave special neighs/atom = 0
Neighbor list builds = 0
Dangerous builds = 0
System init for write_data ...
WARNING: New thermo_style command, previous thermo_modify settings will be lost (src/output.cpp:903)
Neighbor list info ...
  update: every = 10 steps, delay = 0 steps, check = no
  max neighbors/atom: 2000, page size: 100000
  master list distance cutoff = 12
  ghost atom cutoff = 12
  binsize = 6, bins = 5 3 3
  2 neighbor lists, perpetual/occasional/extra = 2 0 0
  (1) pair reaxff, perpetual
      attributes: half, newton off, ghost
      pair build: half/bin/newtoff/ghost
      stencil: full/ghost/bin/3d
      bin: standard
  (2) fix qeq/reaxff, perpetual, copy from (1)
      attributes: half, newton off
      pair build: copy
      stencil: none
      bin: none
Setting up Verlet run ...
  Unit style    : real
  Current step  : 0
  Time step     : 0.5
Per MPI rank memory allocation (min/avg/max) = 122.3 | 123 | 123.9 Mbytes
   Step          Temp          PotEng         Press         Density         Volume    
         0   300           -33927.68       3565.3023      1.4204665      3436.9359    
       100   294.81392     -33888.429     -11270.184      1.4204665      3436.9359    
       200   355.98468     -33939.643      12360.633      1.4204665      3436.9359    
       300   362.69306     -34017.58       2391.4146      1.4204665      3436.9359    
       400   360.71791     -34091.958      1159.6856      1.4204665      3436.9359    
       500   350.1496      -34154.592      2527.0054      1.4204665      3436.9359    
       600   323.5879      -34198.119      4350.2225      1.4204665      3436.9359    
       700   302.06447     -34221.106      8856.4639      1.4204665      3436.9359    
       800   279.04044     -34232.283     -2964.0339      1.4204665      3436.9359    
       900   302.39907     -34270.737     -9492.5911      1.4204665      3436.9359    
      1000   290.8282      -34273.759     -1817.4917      1.4204665      3436.9359    
      1100   299.44531     -34293.888     -2549.2049      1.4204665      3436.9359    
      1200   298.18494     -34312.229     -3116.1973      1.4204665      3436.9359    
      1300   270.26004     -34296.925     -3537.9965      1.4204665      3436.9359    
      1400   278.91046     -34287.728     -3179.1708      1.4204665      3436.9359    
      1500   319.83483     -34302.504     -13506.065      1.4204665      3436.9359    
      1600   306.17205     -34303.487     -14941.624      1.4204665      3436.9359    
      1700   285.96167     -34312.868     -2281.4688      1.4204665      3436.9359    
      1800   283.49262     -34316.163      2963.7312      1.4204665      3436.9359    
      1900   288.4757      -34318.598      2060.5287      1.4204665      3436.9359    
      2000   302.22293     -34310.201      1128.041       1.4204665      3436.9359    
      2100   313.34154     -34294.21      -252.0211       1.4204665      3436.9359    
      2200   307.64943     -34294.323     -1174.2777      1.4204665      3436.9359    
      2300   307.15099     -34332.356     -1926.2267      1.4204665      3436.9359    
      2400   294.29262     -34330.268      12281.889      1.4204665      3436.9359    
      2500   284.53588     -34320.48      -4325.3547      1.4204665      3436.9359    
      2600   324.19419     -34337.843      4738.1207      1.4204665      3436.9359    
      2700   295.67635     -34311.725      2908.491       1.4204665      3436.9359    
      2800   279.9481      -34334.493     -2197.8692      1.4204665      3436.9359    
      2900   287.09917     -34351.805     -8788.6434      1.4204665      3436.9359    
      3000   306.22667     -34372.863      10541.478      1.4204665      3436.9359    
      3100   307.6634      -34383.108      12115.878      1.4204665      3436.9359    
      3200   305.07867     -34411.918      10162.32       1.4204665      3436.9359    
      3300   293.25007     -34415.393      11031.817      1.4204665      3436.9359    
      3400   289.44492     -34399.425      700.54634      1.4204665      3436.9359    
      3500   291.66831     -34379.696      5132.3326      1.4204665      3436.9359    
      3600   312.31585     -34390.311      695.04495      1.4204665      3436.9359    
      3700   297.21049     -34379.677     -12953.877      1.4204665      3436.9359    
      3800   306.15463     -34406.426      8068.4666      1.4204665      3436.9359    
      3900   283.36959     -34416.762     -9357.8507      1.4204665      3436.9359    
      4000   269.35484     -34404.078      263.566        1.4204665      3436.9359    
      4100   299.51682     -34423.341      777.57126      1.4204665      3436.9359    
      4200   304.49414     -34413.717     -8668.6629      1.4204665      3436.9359    
      4300   313.51425     -34400.661     -5852.9112      1.4204665      3436.9359    
      4400   303.57667     -34390.45      -2010.4411      1.4204665      3436.9359    
      4500   307.67567     -34395.741      2237.0171      1.4204665      3436.9359    
      4600   302.06758     -34409.445     -1098.8842      1.4204665      3436.9359    
      4700   267.43759     -34408.195      11633.494      1.4204665      3436.9359    
      4800   294.85003     -34418.313     -4550.6148      1.4204665      3436.9359    
      4900   306.61411     -34407.691      213.063        1.4204665      3436.9359    
      5000   318.36545     -34412.873     -8999.8707      1.4204665      3436.9359    
Loop time of 229.157 on 16 procs for 5000 steps with 310 atoms

Performance: 0.943 ns/day, 25.462 hours/ns, 21.819 timesteps/s, 6.764 katom-step/s
99.2% CPU use with 8 MPI tasks x 2 OpenMP threads

MPI task timing breakdown:
Section |  min time  |  avg time  |  max time  |%varavg| %total
---------------------------------------------------------------
Pair    | 165.49     | 172.06     | 177.54     |  30.4 | 75.08
Bond    | 0.0015766  | 0.0018487  | 0.0021825  |   0.5 |  0.00
Neigh   | 12.391     | 12.768     | 13.073     |   6.3 |  5.57
Comm    | 16.71      | 22.316     | 28.973     |  84.6 |  9.74
Output  | 0.0030222  | 0.0035897  | 0.0074469  |   2.4 |  0.00
Modify  | 20.593     | 21.105     | 21.623     |   7.8 |  9.21
Other   |            | 0.9034     |            |       |  0.39

Nlocal:          38.75 ave          47 max          32 min
Histogram: 1 1 0 0 3 1 0 1 0 1
Nghost:        3116.38 ave        3178 max        3048 min
Histogram: 1 0 0 2 1 1 1 0 0 2
Neighs:        24486.9 ave       29246 max       20439 min
Histogram: 1 1 0 0 3 1 0 1 0 1

Total # of neighbors = 195895
Ave neighs/atom = 631.91935
Ave special neighs/atom = 0
Neighbor list builds = 500
Dangerous builds not checked
System init for write_data ...
System init for write_restart ...
  using 2 OpenMP thread(s) per MPI task
Reading restart file ...
  restart file = 2 Aug 2023, LAMMPS = 2 Aug 2023
  restoring atom style full from restart
  triclinic box = (0 0 0) to (15.4114 12.7411 17.5034) with tilt (-7.2027 -1.8261 0.3384)
WARNING: Triclinic box skew is large. LAMMPS will run inefficiently. (src/domain.cpp:220)
  2 by 2 by 2 MPI processor grid
  pair style reaxff stores no restart info
  310 atoms
Finding 1-2 1-3 1-4 neighbors ...
  special bond factors lj:    0        0        0       
  special bond factors coul:  0        0        0       
     0 = max # of 1-2 neighbors
     0 = max # of 1-3 neighbors
     0 = max # of 1-4 neighbors
     1 = max # of special neighbors
  special bonds CPU = 0.000 seconds
  read_restart CPU = 0.004 seconds
*****debug*****
xy = -7.2027000000000001023, deltaxy = 0.72027
xz = -1.8261000000000000565, deltaxz = 0.18261
yz = 0.33839999999999997859, deltayz = -0.03384
*****
*****Negative-deform 1 starts.*****
Resetting global fix info from restart file:
  fix style: nvt, fix ID: fnvt
All restart file global fix info was re-assigned
Neighbor list info ...
  update: every = 10 steps, delay = 0 steps, check = no
  max neighbors/atom: 2000, page size: 100000
  master list distance cutoff = 12
  ghost atom cutoff = 12
  binsize = 6, bins = 5 3 3
  2 neighbor lists, perpetual/occasional/extra = 2 0 0
  (1) pair reaxff, perpetual
      attributes: half, newton off, ghost
      pair build: half/bin/newtoff/ghost
      stencil: full/ghost/bin/3d
      bin: standard
  (2) fix qeq/reaxff, perpetual, copy from (1)
      attributes: half, newton off
      pair build: copy
      stencil: none
      bin: none
Setting up Verlet run ...
  Unit style    : real
  Current step  : 0
  Time step     : 0.5
Per MPI rank memory allocation (min/avg/max) = 120.3 | 122.7 | 125.3 Mbytes
   Step          Temp          PotEng         Press          Volume           Lx             Ly             Lz      
         0   318.36545     -34412.873     -8999.9276      3436.9359      15.4114        12.7411        17.5034      
       100   297.39346     -34391.249      13419.613      3430.062       15.380577      12.7411        17.5034      
       200   301.9132      -34384.318     -11305.066      3423.1882      15.349754      12.7411        17.5034      
       300   317.6389      -34397.676      5461.6434      3416.3143      15.318932      12.7411        17.5034      
       400   279.5882      -34375.03      -14700.819      3409.4404      15.288109      12.7411        17.5034      
       500   301.01722     -34404.352      3646.3606      3402.5666      15.257286      12.7411        17.5034      
       600   297.55596     -34399.925     -6202.1846      3395.6927      15.226463      12.7411        17.5034      
       700   300.73018     -34403.061     -1778.2051      3388.8188      15.19564       12.7411        17.5034      
       800   285.17436     -34380.389      8805.1475      3381.9449      15.164818      12.7411        17.5034      
       900   311.71987     -34380.456      13013.154      3375.0711      15.133995      12.7411        17.5034      
      1000   309.99875     -34363.16      -12952.969      3368.1972      15.103172      12.7411        17.5034      
      1100   302.74311     -34383.546     -348.42254      3361.3233      15.072349      12.7411        17.5034      
      1200   324.45025     -34407.019      4757.2045      3354.4495      15.041526      12.7411        17.5034      
      1300   307.72977     -34399.801     -875.28162      3347.5756      15.010704      12.7411        17.5034      
      1400   293.5199      -34389.406     -5397.7835      3340.7017      14.979881      12.7411        17.5034      
      1500   300.15705     -34411.705     -918.86166      3333.8278      14.949058      12.7411        17.5034      
      1600   269.07559     -34397.407      8930.8387      3326.954       14.918235      12.7411        17.5034      
      1700   310.31751     -34422.407     -18950.153      3320.0801      14.887412      12.7411        17.5034      
      1800   302.76073     -34381.45      -286.24546      3313.2062      14.85659       12.7411        17.5034      
      1900   325.02602     -34372.821      5335.3722      3306.3324      14.825767      12.7411        17.5034      
      2000   313.27445     -34388.97      -1097.6995      3299.4585      14.794944      12.7411        17.5034      
      2100   305.86507     -34395.291     -3173.5967      3292.5846      14.764121      12.7411        17.5034      
      2200   291.1303      -34390.765      9093.9952      3285.7107      14.733298      12.7411        17.5034      
      2300   307.90764     -34408.744      21973.605      3278.8369      14.702476      12.7411        17.5034      
      2400   317.63184     -34415.94      -2223.6198      3271.963       14.671653      12.7411        17.5034      
      2500   299.50812     -34423.896      9690.2719      3265.0891      14.64083       12.7411        17.5034      
      2600   289.10911     -34410.524      15512.316      3258.2152      14.610007      12.7411        17.5034      
      2700   293.55439     -34403.88      -3541.8241      3251.3414      14.579184      12.7411        17.5034      
      2800   302.34623     -34406.242      19174.136      3244.4675      14.548362      12.7411        17.5034      
      2900   306.759       -34416.286      11832.324      3237.5936      14.517539      12.7411        17.5034      
      3000   274.01435     -34398.712      10092.335      3230.7198      14.486716      12.7411        17.5034      
      3100   305.82005     -34418.127      13687.475      3223.8459      14.455893      12.7411        17.5034      
      3200   310.28677     -34378.954      5146.5244      3216.972       14.42507       12.7411        17.5034      
      3300   314.11449     -34360.341     -5049.2936      3210.0981      14.394248      12.7411        17.5034      
      3400   314.90562     -34376.768      14670.628      3203.2243      14.363425      12.7411        17.5034      
      3500   298.18155     -34372.056      279.88403      3196.3504      14.332602      12.7411        17.5034      
      3600   304.8578      -34385.103      3851.8233      3189.4765      14.301779      12.7411        17.5034      
      3700   303.42348     -34393.787      21570.369      3182.6027      14.270956      12.7411        17.5034      
      3800   295.04533     -34394.811      10758.237      3175.7288      14.240134      12.7411        17.5034      
      3900   291.78773     -34391.843      10079.816      3168.8549      14.209311      12.7411        17.5034      
      4000   310.24281     -34398.567      8989.6828      3161.981       14.178488      12.7411        17.5034      
      4100   280.22684     -34390.638      16690.553      3155.1072      14.147665      12.7411        17.5034      
      4200   294.85946     -34405.046      25011.199      3148.2333      14.116842      12.7411        17.5034      
      4300   285.07658     -34390.445      14420.132      3141.3594      14.08602       12.7411        17.5034      
      4400   296.56665     -34397.379      1108.0666      3134.4856      14.055197      12.7411        17.5034      
      4500   289.14794     -34382.938      15245.233      3127.6117      14.024374      12.7411        17.5034      
      4600   301.20793     -34387.509      11587.195      3120.7378      13.993551      12.7411        17.5034      
      4700   300.33737     -34365.285      7786.6646      3113.8639      13.962728      12.7411        17.5034      
      4800   304.29102     -34364.312      22764.847      3106.9901      13.931906      12.7411        17.5034      
      4900   302.8193      -34382.508      25666.03       3100.1162      13.901083      12.7411        17.5034      
      5000   306.90466     -34383.477     -11062.172      3093.2423      13.87026       12.7411        17.5034      
Loop time of 247.509 on 16 procs for 5000 steps with 310 atoms

Performance: 0.873 ns/day, 27.501 hours/ns, 20.201 timesteps/s, 6.262 katom-step/s
99.2% CPU use with 8 MPI tasks x 2 OpenMP threads

MPI task timing breakdown:
Section |  min time  |  avg time  |  max time  |%varavg| %total
---------------------------------------------------------------
Pair    | 179.78     | 187.29     | 192.97     |  28.3 | 75.67
Bond    | 0.001598   | 0.0019107  | 0.0023038  |   0.6 |  0.00
Neigh   | 14.948     | 15.282     | 15.656     |   6.0 |  6.17
Comm    | 15.616     | 21.352     | 28.992     |  84.2 |  8.63
Output  | 0.028224   | 0.034079   | 0.037882   |   1.7 |  0.01
Modify  | 21.976     | 22.628     | 23.097     |   7.5 |  9.14
Other   |            | 0.9184     |            |       |  0.37

Nlocal:          38.75 ave          43 max          35 min
Histogram: 1 0 1 3 0 0 1 1 0 1
Nghost:        3303.88 ave        3347 max        3263 min
Histogram: 2 0 1 1 0 1 0 1 1 1
Neighs:          27248 ave       30050 max       24770 min
Histogram: 1 0 1 3 0 0 1 1 0 1

Total # of neighbors = 217984
Ave neighs/atom = 703.17419
Ave special neighs/atom = 0
Neighbor list builds = 500
Dangerous builds not checked
  using 2 OpenMP thread(s) per MPI task
Reading restart file ...
  restart file = 2 Aug 2023, LAMMPS = 2 Aug 2023
  restoring atom style full from restart
  triclinic box = (0 0 0) to (15.4114 12.7411 17.5034) with tilt (-7.2027 -1.8261 0.3384)
WARNING: Triclinic box skew is large. LAMMPS will run inefficiently. (src/domain.cpp:220)
  2 by 2 by 2 MPI processor grid
  pair style reaxff stores no restart info
  310 atoms
Finding 1-2 1-3 1-4 neighbors ...
  special bond factors lj:    0        0        0       
  special bond factors coul:  0        0        0       
     0 = max # of 1-2 neighbors
     0 = max # of 1-3 neighbors
     0 = max # of 1-4 neighbors
     1 = max # of special neighbors
  special bonds CPU = 0.000 seconds
  read_restart CPU = 0.003 seconds
*****Positive-deform 1 starts.*****
Resetting global fix info from restart file:
  fix style: nvt, fix ID: fnvt
All restart file global fix info was re-assigned
Neighbor list info ...
  update: every = 10 steps, delay = 0 steps, check = no
  max neighbors/atom: 2000, page size: 100000
  master list distance cutoff = 12
  ghost atom cutoff = 12
  binsize = 6, bins = 5 3 3
  2 neighbor lists, perpetual/occasional/extra = 2 0 0
  (1) pair reaxff, perpetual
      attributes: half, newton off, ghost
      pair build: half/bin/newtoff/ghost
      stencil: full/ghost/bin/3d
      bin: standard
  (2) fix qeq/reaxff, perpetual, copy from (1)
      attributes: half, newton off
      pair build: copy
      stencil: none
      bin: none
Setting up Verlet run ...
  Unit style    : real
  Current step  : 0
  Time step     : 0.5
Per MPI rank memory allocation (min/avg/max) = 120.3 | 122.7 | 125.3 Mbytes
   Step          Temp          PotEng         Press          Volume           Lx             Ly             Lz      
         0   318.36545     -34412.873     -8999.9276      3436.9359      15.4114        12.7411        17.5034      
       100   296.9539      -34391.091      13037.255      3443.8098      15.442223      12.7411        17.5034      
       200   308.50377     -34388.352     -15485.724      3450.6837      15.473046      12.7411        17.5034      
       300   316.78636     -34377.555      1634.2181      3457.5575      15.503868      12.7411        17.5034      
       400   296.20822     -34365.661     -7805.881       3464.4314      15.534691      12.7411        17.5034      
       500   310.46919     -34397.865     -77.749613      3471.3053      15.565514      12.7411        17.5034      
       600   294.6882      -34392.815     -2036.6814      3478.1791      15.596337      12.7411        17.5034      
       700   296.26228     -34394.163     -7939.6131      3485.053       15.62716       12.7411        17.5034      
       800   284.35258     -34371.516      1095.144       3491.9269      15.657982      12.7411        17.5034      
       900   311.39484     -34378.842      6188.5034      3498.8008      15.688805      12.7411        17.5034      
      1000   338.47453     -34381.481     -6000.1837      3505.6746      15.719628      12.7411        17.5034      
      1100   308.2744      -34377.379     -6972.7662      3512.5485      15.750451      12.7411        17.5034      
      1200   286.11412     -34366.282     -4290.9034      3519.4224      15.781274      12.7411        17.5034      
      1300   308.14372     -34386.795     -6296.3174      3526.2963      15.812096      12.7411        17.5034      
      1400   281.00086     -34370.823     -5876.6915      3533.1701      15.842919      12.7411        17.5034      
      1500   286.50732     -34386.026      1737.5397      3540.044       15.873742      12.7411        17.5034      
      1600   291.1978      -34382.7       -5343.304       3546.9179      15.904565      12.7411        17.5034      
      1700   309.43303     -34359.383     -8343.1121      3553.7917      15.935388      12.7411        17.5034      
      1800   317.18443     -34353.51      -13084.729      3560.6656      15.96621       12.7411        17.5034      
      1900   296.88426     -34356.066     -4260.3447      3567.5395      15.997033      12.7411        17.5034      
      2000   292.93026     -34366.252     -10757.46       3574.4134      16.027856      12.7411        17.5034      
      2100   300.54406     -34379.413     -15307.207      3581.2872      16.058679      12.7411        17.5034      
      2200   299.56934     -34382.652      3203.1202      3588.1611      16.089502      12.7411        17.5034      
      2300   281.27281     -34365.138      3787.7249      3595.035       16.120324      12.7411        17.5034      
      2400   321.81935     -34360.75      -10549.855      3601.9088      16.151147      12.7411        17.5034      
      2500   333.9609      -34370.707     -23732.107      3608.7827      16.18197       12.7411        17.5034      
      2600   310.60556     -34370.347     -11778.355      3615.6566      16.212793      12.7411        17.5034      
      2700   307.6453      -34383.569     -19926.324      3622.5305      16.243616      12.7411        17.5034      
      2800   308.66723     -34394.583     -18341.087      3629.4043      16.274438      12.7411        17.5034      
      2900   299.19074     -34390.507     -11160.66       3636.2782      16.305261      12.7411        17.5034      
      3000   306.77692     -34402.112     -5525.9355      3643.1521      16.336084      12.7411        17.5034      
      3100   288.61681     -34403.975     -7774.1117      3650.0259      16.366907      12.7411        17.5034      
      3200   263.22409     -34385.033     -4001.7232      3656.8998      16.39773       12.7411        17.5034      
      3300   280.07886     -34381.591     -3336.9788      3663.7737      16.428552      12.7411        17.5034      
      3400   301.94827     -34379.431     -13399.893      3670.6476      16.459375      12.7411        17.5034      
      3500   318.11419     -34384.957     -16678.735      3677.5214      16.490198      12.7411        17.5034      
      3600   304.61546     -34384.151     -1917.0028      3684.3953      16.521021      12.7411        17.5034      
      3700   313.5206      -34404.808     -11453.726      3691.2692      16.551844      12.7411        17.5034      
      3800   303.13803     -34390.604     -13624.248      3698.143       16.582666      12.7411        17.5034      
      3900   292.77111     -34376.989     -11021.852      3705.0169      16.613489      12.7411        17.5034      
      4000   307.35433     -34380.272     -6596.6262      3711.8908      16.644312      12.7411        17.5034      
      4100   307.41696     -34376.832     -3799.2937      3718.7647      16.675135      12.7411        17.5034      
      4200   275.51183     -34357.124     -14935.21       3725.6385      16.705958      12.7411        17.5034      
      4300   304.57604     -34391.254     -834.50795      3732.5124      16.73678       12.7411        17.5034      
      4400   296.66541     -34391.598     -17565.806      3739.3863      16.767603      12.7411        17.5034      
      4500   270.78087     -34370.368     -11707.361      3746.2601      16.798426      12.7411        17.5034      
      4600   294.94982     -34372.683     -17540.947      3753.134       16.829249      12.7411        17.5034      
      4700   320.03822     -34358.911     -12075.435      3760.0079      16.860072      12.7411        17.5034      
      4800   318.65084     -34368.653     -11568.869      3766.8818      16.890894      12.7411        17.5034      
      4900   312.03878     -34381.466     -9056.3632      3773.7556      16.921717      12.7411        17.5034      
      5000   284.37291     -34356.63      -15728.844      3780.6295      16.95254       12.7411        17.5034      
Loop time of 219.813 on 16 procs for 5000 steps with 310 atoms

Performance: 0.983 ns/day, 24.424 hours/ns, 22.747 timesteps/s, 7.051 katom-step/s
99.2% CPU use with 8 MPI tasks x 2 OpenMP threads

MPI task timing breakdown:
Section |  min time  |  avg time  |  max time  |%varavg| %total
---------------------------------------------------------------
Pair    | 156.4      | 164.29     | 170.62     |  35.4 | 74.74
Bond    | 0.0016186  | 0.0018808  | 0.0021906  |   0.5 |  0.00
Neigh   | 11.87      | 12.265     | 12.64      |   7.2 |  5.58
Comm    | 14.316     | 20.756     | 28.778     | 100.1 |  9.44
Output  | 0.026846   | 0.031074   | 0.035029   |   1.6 |  0.01
Modify  | 20.988     | 21.452     | 22.016     |   7.3 |  9.76
Other   |            | 1.02       |            |       |  0.46

Nlocal:          38.75 ave          48 max          32 min
Histogram: 1 2 1 0 1 0 1 1 0 1
Nghost:        2909.62 ave        3003 max        2816 min
Histogram: 1 0 1 1 1 1 1 1 0 1
Neighs:        22209.5 ave       27173 max       18486 min
Histogram: 1 2 1 0 1 0 1 1 0 1

Total # of neighbors = 177676
Ave neighs/atom = 573.14839
Ave special neighs/atom = 0
Neighbor list builds = 500
Dangerous builds not checked
  using 2 OpenMP thread(s) per MPI task
Reading restart file ...
  restart file = 2 Aug 2023, LAMMPS = 2 Aug 2023
  restoring atom style full from restart
  triclinic box = (0 0 0) to (15.4114 12.7411 17.5034) with tilt (-7.2027 -1.8261 0.3384)
WARNING: Triclinic box skew is large. LAMMPS will run inefficiently. (src/domain.cpp:220)
  2 by 2 by 2 MPI processor grid
  pair style reaxff stores no restart info
  310 atoms
Finding 1-2 1-3 1-4 neighbors ...
  special bond factors lj:    0        0        0       
  special bond factors coul:  0        0        0       
     0 = max # of 1-2 neighbors
     0 = max # of 1-3 neighbors
     0 = max # of 1-4 neighbors
     1 = max # of special neighbors
  special bonds CPU = 0.000 seconds
  read_restart CPU = 0.003 seconds
*****debug*****
xy = -7.2027000000000001023, deltaxy = 0.72027
xz = -1.8261000000000000565, deltaxz = 0.18261
yz = 0.33839999999999997859, deltayz = -0.03384
*****
*****Negative-deform 2 starts.*****
Resetting global fix info from restart file:
  fix style: nvt, fix ID: fnvt
All restart file global fix info was re-assigned
Neighbor list info ...
  update: every = 10 steps, delay = 0 steps, check = no
  max neighbors/atom: 2000, page size: 100000
  master list distance cutoff = 12
  ghost atom cutoff = 12
  binsize = 6, bins = 5 3 3
  2 neighbor lists, perpetual/occasional/extra = 2 0 0
  (1) pair reaxff, perpetual
      attributes: half, newton off, ghost
      pair build: half/bin/newtoff/ghost
      stencil: full/ghost/bin/3d
      bin: standard
  (2) fix qeq/reaxff, perpetual, copy from (1)
      attributes: half, newton off
      pair build: copy
      stencil: none
      bin: none
Setting up Verlet run ...
  Unit style    : real
  Current step  : 0
  Time step     : 0.5
Per MPI rank memory allocation (min/avg/max) = 120.3 | 122.7 | 125.3 Mbytes
   Step          Temp          PotEng         Press          Volume           Lx             Ly             Lz      
         0   318.36545     -34412.873     -8999.9276      3436.9359      15.4114        12.7411        17.5034      
       100   297.3745      -34391.057      13209.473      3430.062       15.4114        12.715618      17.5034      
       200   299.33812     -34381.286     -18197.287      3423.1882      15.4114        12.690136      17.5034      
       300   320.44917     -34413.006     -6254.2694      3416.3143      15.4114        12.664653      17.5034      
       400   287.39371     -34400.632     -4165.151       3409.4404      15.4114        12.639171      17.5034      
       500   287.04549     -34401.387      43.603297      3402.5666      15.4114        12.613689      17.5034      
       600   292.49287     -34379.708     -3925.778       3395.6927      15.4114        12.588207      17.5034      
       700   301.53238     -34361.59      -9704.7864      3388.8188      15.4114        12.562725      17.5034      
       800   313.28949     -34380.03       10286.105      3381.9449      15.4114        12.537242      17.5034      
       900   309.86203     -34385.729      1322.1972      3375.0711      15.4114        12.51176       17.5034      
      1000   306.52862     -34392.768     -2068.2682      3368.1972      15.4114        12.486278      17.5034      
      1100   310.09087     -34420.176     -1761.2713      3361.3233      15.4114        12.460796      17.5034      
      1200   313.15128     -34428.315     -3633.9147      3354.4495      15.4114        12.435314      17.5034      
      1300   299.38224     -34407.318     -240.81339      3347.5756      15.4114        12.409831      17.5034      
      1400   306.24281     -34383.568      2116.1926      3340.7017      15.4114        12.384349      17.5034      
      1500   330.7596      -34374.414      9450.6039      3333.8278      15.4114        12.358867      17.5034      
      1600   316.26876     -34376.679     -2880.222       3326.954       15.4114        12.333385      17.5034      
      1700   309.94835     -34400.726      5398.8547      3320.0801      15.4114        12.307903      17.5034      
      1800   299.15534     -34397.477      5959.9045      3313.2062      15.4114        12.28242       17.5034      
      1900   301.48944     -34406.304     -3539.6671      3306.3324      15.4114        12.256938      17.5034      
      2000   293.22292     -34408.199      10419.963      3299.4585      15.4114        12.231456      17.5034      
      2100   286.85048     -34408.948     -2558.839       3292.5846      15.4114        12.205974      17.5034      
      2200   286.84104     -34424.784      2936.7303      3285.7107      15.4114        12.180492      17.5034      
      2300   275.00182     -34401.413      5478.1236      3278.8369      15.4114        12.155009      17.5034      
      2400   302.31939     -34389.169      1891.9061      3271.963       15.4114        12.129527      17.5034      
      2500   300.93453     -34376.687      3808.4368      3265.0891      15.4114        12.104045      17.5034      
      2600   328.40448     -34399.484      26499.48       3258.2152      15.4114        12.078563      17.5034      
      2700   268.35905     -34366.165      15165.666      3251.3414      15.4114        12.053081      17.5034      
      2800   290.34038     -34385.829     -194.45285      3244.4675      15.4114        12.027598      17.5034      
      2900   291.16248     -34378.604      4724.6319      3237.5936      15.4114        12.002116      17.5034      
      3000   319.31318     -34383.306     -13539.344      3230.7198      15.4114        11.976634      17.5034      
      3100   311.07552     -34345.516      10493.384      3223.8459      15.4114        11.951152      17.5034      
      3200   327.06434     -34346.641     -251.37089      3216.972       15.4114        11.92567       17.5034      
      3300   282.61082     -34341.265      7845.3979      3210.0981      15.4114        11.900187      17.5034      
      3400   304.27033     -34372.069      7936.2976      3203.2243      15.4114        11.874705      17.5034      
      3500   299.38031     -34381.578      11357.727      3196.3504      15.4114        11.849223      17.5034      
      3600   286.42558     -34378.91       3054.8327      3189.4765      15.4114        11.823741      17.5034      
      3700   301.45341     -34389.392      6640.1777      3182.6027      15.4114        11.798259      17.5034      
      3800   285.99174     -34351.078     -536.74941      3175.7288      15.4114        11.772776      17.5034      
      3900   336.00596     -34367.502     -15277.371      3168.8549      15.4114        11.747294      17.5034      
      4000   293.53109     -34346.337     -1599.7667      3161.981       15.4114        11.721812      17.5034      
      4100   315.95285     -34386.774      16237.265      3155.1072      15.4114        11.69633       17.5034      
      4200   306.01867     -34379.646      7879.5916      3148.2333      15.4114        11.670848      17.5034      
      4300   291.9404      -34358.967      20032.188      3141.3594      15.4114        11.645365      17.5034      
      4400   301.00017     -34361.605      2841.2694      3134.4856      15.4114        11.619883      17.5034      
      4500   280.32259     -34366.321      15217.615      3127.6117      15.4114        11.594401      17.5034      
      4600   295.08171     -34383.376      4429.7895      3120.7378      15.4114        11.568919      17.5034      
      4700   298.05558     -34374.343     -553.15028      3113.8639      15.4114        11.543437      17.5034      
      4800   324.69731     -34369.774      17313.577      3106.9901      15.4114        11.517954      17.5034      
      4900   326.00064     -34350.065      16047.717      3100.1162      15.4114        11.492472      17.5034      
      5000   311.07337     -34371.645      17203.588      3093.2423      15.4114        11.46699       17.5034      
Loop time of 252.422 on 16 procs for 5000 steps with 310 atoms

Performance: 0.856 ns/day, 28.047 hours/ns, 19.808 timesteps/s, 6.141 katom-step/s
99.2% CPU use with 8 MPI tasks x 2 OpenMP threads

MPI task timing breakdown:
Section |  min time  |  avg time  |  max time  |%varavg| %total
---------------------------------------------------------------
Pair    | 182.34     | 192.01     | 198.32     |  33.4 | 76.07
Bond    | 0.0016149  | 0.0019081  | 0.0022594  |   0.6 |  0.00
Neigh   | 14.003     | 14.147     | 14.63      |   5.2 |  5.60
Comm    | 15.948     | 22.241     | 32.058     |  98.4 |  8.81
Output  | 0.027745   | 0.032246   | 0.036584   |   1.7 |  0.01
Modify  | 22.489     | 23.048     | 23.316     |   5.1 |  9.13
Other   |            | 0.9393     |            |       |  0.37

Nlocal:          38.75 ave          48 max          31 min
Histogram: 2 0 0 1 0 4 0 0 0 1
Nghost:        3469.25 ave        3506 max        3450 min
Histogram: 3 1 1 0 0 1 0 1 0 1
Neighs:        27263.4 ave       33535 max       22038 min
Histogram: 2 0 0 1 0 4 0 0 0 1

Total # of neighbors = 218107
Ave neighs/atom = 703.57097
Ave special neighs/atom = 0
Neighbor list builds = 500
Dangerous builds not checked
  using 2 OpenMP thread(s) per MPI task
Reading restart file ...
  restart file = 2 Aug 2023, LAMMPS = 2 Aug 2023
  restoring atom style full from restart
  triclinic box = (0 0 0) to (15.4114 12.7411 17.5034) with tilt (-7.2027 -1.8261 0.3384)
WARNING: Triclinic box skew is large. LAMMPS will run inefficiently. (src/domain.cpp:220)
  2 by 2 by 2 MPI processor grid
  pair style reaxff stores no restart info
  310 atoms
Finding 1-2 1-3 1-4 neighbors ...
  special bond factors lj:    0        0        0       
  special bond factors coul:  0        0        0       
     0 = max # of 1-2 neighbors
     0 = max # of 1-3 neighbors
     0 = max # of 1-4 neighbors
     1 = max # of special neighbors
  special bonds CPU = 0.000 seconds
  read_restart CPU = 0.004 seconds
*****Positive-deform 2 starts.*****
Resetting global fix info from restart file:
  fix style: nvt, fix ID: fnvt
All restart file global fix info was re-assigned
Neighbor list info ...
  update: every = 10 steps, delay = 0 steps, check = no
  max neighbors/atom: 2000, page size: 100000
  master list distance cutoff = 12
  ghost atom cutoff = 12
  binsize = 6, bins = 5 3 3
  2 neighbor lists, perpetual/occasional/extra = 2 0 0
  (1) pair reaxff, perpetual
      attributes: half, newton off, ghost
      pair build: half/bin/newtoff/ghost
      stencil: full/ghost/bin/3d
      bin: standard
  (2) fix qeq/reaxff, perpetual, copy from (1)
      attributes: half, newton off
      pair build: copy
      stencil: none
      bin: none
Setting up Verlet run ...
  Unit style    : real
  Current step  : 0
  Time step     : 0.5
Per MPI rank memory allocation (min/avg/max) = 120.3 | 122.7 | 125.3 Mbytes
   Step          Temp          PotEng         Press          Volume           Lx             Ly             Lz      
         0   318.36545     -34412.873     -8999.9276      3436.9359      15.4114        12.7411        17.5034      
       100   296.92212     -34391.165      13145.082      3443.8098      15.4114        12.766582      17.5034      
       200   301.81867     -34383.193     -11348.701      3450.6837      15.4114        12.792064      17.5034      
       300   321.30188     -34380.616      208.92489      3457.5575      15.4114        12.817547      17.5034      
       400   302.33081     -34376.086     -3576.5489      3464.4314      15.4114        12.843029      17.5034      
       500   294.11307     -34385.744     -5108.7371      3471.3053      15.4114        12.868511      17.5034      
       600   309.76585     -34404.75      -9718.61        3478.1791      15.4114        12.893993      17.5034      
       700   302.15997     -34404.203      263.66676      3485.053       15.4114        12.919475      17.5034      
       800   278.9748      -34398.938      2919.1162      3491.9269      15.4114        12.944958      17.5034      
       900   292.83559     -34408.377     -2521.2475      3498.8008      15.4114        12.97044       17.5034      
      1000   313.47984     -34379.061     -9179.8376      3505.6746      15.4114        12.995922      17.5034      
      1100   318.12192     -34370.075     -2883.5792      3512.5485      15.4114        13.021404      17.5034      
      1200   298.52182     -34373.883      38.893919      3519.4224      15.4114        13.046886      17.5034      
      1300   286.71063     -34378.708     -7190.2219      3526.2963      15.4114        13.072369      17.5034      
      1400   295.86148     -34387.189     -13198.127      3533.1701      15.4114        13.097851      17.5034      
      1500   301.09396     -34394.489     -11574.212      3540.044       15.4114        13.123333      17.5034      
      1600   273.90769     -34382.598     -390.4475       3546.9179      15.4114        13.148815      17.5034      
      1700   303.40914     -34413.76      -10665.226      3553.7917      15.4114        13.174297      17.5034      
      1800   300.77455     -34381.345      1261.0853      3560.6656      15.4114        13.19978       17.5034      
      1900   314.17261     -34368.06      -4706.8182      3567.5395      15.4114        13.225262      17.5034      
      2000   301.43695     -34360.533     -18361.627      3574.4134      15.4114        13.250744      17.5034      
      2100   297.07842     -34377.973     -15564.986      3581.2872      15.4114        13.276226      17.5034      
      2200   288.01017     -34371.155     -18596.004      3588.1611      15.4114        13.301708      17.5034      
      2300   296.24007     -34372.681      2314.0411      3595.035       15.4114        13.327191      17.5034      
      2400   303.04227     -34372.756     -5688.2701      3601.9088      15.4114        13.352673      17.5034      
      2500   321.44848     -34390.734     -7007.5319      3608.7827      15.4114        13.378155      17.5034      
      2600   300.71049     -34377.246      4426.465       3615.6566      15.4114        13.403637      17.5034      
      2700   284.09421     -34373.969     -14768.429      3622.5305      15.4114        13.429119      17.5034      
      2800   281.26134     -34375.761     -13745.764      3629.4043      15.4114        13.454602      17.5034      
      2900   287.81443     -34367.811     -1180.0563      3636.2782      15.4114        13.480084      17.5034      
      3000   289.77307     -34344.758     -16227.656      3643.1521      15.4114        13.505566      17.5034      
      3100   322.89757     -34358.972     -17714.483      3650.0259      15.4114        13.531048      17.5034      
      3200   307.30465     -34367.984     -11218.775      3656.8998      15.4114        13.55653       17.5034      
      3300   285.96663     -34359.42      -10244.238      3663.7737      15.4114        13.582013      17.5034      
      3400   315.37624     -34381.69      -17191.207      3670.6476      15.4114        13.607495      17.5034      
      3500   289.22859     -34359.705     -5204.0674      3677.5214      15.4114        13.632977      17.5034      
      3600   301.96705     -34367.098     -7450.6534      3684.3953      15.4114        13.658459      17.5034      
      3700   306.58616     -34349.242     -13001.634      3691.2692      15.4114        13.683941      17.5034      
      3800   304.09492     -34340.439     -20775.267      3698.143       15.4114        13.709424      17.5034      
      3900   300.38179     -34356.267     -5456.0505      3705.0169      15.4114        13.734906      17.5034      
      4000   316.11002     -34385.678     -11073.19       3711.8908      15.4114        13.760388      17.5034      
      4100   299.29985     -34366.294     -10077.864      3718.7647      15.4114        13.78587       17.5034      
      4200   294.30941     -34355.649     -20535.914      3725.6385      15.4114        13.811352      17.5034      
      4300   301.91896     -34358.623     -13110.15       3732.5124      15.4114        13.836835      17.5034      
      4400   295.30105     -34346.269     -15678.153      3739.3863      15.4114        13.862317      17.5034      
      4500   276.05153     -34344.652     -3847.7331      3746.2601      15.4114        13.887799      17.5034      
      4600   284.10537     -34376.124     -9513.5299      3753.134       15.4114        13.913281      17.5034      
      4700   306.16524     -34377.716     -15400.571      3760.0079      15.4114        13.938763      17.5034      
      4800   307.25404     -34342.942     -8041.4439      3766.8818      15.4114        13.964246      17.5034      
      4900   302.59019     -34324.915     -18034.353      3773.7556      15.4114        13.989728      17.5034      
      5000   317.76055     -34340.929     -7263.8449      3780.6295      15.4114        14.01521       17.5034      
Loop time of 216.3 on 16 procs for 5000 steps with 310 atoms

Performance: 0.999 ns/day, 24.033 hours/ns, 23.116 timesteps/s, 7.166 katom-step/s
99.1% CPU use with 8 MPI tasks x 2 OpenMP threads

MPI task timing breakdown:
Section |  min time  |  avg time  |  max time  |%varavg| %total
---------------------------------------------------------------
Pair    | 153.21     | 161.29     | 167.38     |  33.7 | 74.57
Bond    | 0.0015926  | 0.0019127  | 0.0022936  |   0.6 |  0.00
Neigh   | 11.607     | 11.899     | 12.195     |   4.8 |  5.50
Comm    | 14.6       | 20.769     | 28.987     |  94.2 |  9.60
Output  | 0.025372   | 0.028443   | 0.031676   |   1.4 |  0.01
Modify  | 20.966     | 21.321     | 21.656     |   4.8 |  9.86
Other   |            | 0.9864     |            |       |  0.46

Nlocal:          38.75 ave          44 max          31 min
Histogram: 1 0 0 1 0 1 3 1 0 1
Nghost:           2814 ave        2855 max        2760 min
Histogram: 1 1 0 0 1 0 2 1 0 2
Neighs:        22204.2 ave       24851 max       18079 min
Histogram: 1 0 0 1 0 1 0 4 0 1

Total # of neighbors = 177634
Ave neighs/atom = 573.0129
Ave special neighs/atom = 0
Neighbor list builds = 500
Dangerous builds not checked
  using 2 OpenMP thread(s) per MPI task
Reading restart file ...
  restart file = 2 Aug 2023, LAMMPS = 2 Aug 2023
  restoring atom style full from restart
  triclinic box = (0 0 0) to (15.4114 12.7411 17.5034) with tilt (-7.2027 -1.8261 0.3384)
WARNING: Triclinic box skew is large. LAMMPS will run inefficiently. (src/domain.cpp:220)
  2 by 2 by 2 MPI processor grid
  pair style reaxff stores no restart info
  310 atoms
Finding 1-2 1-3 1-4 neighbors ...
  special bond factors lj:    0        0        0       
  special bond factors coul:  0        0        0       
     0 = max # of 1-2 neighbors
     0 = max # of 1-3 neighbors
     0 = max # of 1-4 neighbors
     1 = max # of special neighbors
  special bonds CPU = 0.000 seconds
  read_restart CPU = 0.003 seconds
*****debug*****
xy = -7.2027000000000001023, deltaxy = 0.72027
xz = -1.8261000000000000565, deltaxz = 0.18261
yz = 0.33839999999999997859, deltayz = -0.03384
*****
*****Negative-deform 3 starts.*****
Resetting global fix info from restart file:
  fix style: nvt, fix ID: fnvt
All restart file global fix info was re-assigned
Neighbor list info ...
  update: every = 10 steps, delay = 0 steps, check = no
  max neighbors/atom: 2000, page size: 100000
  master list distance cutoff = 12
  ghost atom cutoff = 12
  binsize = 6, bins = 5 3 3
  2 neighbor lists, perpetual/occasional/extra = 2 0 0
  (1) pair reaxff, perpetual
      attributes: half, newton off, ghost
      pair build: half/bin/newtoff/ghost
      stencil: full/ghost/bin/3d
      bin: standard
  (2) fix qeq/reaxff, perpetual, copy from (1)
      attributes: half, newton off
      pair build: copy
      stencil: none
      bin: none
Setting up Verlet run ...
  Unit style    : real
  Current step  : 0
  Time step     : 0.5
Per MPI rank memory allocation (min/avg/max) = 120.3 | 122.7 | 125.3 Mbytes
   Step          Temp          PotEng         Press          Volume           Lx             Ly             Lz      
         0   318.36545     -34412.873     -8999.9276      3436.9359      15.4114        12.7411        17.5034      
       100   297.20127     -34391.155      13238.907      3430.062       15.4114        12.7411        17.468393    
       200   309.82126     -34389.614     -10144.603      3423.1882      15.4114        12.7411        17.433386    
       300   319.84702     -34408.429     -3918.1957      3416.3143      15.4114        12.7411        17.39838     
       400   298.81043     -34406.342     -16544.033      3409.4404      15.4114        12.7411        17.363373    
       500   300.7416      -34404.69       3481.0614      3402.5666      15.4114        12.7411        17.328366    
       600   305.7763      -34400.809     -5106.1056      3395.6927      15.4114        12.7411        17.293359    
       700   300.24804     -34396.929      7703.9171      3388.8188      15.4114        12.7411        17.258352    
       800   259.06923     -34369.241      2294.9354      3381.9449      15.4114        12.7411        17.223346    
       900   318.14685     -34416.114      684.91703      3375.0711      15.4114        12.7411        17.188339    
      1000   311.26418     -34411.039      17361.418      3368.1972      15.4114        12.7411        17.153332    
      1100   297.77145     -34421.561      302.33804      3361.3233      15.4114        12.7411        17.118325    
      1200   285.87036     -34408.348     -7577.9309      3354.4495      15.4114        12.7411        17.083318    
      1300   290.72814     -34389.268      10151.311      3347.5756      15.4114        12.7411        17.048312    
      1400   304.64687     -34386.222      20982.79       3340.7017      15.4114        12.7411        17.013305    
      1500   316.28044     -34395.077      6804.4301      3333.8278      15.4114        12.7411        16.978298    
      1600   309.11871     -34393.147      6646.8319      3326.954       15.4114        12.7411        16.943291    
      1700   315.15706     -34397.284      11156.872      3320.0801      15.4114        12.7411        16.908284    
      1800   306.0009      -34405.541      34.36533       3313.2062      15.4114        12.7411        16.873278    
      1900   290.9928      -34394.946      440.5229       3306.3324      15.4114        12.7411        16.838271    
      2000   275.5367      -34388.902      15136.418      3299.4585      15.4114        12.7411        16.803264    
      2100   317.47056     -34418.302      3570.5315      3292.5846      15.4114        12.7411        16.768257    
      2200   287.00431     -34396.014      8533.3481      3285.7107      15.4114        12.7411        16.73325     
      2300   282.86556     -34394.863      9313.8566      3278.8369      15.4114        12.7411        16.698244    
      2400   296.06572     -34382.881      12615.456      3271.963       15.4114        12.7411        16.663237    
      2500   336.52424     -34389.243     -4526.2942      3265.0891      15.4114        12.7411        16.62823     
      2600   320.11488     -34386.742     -14093.279      3258.2152      15.4114        12.7411        16.593223    
      2700   286.61785     -34384.051      22370.518      3251.3414      15.4114        12.7411        16.558216    
      2800   300.26747     -34399.431      22666.705      3244.4675      15.4114        12.7411        16.52321     
      2900   287.33557     -34394.236      3688.637       3237.5936      15.4114        12.7411        16.488203    
      3000   279.43605     -34390.832      2566.011       3230.7198      15.4114        12.7411        16.453196    
      3100   294.55805     -34396.913      11779.938      3223.8459      15.4114        12.7411        16.418189    
      3200   306.35206     -34377.914      21444.235      3216.972       15.4114        12.7411        16.383182    
      3300   302.95389     -34345.937      4504.9406      3210.0981      15.4114        12.7411        16.348176    
      3400   298.75037     -34356.649      8213.0977      3203.2243      15.4114        12.7411        16.313169    
      3500   299.95534     -34379.816      2963.5937      3196.3504      15.4114        12.7411        16.278162    
      3600   303.56412     -34398.511      13694.029      3189.4765      15.4114        12.7411        16.243155    
      3700   298.97598     -34404.363      7357.8544      3182.6027      15.4114        12.7411        16.208148    
      3800   285.75031     -34393.974      16182.928      3175.7288      15.4114        12.7411        16.173142    
      3900   292.61163     -34390.914      23324.409      3168.8549      15.4114        12.7411        16.138135    
      4000   291.95465     -34384.115      1272.2285      3161.981       15.4114        12.7411        16.103128    
      4100   297.58122     -34400.221      19778.079      3155.1072      15.4114        12.7411        16.068121    
      4200   297.0823      -34406.709      14056.298      3148.2333      15.4114        12.7411        16.033114    
      4300   283.27351     -34385.597      10262.905      3141.3594      15.4114        12.7411        15.998108    
      4400   287.67416     -34393.671      4936.4145      3134.4856      15.4114        12.7411        15.963101    
      4500   295.65592     -34427.321      11782.971      3127.6117      15.4114        12.7411        15.928094    
      4600   300.43811     -34423.581      8911.1816      3120.7378      15.4114        12.7411        15.893087    
      4700   311.64116     -34413.468      16795.269      3113.8639      15.4114        12.7411        15.85808     
      4800   324.82131     -34429.941      17379.966      3106.9901      15.4114        12.7411        15.823074    
      4900   284.45682     -34421.131      5514.5705      3100.1162      15.4114        12.7411        15.788067    
      5000   304.79734     -34428.765      5747.7993      3093.2423      15.4114        12.7411        15.75306     
Loop time of 247.862 on 16 procs for 5000 steps with 310 atoms

Performance: 0.871 ns/day, 27.540 hours/ns, 20.173 timesteps/s, 6.253 katom-step/s
99.2% CPU use with 8 MPI tasks x 2 OpenMP threads

MPI task timing breakdown:
Section |  min time  |  avg time  |  max time  |%varavg| %total
---------------------------------------------------------------
Pair    | 180.95     | 188.65     | 194.26     |  30.7 | 76.11
Bond    | 0.0016484  | 0.0019247  | 0.0023713  |   0.6 |  0.00
Neigh   | 13.249     | 13.512     | 13.635     |   3.3 |  5.45
Comm    | 16.414     | 22.032     | 29.752     |  89.6 |  8.89
Output  | 0.033081   | 0.039189   | 0.044456   |   2.0 |  0.02
Modify  | 22.314     | 22.63      | 22.977     |   4.6 |  9.13
Other   |            | 0.9979     |            |       |  0.40

Nlocal:          38.75 ave          46 max          35 min
Histogram: 2 1 1 2 1 0 0 0 0 1
Nghost:        3375.38 ave        3410 max        3340 min
Histogram: 2 2 0 0 0 0 0 0 2 2
Neighs:          27233 ave       31963 max       24637 min
Histogram: 1 2 1 1 2 0 0 0 0 1

Total # of neighbors = 217864
Ave neighs/atom = 702.7871
Ave special neighs/atom = 0
Neighbor list builds = 500
Dangerous builds not checked
  using 2 OpenMP thread(s) per MPI task
Reading restart file ...
  restart file = 2 Aug 2023, LAMMPS = 2 Aug 2023
  restoring atom style full from restart
  triclinic box = (0 0 0) to (15.4114 12.7411 17.5034) with tilt (-7.2027 -1.8261 0.3384)
WARNING: Triclinic box skew is large. LAMMPS will run inefficiently. (src/domain.cpp:220)
  2 by 2 by 2 MPI processor grid
  pair style reaxff stores no restart info
  310 atoms
Finding 1-2 1-3 1-4 neighbors ...
  special bond factors lj:    0        0        0       
  special bond factors coul:  0        0        0       
     0 = max # of 1-2 neighbors
     0 = max # of 1-3 neighbors
     0 = max # of 1-4 neighbors
     1 = max # of special neighbors
  special bonds CPU = 0.001 seconds
  read_restart CPU = 0.006 seconds
*****Positive-deform 3 starts.*****
Resetting global fix info from restart file:
  fix style: nvt, fix ID: fnvt
All restart file global fix info was re-assigned
Neighbor list info ...
  update: every = 10 steps, delay = 0 steps, check = no
  max neighbors/atom: 2000, page size: 100000
  master list distance cutoff = 12
  ghost atom cutoff = 12
  binsize = 6, bins = 5 3 3
  2 neighbor lists, perpetual/occasional/extra = 2 0 0
  (1) pair reaxff, perpetual
      attributes: half, newton off, ghost
      pair build: half/bin/newtoff/ghost
      stencil: full/ghost/bin/3d
      bin: standard
  (2) fix qeq/reaxff, perpetual, copy from (1)
      attributes: half, newton off
      pair build: copy
      stencil: none
      bin: none
Setting up Verlet run ...
  Unit style    : real
  Current step  : 0
  Time step     : 0.5
Per MPI rank memory allocation (min/avg/max) = 120.3 | 122.7 | 125.3 Mbytes
   Step          Temp          PotEng         Press          Volume           Lx             Ly             Lz      
         0   318.36545     -34412.873     -8999.9276      3436.9359      15.4114        12.7411        17.5034      
       100   297.13038     -34391.176      13191.537      3443.8098      15.4114        12.7411        17.538407    
       200   302.90749     -34382.247     -15740.843      3450.6837      15.4114        12.7411        17.573414    
       300   315.56319     -34374.906      138.48061      3457.5575      15.4114        12.7411        17.60842     
       400   298.93532     -34372.706      2555.3854      3464.4314      15.4114        12.7411        17.643427    
       500   295.67485     -34382.689      626.87065      3471.3053      15.4114        12.7411        17.678434    
       600   312.13536     -34400.214     -2207.2357      3478.1791      15.4114        12.7411        17.713441    
       700   312.90407     -34404.77      -2632.6005      3485.053       15.4114        12.7411        17.748448    
       800   287.94346     -34385.635     -7830.4307      3491.9269      15.4114        12.7411        17.783454    
       900   298.36914     -34378.115      9798.1576      3498.8008      15.4114        12.7411        17.818461    
      1000   326.31177     -34400.837      514.68768      3505.6746      15.4114        12.7411        17.853468    
      1100   287.34937     -34373.146     -1287.8663      3512.5485      15.4114        12.7411        17.888475    
      1200   289.23872     -34393.613     -10230.677      3519.4224      15.4114        12.7411        17.923482    
      1300   267.24107     -34390.363     -9824.6479      3526.2963      15.4114        12.7411        17.958488    
      1400   288.54179     -34372.617     -10790.527      3533.1701      15.4114        12.7411        17.993495    
      1500   305.93083     -34354.78      -15776.488      3540.044       15.4114        12.7411        18.028502    
      1600   324.14672     -34372.658     -206.93573      3546.9179      15.4114        12.7411        18.063509    
      1700   293.52234     -34361.223     -8347.325       3553.7917      15.4114        12.7411        18.098516    
      1800   283.99337     -34351.513     -17154.631      3560.6656      15.4114        12.7411        18.133522    
      1900   295.03699     -34365.458     -337.18609      3567.5395      15.4114        12.7411        18.168529    
      2000   301.45375     -34381.868     -2659.046       3574.4134      15.4114        12.7411        18.203536    
      2100   289.58355     -34378.438     -5756.5413      3581.2872      15.4114        12.7411        18.238543    
      2200   276.04951     -34389.355     -1074.3236      3588.1611      15.4114        12.7411        18.27355     
      2300   254.04167     -34376.437     -14243.202      3595.035       15.4114        12.7411        18.308556    
      2400   295.28292     -34381.018     -7768.7154      3601.9088      15.4114        12.7411        18.343563    
      2500   299.52742     -34356.709     -18305.716      3608.7827      15.4114        12.7411        18.37857     
      2600   305.06364     -34355.883     -12628.829      3615.6566      15.4114        12.7411        18.413577    
      2700   305.69058     -34364.714     -8036.6351      3622.5305      15.4114        12.7411        18.448584    
      2800   281.13041     -34357.355     -30108.49       3629.4043      15.4114        12.7411        18.48359     
      2900   290.36634     -34350.058     -12499.064      3636.2782      15.4114        12.7411        18.518597    
      3000   306.79087     -34347.548     -3628.2513      3643.1521      15.4114        12.7411        18.553604    
      3100   293.50117     -34335.809      2.1793114      3650.0259      15.4114        12.7411        18.588611    
      3200   300.44047     -34355.111     -2197.831       3656.8998      15.4114        12.7411        18.623618    
      3300   276.57653     -34368.485     -11460.126      3663.7737      15.4114        12.7411        18.658624    
      3400   263.03534     -34346.978     -1730.6509      3670.6476      15.4114        12.7411        18.693631    
      3500   305.46631     -34358.038     -506.32402      3677.5214      15.4114        12.7411        18.728638    
      3600   303.96375     -34334.85      -9000.2247      3684.3953      15.4114        12.7411        18.763645    
      3700   322.81773     -34339.778     -11827.002      3691.2692      15.4114        12.7411        18.798652    
      3800   278.82878     -34313.723     -17083.004      3698.143       15.4114        12.7411        18.833658    
      3900   289.36973     -34340.199     -2316.2065      3705.0169      15.4114        12.7411        18.868665    
      4000   306.96677     -34348.958     -17401.833      3711.8908      15.4114        12.7411        18.903672    
      4100   302.5707      -34327.386     -14989.818      3718.7647      15.4114        12.7411        18.938679    
      4200   309.90515     -34327.92      -8975.9376      3725.6385      15.4114        12.7411        18.973686    
      4300   302.48473     -34320.167     -11279.15       3732.5124      15.4114        12.7411        19.008692    
      4400   298.00561     -34319.93      -4265.9143      3739.3863      15.4114        12.7411        19.043699    
      4500   299.80574     -34334.136     -8257.7601      3746.2601      15.4114        12.7411        19.078706    
      4600   299.32903     -34344.499     -15277.284      3753.134       15.4114        12.7411        19.113713    
      4700   298.38075     -34344.214     -13365.309      3760.0079      15.4114        12.7411        19.14872     
      4800   289.92909     -34303.159     -983.57406      3766.8818      15.4114        12.7411        19.183726    
      4900   314.46492     -34293.232     -11696.555      3773.7556      15.4114        12.7411        19.218733    
      5000   312.86902     -34296.248     -10719.329      3780.6295      15.4114        12.7411        19.25374     
Loop time of 218.775 on 16 procs for 5000 steps with 310 atoms

Performance: 0.987 ns/day, 24.308 hours/ns, 22.854 timesteps/s, 7.085 katom-step/s
99.2% CPU use with 8 MPI tasks x 2 OpenMP threads

MPI task timing breakdown:
Section |  min time  |  avg time  |  max time  |%varavg| %total
---------------------------------------------------------------
Pair    | 155.4      | 163.58     | 169.34     |  32.3 | 74.77
Bond    | 0.0016123  | 0.0019394  | 0.0024058  |   0.6 |  0.00
Neigh   | 11.042     | 11.279     | 11.466     |   3.4 |  5.16
Comm    | 15.878     | 21.615     | 29.892     |  88.9 |  9.88
Output  | 0.029133   | 0.033807   | 0.037931   |   1.7 |  0.02
Modify  | 21.094     | 21.327     | 21.6       |   3.0 |  9.75
Other   |            | 0.9375     |            |       |  0.43

Nlocal:          38.75 ave          47 max          28 min
Histogram: 1 1 1 0 0 1 0 0 3 1
Nghost:        2927.88 ave        3008 max        2851 min
Histogram: 1 0 1 3 0 0 0 1 1 1
Neighs:        22206.5 ave       26798 max       16325 min
Histogram: 1 1 1 0 0 1 0 0 3 1

Total # of neighbors = 177652
Ave neighs/atom = 573.07097
Ave special neighs/atom = 0
Neighbor list builds = 500
Dangerous builds not checked
  using 2 OpenMP thread(s) per MPI task
Reading restart file ...
  restart file = 2 Aug 2023, LAMMPS = 2 Aug 2023
  restoring atom style full from restart
  triclinic box = (0 0 0) to (15.4114 12.7411 17.5034) with tilt (-7.2027 -1.8261 0.3384)
WARNING: Triclinic box skew is large. LAMMPS will run inefficiently. (src/domain.cpp:220)
  2 by 2 by 2 MPI processor grid
  pair style reaxff stores no restart info
  310 atoms
Finding 1-2 1-3 1-4 neighbors ...
  special bond factors lj:    0        0        0       
  special bond factors coul:  0        0        0       
     0 = max # of 1-2 neighbors
     0 = max # of 1-3 neighbors
     0 = max # of 1-4 neighbors
     1 = max # of special neighbors
  special bonds CPU = 0.001 seconds
  read_restart CPU = 0.006 seconds
*****debug*****
xy = -7.2027000000000001023, deltaxy = 0.72027
xz = -1.8261000000000000565, deltaxz = 0.18261
yz = 0.33839999999999997859, deltayz = -0.03384
*****
*****Negative-deform 4 starts.*****
Resetting global fix info from restart file:
  fix style: nvt, fix ID: fnvt
All restart file global fix info was re-assigned
Neighbor list info ...
  update: every = 10 steps, delay = 0 steps, check = no
  max neighbors/atom: 2000, page size: 100000
  master list distance cutoff = 12
  ghost atom cutoff = 12
  binsize = 6, bins = 5 3 3
  2 neighbor lists, perpetual/occasional/extra = 2 0 0
  (1) pair reaxff, perpetual
      attributes: half, newton off, ghost
      pair build: half/bin/newtoff/ghost
      stencil: full/ghost/bin/3d
      bin: standard
  (2) fix qeq/reaxff, perpetual, copy from (1)
      attributes: half, newton off
      pair build: copy
      stencil: none
      bin: none
Setting up Verlet run ...
  Unit style    : real
  Current step  : 0
  Time step     : 0.5
Per MPI rank memory allocation (min/avg/max) = 120.3 | 122.7 | 125.3 Mbytes
   Step          Temp          PotEng         Press          Volume           Lx             Ly             Lz      
         0   318.36545     -34412.873     -8999.9276      3436.9359      15.4114        12.7411        17.5034      
       100   297.17932     -34391.158      13218.793      3436.9359      15.4114        12.7411        17.5034      
       200   306.01925     -34388.012     -13224.799      3436.9359      15.4114        12.7411        17.5034      
       300   319.26486     -34383.198     -3230.4723      3436.9359      15.4114        12.7411        17.5034      
       400   286.62084     -34361.111     -15892.715      3436.9359      15.4114        12.7411        17.5034      
       500   316.58318     -34410.766     -4976.2397      3436.9359      15.4114        12.7411        17.5034      
       600   318.57713     -34423.866      2666.6118      3436.9359      15.4114        12.7411        17.5034      
       700   295.52691     -34403.738      3638.9711      3436.9359      15.4114        12.7411        17.5034      
       800   292.41498     -34370.628     -3634.7419      3436.9359      15.4114        12.7411        17.5034      
       900   334.01806     -34380.431      1599.951       3436.9359      15.4114        12.7411        17.5034      
      1000   288.19504     -34362.825      10187.081      3436.9359      15.4114        12.7411        17.5034      
      1100   303.04768     -34398.472     -7488.7409      3436.9359      15.4114        12.7411        17.5034      
      1200   296.03388     -34401.777      5693.2285      3436.9359      15.4114        12.7411        17.5034      
      1300   292.00569     -34401.147     -884.13607      3436.9359      15.4114        12.7411        17.5034      
      1400   302.28553     -34407.523     -7803.5176      3436.9359      15.4114        12.7411        17.5034      
      1500   315.02557     -34392.89       1010.676       3436.9359      15.4114        12.7411        17.5034      
      1600   316.1335      -34379.521      7521.5897      3436.9359      15.4114        12.7411        17.5034      
      1700   288.897       -34377.901     -9163.809       3436.9359      15.4114        12.7411        17.5034      
      1800   307.40918     -34409.99      -2775.0967      3436.9359      15.4114        12.7411        17.5034      
      1900   286.87448     -34394.315      5339.8894      3436.9359      15.4114        12.7411        17.5034      
      2000   297.39347     -34402.731      5089.5839      3436.9359      15.4114        12.7411        17.5034      
      2100   313.95107     -34406.694      4678.4583      3436.9359      15.4114        12.7411        17.5034      
      2200   321.40132     -34379.416     -3171.778       3436.9359      15.4114        12.7411        17.5034      
      2300   315.68734     -34371.26      -781.61133      3436.9359      15.4114        12.7411        17.5034      
      2400   295.72553     -34379.799     -7100.239       3436.9359      15.4114        12.7411        17.5034      
      2500   307.50682     -34400.91      -2492.5148      3436.9359      15.4114        12.7411        17.5034      
      2600   303.83106     -34404.451     -8165.4423      3436.9359      15.4114        12.7411        17.5034      
      2700   300.60405     -34408.632     -3215.3576      3436.9359      15.4114        12.7411        17.5034      
      2800   287.02661     -34409.803     -8812.5703      3436.9359      15.4114        12.7411        17.5034      
      2900   291.37559     -34425.696     -7820.1795      3436.9359      15.4114        12.7411        17.5034      
      3000   281.03251     -34422.078      6481.7592      3436.9359      15.4114        12.7411        17.5034      
      3100   302.86394     -34415.83      -4554.8817      3436.9359      15.4114        12.7411        17.5034      
      3200   292.58632     -34385.039      1378.3503      3436.9359      15.4114        12.7411        17.5034      
      3300   307.4225      -34393.345      9400.3781      3436.9359      15.4114        12.7411        17.5034      
      3400   319.74493     -34421.215      5901.727       3436.9359      15.4114        12.7411        17.5034      
      3500   302.8932      -34432.82      -2595.9925      3436.9359      15.4114        12.7411        17.5034      
      3600   287.53038     -34415.228     -7619.8735      3436.9359      15.4114        12.7411        17.5034      
      3700   308.64872     -34425.921      8763.0618      3436.9359      15.4114        12.7411        17.5034      
      3800   289.48067     -34399.412     -4705.9209      3436.9359      15.4114        12.7411        17.5034      
      3900   288.04023     -34378.957      4819.5559      3436.9359      15.4114        12.7411        17.5034      
      4000   320.14705     -34369.834     -6847.9382      3436.9359      15.4114        12.7411        17.5034      
      4100   318.62238     -34390.282      4372.1012      3436.9359      15.4114        12.7411        17.5034      
      4200   305.01627     -34398.516     -1440.3793      3436.9359      15.4114        12.7411        17.5034      
      4300   305.54393     -34413.023     -8289.1146      3436.9359      15.4114        12.7411        17.5034      
      4400   292.92443     -34411.801     -8765.1834      3436.9359      15.4114        12.7411        17.5034      
      4500   290.55569     -34401.437      62.53811       3436.9359      15.4114        12.7411        17.5034      
      4600   319.38364     -34389.63       115.71017      3436.9359      15.4114        12.7411        17.5034      
      4700   316.79018     -34381.386      3075.0815      3436.9359      15.4114        12.7411        17.5034      
      4800   304.99572     -34391.561      10039.022      3436.9359      15.4114        12.7411        17.5034      
      4900   289.67967     -34393.772     -14669.832      3436.9359      15.4114        12.7411        17.5034      
      5000   293.89069     -34398.597     -1785.9392      3436.9359      15.4114        12.7411        17.5034      
Loop time of 231.109 on 16 procs for 5000 steps with 310 atoms

Performance: 0.935 ns/day, 25.679 hours/ns, 21.635 timesteps/s, 6.707 katom-step/s
99.2% CPU use with 8 MPI tasks x 2 OpenMP threads

MPI task timing breakdown:
Section |  min time  |  avg time  |  max time  |%varavg| %total
---------------------------------------------------------------
Pair    | 164.39     | 173.89     | 177.69     |  29.7 | 75.24
Bond    | 0.0015861  | 0.0019107  | 0.0023118  |   0.6 |  0.00
Neigh   | 12.516     | 12.789     | 12.892     |   3.4 |  5.53
Comm    | 17.703     | 21.418     | 30.985     |  85.3 |  9.27
Output  | 0.028411   | 0.034596   | 0.041551   |   2.4 |  0.01
Modify  | 21.836     | 22.056     | 22.381     |   3.9 |  9.54
Other   |            | 0.9164     |            |       |  0.40

Nlocal:          38.75 ave          49 max          31 min
Histogram: 2 0 0 2 0 2 0 1 0 1
Nghost:        3116.75 ave        3147 max        3097 min
Histogram: 2 2 0 1 0 1 0 0 0 2
Neighs:        24488.4 ave       30510 max       19856 min
Histogram: 2 0 0 2 1 1 0 1 0 1

Total # of neighbors = 195907
Ave neighs/atom = 631.95806
Ave special neighs/atom = 0
Neighbor list builds = 500
Dangerous builds not checked
  using 2 OpenMP thread(s) per MPI task
Reading restart file ...
  restart file = 2 Aug 2023, LAMMPS = 2 Aug 2023
  restoring atom style full from restart
  triclinic box = (0 0 0) to (15.4114 12.7411 17.5034) with tilt (-7.2027 -1.8261 0.3384)
WARNING: Triclinic box skew is large. LAMMPS will run inefficiently. (src/domain.cpp:220)
  2 by 2 by 2 MPI processor grid
  pair style reaxff stores no restart info
  310 atoms
Finding 1-2 1-3 1-4 neighbors ...
  special bond factors lj:    0        0        0       
  special bond factors coul:  0        0        0       
     0 = max # of 1-2 neighbors
     0 = max # of 1-3 neighbors
     0 = max # of 1-4 neighbors
     1 = max # of special neighbors
  special bonds CPU = 0.000 seconds
  read_restart CPU = 0.003 seconds
*****Positive-deform 4 starts.*****
Resetting global fix info from restart file:
  fix style: nvt, fix ID: fnvt
All restart file global fix info was re-assigned
Neighbor list info ...
  update: every = 10 steps, delay = 0 steps, check = no
  max neighbors/atom: 2000, page size: 100000
  master list distance cutoff = 12
  ghost atom cutoff = 12
  binsize = 6, bins = 5 3 3
  2 neighbor lists, perpetual/occasional/extra = 2 0 0
  (1) pair reaxff, perpetual
      attributes: half, newton off, ghost
      pair build: half/bin/newtoff/ghost
      stencil: full/ghost/bin/3d
      bin: standard
  (2) fix qeq/reaxff, perpetual, copy from (1)
      attributes: half, newton off
      pair build: copy
      stencil: none
      bin: none
Setting up Verlet run ...
  Unit style    : real
  Current step  : 0
  Time step     : 0.5
Per MPI rank memory allocation (min/avg/max) = 120.3 | 122.7 | 125.3 Mbytes
   Step          Temp          PotEng         Press          Volume           Lx             Ly             Lz      
         0   318.36545     -34412.873     -8999.9276      3436.9359      15.4114        12.7411        17.5034      
       100   297.15047     -34391.173      13211.842      3436.9359      15.4114        12.7411        17.5034      
       200   304.88331     -34385.794     -13558.765      3436.9359      15.4114        12.7411        17.5034      
       300   320.97872     -34381.947      162.61107      3436.9359      15.4114        12.7411        17.5034      
       400   306.73884     -34375.682     -3822.1771      3436.9359      15.4114        12.7411        17.5034      
       500   302.24401     -34390.542     -1149.1629      3436.9359      15.4114        12.7411        17.5034      
       600   288.69931     -34396.451     -86.466767      3436.9359      15.4114        12.7411        17.5034      
       700   307.00313     -34417.064      4432.2971      3436.9359      15.4114        12.7411        17.5034      
       800   281.44952     -34384.054     -4033.6643      3436.9359      15.4114        12.7411        17.5034      
       900   305.37055     -34375.581      1508.4662      3436.9359      15.4114        12.7411        17.5034      
      1000   317.80918     -34381.655     -1359.6821      3436.9359      15.4114        12.7411        17.5034      
      1100   293.82853     -34381.364      276.93946      3436.9359      15.4114        12.7411        17.5034      
      1200   288.93093     -34389.428     -372.24323      3436.9359      15.4114        12.7411        17.5034      
      1300   305.29812     -34396.355      7937.7117      3436.9359      15.4114        12.7411        17.5034      
      1400   303.53099     -34372.3       -4885.4271      3436.9359      15.4114        12.7411        17.5034      
      1500   318.77117     -34380.993      2821.4824      3436.9359      15.4114        12.7411        17.5034      
      1600   304.24373     -34375.514     -383.99702      3436.9359      15.4114        12.7411        17.5034      
      1700   290.01705     -34375.106     -2896.2328      3436.9359      15.4114        12.7411        17.5034      
      1800   306.88992     -34395.742     -3122.8806      3436.9359      15.4114        12.7411        17.5034      
      1900   316.31887     -34389.162     -3180.7628      3436.9359      15.4114        12.7411        17.5034      
      2000   312.59922     -34353.043     -7620.242       3436.9359      15.4114        12.7411        17.5034      
      2100   338.77428     -34377.677      1957.5918      3436.9359      15.4114        12.7411        17.5034      
      2200   326.5414      -34392.066      7118.0701      3436.9359      15.4114        12.7411        17.5034      
      2300   304.1365      -34384.675      11208.83       3436.9359      15.4114        12.7411        17.5034      
      2400   296.85379     -34379.538     -6253.9488      3436.9359      15.4114        12.7411        17.5034      
      2500   299.21235     -34391.099     -884.22614      3436.9359      15.4114        12.7411        17.5034      
      2600   281.51491     -34390.165     -13127.148      3436.9359      15.4114        12.7411        17.5034      
      2700   292.10926     -34389.661      8465.8254      3436.9359      15.4114        12.7411        17.5034      
      2800   301.7439      -34370.318      19774.43       3436.9359      15.4114        12.7411        17.5034      
      2900   302.36048     -34366.695      9707.5303      3436.9359      15.4114        12.7411        17.5034      
      3000   291.92172     -34378.941      8929.0804      3436.9359      15.4114        12.7411        17.5034      
      3100   279.45556     -34387.576      612.17573      3436.9359      15.4114        12.7411        17.5034      
      3200   297.1435      -34397.188      6364.6425      3436.9359      15.4114        12.7411        17.5034      
      3300   314.23324     -34378.401     -5786.7703      3436.9359      15.4114        12.7411        17.5034      
      3400   297.63994     -34339.92       462.78419      3436.9359      15.4114        12.7411        17.5034      
      3500   338.41573     -34390.183      3221.6846      3436.9359      15.4114        12.7411        17.5034      
      3600   295.93681     -34378.456     -3421.7111      3436.9359      15.4114        12.7411        17.5034      
[...]
      4600   293.81585     -34416.29       2256.8158      3436.9359      15.4114        12.7411        17.5034      
      4700   288.06958     -34420.938      1258.3031      3436.9359      15.4114        12.7411        17.5034      
      4800   294.51916     -34425.394     -810.80788      3436.9359      15.4114        12.7411        17.5034      
      4900   302.17804     -34414.009     -11847.556      3436.9359      15.4114        12.7411        17.5034      
      5000   319.18869     -34418.228     -4252.4415      3436.9359      15.4114        12.7411        17.5034      
Loop time of 231.332 on 16 procs for 5000 steps with 310 atoms

Performance: 0.934 ns/day, 25.704 hours/ns, 21.614 timesteps/s, 6.700 katom-step/s
99.1% CPU use with 8 MPI tasks x 2 OpenMP threads

MPI task timing breakdown:
Section |  min time  |  avg time  |  max time  |%varavg| %total
---------------------------------------------------------------
Pair    | 163.85     | 173.46     | 179.16     |  38.1 | 74.98
Bond    | 0.0017084  | 0.0019641  | 0.0022809  |   0.5 |  0.00
Neigh   | 13.245     | 13.871     | 14.486     |  10.2 |  6.00
Comm    | 15.663     | 21.353     | 31.064     | 108.1 |  9.23
Output  | 0.028945   | 0.03354    | 0.037766   |   1.7 |  0.01
Modify  | 20.993     | 21.686     | 22.417     |   9.5 |  9.37
Other   |            | 0.9279     |            |       |  0.40

Nlocal:          38.75 ave          48 max          35 min
Histogram: 2 2 1 1 1 0 0 0 0 1
Nghost:        3079.25 ave        3153 max        2992 min
Histogram: 1 0 2 0 1 0 1 0 1 2
Neighs:        24475.6 ave       29858 max       22078 min
Histogram: 2 1 2 1 1 0 0 0 0 1

Total # of neighbors = 195805
Ave neighs/atom = 631.62903
Ave special neighs/atom = 0
Neighbor list builds = 500
Dangerous builds not checked
  using 2 OpenMP thread(s) per MPI task
Reading restart file ...
  restart file = 2 Aug 2023, LAMMPS = 2 Aug 2023
  restoring atom style full from restart
  triclinic box = (0 0 0) to (15.4114 12.7411 17.5034) with tilt (-7.2027 -1.8261 0.3384)
WARNING: Triclinic box skew is large. LAMMPS will run inefficiently. (src/domain.cpp:220)
  2 by 2 by 2 MPI processor grid
  pair style reaxff stores no restart info
  310 atoms
Finding 1-2 1-3 1-4 neighbors ...
  special bond factors lj:    0        0        0       
  special bond factors coul:  0        0        0       
     0 = max # of 1-2 neighbors
     0 = max # of 1-3 neighbors
     0 = max # of 1-4 neighbors
     1 = max # of special neighbors
  special bonds CPU = 0.000 seconds
  read_restart CPU = 0.003 seconds
*****debug*****
xy = -7.2027000000000001023, deltaxy = 0.72027
xz = -1.8261000000000000565, deltaxz = 0.18261
yz = 0.33839999999999997859, deltayz = -0.03384
*****
*****Negative-deform 6 starts.*****
Resetting global fix info from restart file:
  fix style: nvt, fix ID: fnvt
All restart file global fix info was re-assigned
Neighbor list info ...
  update: every = 10 steps, delay = 0 steps, check = no
  max neighbors/atom: 2000, page size: 100000
  master list distance cutoff = 12
  ghost atom cutoff = 12
  binsize = 6, bins = 5 3 3
  2 neighbor lists, perpetual/occasional/extra = 2 0 0
  (1) pair reaxff, perpetual
      attributes: half, newton off, ghost
      pair build: half/bin/newtoff/ghost
      stencil: full/ghost/bin/3d
      bin: standard
  (2) fix qeq/reaxff, perpetual, copy from (1)
      attributes: half, newton off
      pair build: copy
      stencil: none
      bin: none
Setting up Verlet run ...
  Unit style    : real
  Current step  : 0
  Time step     : 0.5
Per MPI rank memory allocation (min/avg/max) = 120.3 | 122.7 | 125.3 Mbytes
   Step          Temp          PotEng         Press          Volume           Lx             Ly             Lz      
         0   318.36545     -34412.873     -8999.9276      3436.9359      15.4114        12.7411        17.5034      
       100   296.47644     -34390.897      12968.339      3436.9359      15.4114        12.7411        17.5034      
       200   304.10327     -34382.688     -18506.482      3436.9359      15.4114        12.7411        17.5034      
       300   307.72656     -34370.8       -2483.4483      3436.9359      15.4114        12.7411        17.5034      
       400   296.1946      -34370.907     -9471.5209      3436.9359      15.4114        12.7411        17.5034      
       500   298.87176     -34386.56      -1148.7766      3436.9359      15.4114        12.7411        17.5034      
       600   304.25201     -34398.176     -16498.086      3436.9359      15.4114        12.7411        17.5034      
       700   294.15471     -34397.556      1675.1584      3436.9359      15.4114        12.7411        17.5034      
       800   300.6991      -34409.026     -3581.0157      3436.9359      15.4114        12.7411        17.5034      
       900   297.71895     -34414.124      2523.0535      3436.9359      15.4114        12.7411        17.5034      
      1000   308.72855     -34410.437     -2975.4952      3436.9359      15.4114        12.7411        17.5034      
      1100   294.04615     -34374.961      14027.518      3436.9359      15.4114        12.7411        17.5034      
      1200   292.07967     -34356.627     -8849.5795      3436.9359      15.4114        12.7411        17.5034      
      1300   297.83684     -34375.235      3032.6011      3436.9359      15.4114        12.7411        17.5034      
      1400   294.91402     -34399.881     -9200.9751      3436.9359      15.4114        12.7411        17.5034      
      1500   293.74601     -34392.971      854.9119       3436.9359      15.4114        12.7411        17.5034      
      1600   281.99276     -34367.796      1167.5894      3436.9359      15.4114        12.7411        17.5034      
      1700   311.91865     -34385.043     -5073.6027      3436.9359      15.4114        12.7411        17.5034      
      1800   300.54778     -34380.957     -20844.954      3436.9359      15.4114        12.7411        17.5034      
      1900   302.82898     -34398.193      9234.1789      3436.9359      15.4114        12.7411        17.5034      
      2000   293.58909     -34393.895      6139.3565      3436.9359      15.4114        12.7411        17.5034      
      2100   296.59481     -34387.586     -3646.0559      3436.9359      15.4114        12.7411        17.5034      
      2200   324.33877     -34382.086     -15101.859      3436.9359      15.4114        12.7411        17.5034      
      2300   323.48014     -34368.692      3650.9731      3436.9359      15.4114        12.7411        17.5034      
      2400   302.20846     -34378.921      3100.384       3436.9359      15.4114        12.7411        17.5034      
      2500   299.39665     -34387.803     -10374.157      3436.9359      15.4114        12.7411        17.5034      
      2600   291.86331     -34373.858     -8659.0929      3436.9359      15.4114        12.7411        17.5034      
      2700   300.28138     -34359.542      2651.5718      3436.9359      15.4114        12.7411        17.5034      
      2800   312.26381     -34349.67      -1385.9038      3436.9359      15.4114        12.7411        17.5034      
      2900   288.05663     -34362.655      878.47363      3436.9359      15.4114        12.7411        17.5034      
      3000   297.5845      -34380.302      6618.3291      3436.9359      15.4114        12.7411        17.5034      
      3100   306.77112     -34396.652     -8358.6302      3436.9359      15.4114        12.7411        17.5034      
      3200   286.60293     -34377.031      309.45692      3436.9359      15.4114        12.7411        17.5034      
      3300   293.94756     -34379.716     -4942.3874      3436.9359      15.4114        12.7411        17.5034      
      3400   290.61158     -34391.097     -1157.2696      3436.9359      15.4114        12.7411        17.5034      
      3500   286.76774     -34398.755     -6062.5636      3436.9359      15.4114        12.7411        17.5034      
      3600   313.32149     -34412.302     -5934.6284      3436.9359      15.4114        12.7411        17.5034      
      3700   285.93963     -34352.555      4187.7067      3436.9359      15.4114        12.7411        17.5034      
      3800   317.68198     -34362.665     -10389.173      3436.9359      15.4114        12.7411        17.5034      
      3900   310.98905     -34372.149     -14438.001      3436.9359      15.4114        12.7411        17.5034      
      4000   309.55316     -34387.794     -1129.2907      3436.9359      15.4114        12.7411        17.5034      
      4100   305.15303     -34394.32      -672.26686      3436.9359      15.4114        12.7411        17.5034      
      4200   302.76467     -34401.608     -19678.007      3436.9359      15.4114        12.7411        17.5034      
      4300   291.29474     -34381.088     -2958.593       3436.9359      15.4114        12.7411        17.5034      
      4400   339.08611     -34388.87       1066.7559      3436.9359      15.4114        12.7411        17.5034      
      4500   320.73663     -34357.755     -114.45779      3436.9359      15.4114        12.7411        17.5034      
      4600   309.9084      -34388.323      11311.269      3436.9359      15.4114        12.7411        17.5034      
      4700   286.71418     -34376.556     -9939.2218      3436.9359      15.4114        12.7411        17.5034      
      4800   309.66858     -34391.198     -4391.9653      3436.9359      15.4114        12.7411        17.5034      
      4900   325.69857     -34395.91      -3496.6561      3436.9359      15.4114        12.7411        17.5034      
      5000   295.34269     -34377.52       12600.358      3436.9359      15.4114        12.7411        17.5034      
Loop time of 236.939 on 16 procs for 5000 steps with 310 atoms

Performance: 0.912 ns/day, 26.327 hours/ns, 21.103 timesteps/s, 6.542 katom-step/s
99.1% CPU use with 8 MPI tasks x 2 OpenMP threads

MPI task timing breakdown:
Section |  min time  |  avg time  |  max time  |%varavg| %total
---------------------------------------------------------------
Pair    | 171.86     | 178.62     | 184.34     |  26.4 | 75.39
Bond    | 0.0016297  | 0.0019644  | 0.0023995  |   0.6 |  0.00
Neigh   | 13.186     | 13.471     | 13.839     |   5.9 |  5.69
Comm    | 16.153     | 21.761     | 28.611     |  75.5 |  9.18
Output  | 0.028444   | 0.033182   | 0.037329   |   1.7 |  0.01
Modify  | 21.498     | 22.044     | 22.381     |   6.6 |  9.30
Other   |            | 1.008      |            |       |  0.43

Nlocal:          38.75 ave          42 max          34 min
Histogram: 1 0 0 2 0 1 0 1 2 1
Nghost:        3222.62 ave        3259 max        3183 min
Histogram: 1 1 0 0 1 1 2 1 0 1
Neighs:        24510.1 ave       26424 max       21708 min
Histogram: 1 0 0 2 1 0 0 1 1 2

Total # of neighbors = 196081
Ave neighs/atom = 632.51935
Ave special neighs/atom = 0
Neighbor list builds = 500
Dangerous builds not checked
  using 2 OpenMP thread(s) per MPI task
Reading restart file ...
  restart file = 2 Aug 2023, LAMMPS = 2 Aug 2023
  restoring atom style full from restart
  triclinic box = (0 0 0) to (15.4114 12.7411 17.5034) with tilt (-7.2027 -1.8261 0.3384)
WARNING: Triclinic box skew is large. LAMMPS will run inefficiently. (src/domain.cpp:220)
  2 by 2 by 2 MPI processor grid
  pair style reaxff stores no restart info
  310 atoms
Finding 1-2 1-3 1-4 neighbors ...
  special bond factors lj:    0        0        0       
  special bond factors coul:  0        0        0       
     0 = max # of 1-2 neighbors
     0 = max # of 1-3 neighbors
     0 = max # of 1-4 neighbors
     1 = max # of special neighbors
  special bonds CPU = 0.000 seconds
  read_restart CPU = 0.003 seconds
*****Positive-deform 6 starts.*****
Resetting global fix info from restart file:
  fix style: nvt, fix ID: fnvt
All restart file global fix info was re-assigned
Neighbor list info ...
  update: every = 10 steps, delay = 0 steps, check = no
  max neighbors/atom: 2000, page size: 100000
  master list distance cutoff = 12
  ghost atom cutoff = 12
  binsize = 6, bins = 5 3 3
  2 neighbor lists, perpetual/occasional/extra = 2 0 0
  (1) pair reaxff, perpetual
      attributes: half, newton off, ghost
      pair build: half/bin/newtoff/ghost
      stencil: full/ghost/bin/3d
      bin: standard
  (2) fix qeq/reaxff, perpetual, copy from (1)
      attributes: half, newton off
      pair build: copy
      stencil: none
      bin: none
Setting up Verlet run ...
  Unit style    : real
  Current step  : 0
  Time step     : 0.5
Per MPI rank memory allocation (min/avg/max) = 120.3 | 122.7 | 125.3 Mbytes
   Step          Temp          PotEng         Press          Volume           Lx             Ly             Lz      
         0   318.36545     -34412.873     -8999.9276      3436.9359      15.4114        12.7411        17.5034      
       100   297.48655     -34391.278      13477.907      3436.9359      15.4114        12.7411        17.5034      
       200   292.93755     -34377.2       -11240.247      3436.9359      15.4114        12.7411        17.5034      
       300   310.89119     -34389.236      11006.677      3436.9359      15.4114        12.7411        17.5034      
       400   287.0539      -34379.207      2261.3507      3436.9359      15.4114        12.7411        17.5034      
       500   293.46886     -34396.933     -5693.1687      3436.9359      15.4114        12.7411        17.5034      
       600   288.87603     -34389.996     -1450.4525      3436.9359      15.4114        12.7411        17.5034      
       700   291.98838     -34390.57      -6574.379       3436.9359      15.4114        12.7411        17.5034      
       800   305.25147     -34394.071     -13957.631      3436.9359      15.4114        12.7411        17.5034      
       900   306.0696      -34380.115     -1506.4904      3436.9359      15.4114        12.7411        17.5034      
      1000   319.36463     -34393.612      18201.047      3436.9359      15.4114        12.7411        17.5034      
      1100   287.98844     -34395.461      4875.379       3436.9359      15.4114        12.7411        17.5034      
      1200   279.48944     -34391.484     -8974.2456      3436.9359      15.4114        12.7411        17.5034      
      1300   318.76549     -34409.367     -4193.1479      3436.9359      15.4114        12.7411        17.5034      
      1400   296.91016     -34384.748      1896.5523      3436.9359      15.4114        12.7411        17.5034      
      1500   293.0913      -34390.425     -10007.121      3436.9359      15.4114        12.7411        17.5034      
      1600   313.21278     -34410.538      4380.1703      3436.9359      15.4114        12.7411        17.5034      
      1700   295.43873     -34399.327     -11049.264      3436.9359      15.4114        12.7411        17.5034      
      1800   275.07663     -34372.521      7548.3344      3436.9359      15.4114        12.7411        17.5034      
      1900   316.16312     -34375.03       6948.3333      3436.9359      15.4114        12.7411        17.5034      
      2000   322.9368      -34379.77       2856.9936      3436.9359      15.4114        12.7411        17.5034      
      2100   296.75299     -34371.572     -4381.6789      3436.9359      15.4114        12.7411        17.5034      
      2200   319.75771     -34402.256      1962.3141      3436.9359      15.4114        12.7411        17.5034      
      2300   292.15562     -34381.457     -12440.535      3436.9359      15.4114        12.7411        17.5034      
      2400   283.86634     -34372.349      6689.6188      3436.9359      15.4114        12.7411        17.5034      
      2500   313.25141     -34382.183      42.784997      3436.9359      15.4114        12.7411        17.5034      
      2600   323.96441     -34360.908      1794.7085      3436.9359      15.4114        12.7411        17.5034      
      2700   314.29526     -34363.771     -8867.8262      3436.9359      15.4114        12.7411        17.5034      
      2800   275.20721     -34354.755     -6793.4255      3436.9359      15.4114        12.7411        17.5034      
      2900   293.30675     -34370.189     -4884.7242      3436.9359      15.4114        12.7411        17.5034      
      3000   276.3908      -34368.364      81.229132      3436.9359      15.4114        12.7411        17.5034      
      3100   286.00877     -34374.74      -9495.4008      3436.9359      15.4114        12.7411        17.5034      
      3200   309.31879     -34363.928     -10330.992      3436.9359      15.4114        12.7411        17.5034      
      3300   336.50956     -34361.824      14196.661      3436.9359      15.4114        12.7411        17.5034      
      3400   325.31002     -34362.522     -5696.4545      3436.9359      15.4114        12.7411        17.5034      
      3500   306.69412     -34378.767      1479.3822      3436.9359      15.4114        12.7411        17.5034      
      3600   280.54673     -34370.76       3654.0562      3436.9359      15.4114        12.7411        17.5034      
      3700   277.51786     -34379.704     -6112.886       3436.9359      15.4114        12.7411        17.5034      
      3800   286.85654     -34392.245     -12253.807      3436.9359      15.4114        12.7411        17.5034      
      3900   299.24077     -34381.566      10444.356      3436.9359      15.4114        12.7411        17.5034      
      4000   314.11794     -34359.112      3488.4571      3436.9359      15.4114        12.7411        17.5034      
      4100   323.63054     -34371.675      2153.5072      3436.9359      15.4114        12.7411        17.5034      
      4200   303.20369     -34374.785      4956.8802      3436.9359      15.4114        12.7411        17.5034      
      4300   287.79451     -34364.045     -2463.5827      3436.9359      15.4114        12.7411        17.5034      
      4400   294.57118     -34375.207      4168.0907      3436.9359      15.4114        12.7411        17.5034      
      4500   308.59651     -34394.929     -5108.6059      3436.9359      15.4114        12.7411        17.5034      
      4600   287.59796     -34396.661      2592.802       3436.9359      15.4114        12.7411        17.5034      
      4700   273.31237     -34385.586     -4091.2274      3436.9359      15.4114        12.7411        17.5034      
      4800   309.21525     -34376.15       8042.1274      3436.9359      15.4114        12.7411        17.5034      
      4900   315.92402     -34363.805     -3555.9575      3436.9359      15.4114        12.7411        17.5034      
      5000   313.09862     -34372.032      17901.119      3436.9359      15.4114        12.7411        17.5034      
Loop time of 228.994 on 16 procs for 5000 steps with 310 atoms

Performance: 0.943 ns/day, 25.444 hours/ns, 21.835 timesteps/s, 6.769 katom-step/s
99.1% CPU use with 8 MPI tasks x 2 OpenMP threads

MPI task timing breakdown:
Section |  min time  |  avg time  |  max time  |%varavg| %total
---------------------------------------------------------------
Pair    | 162.29     | 170.96     | 175.4      |  34.1 | 74.66
Bond    | 0.0015983  | 0.0019104  | 0.0022619  |   0.5 |  0.00
Neigh   | 13.412     | 13.798     | 14.535     |   8.7 |  6.03
Comm    | 17.108     | 21.54      | 30.312     |  96.2 |  9.41
Output  | 0.039476   | 0.046141   | 0.051557   |   2.0 |  0.02
Modify  | 20.893     | 21.684     | 22.127     |   7.6 |  9.47
Other   |            | 0.9634     |            |       |  0.42

Nlocal:          38.75 ave          46 max          34 min
Histogram: 2 1 1 0 1 1 0 1 0 1
Nghost:         2950.5 ave        3049 max        2838 min
Histogram: 1 1 0 0 2 1 0 1 1 1
Neighs:        24486.9 ave       28576 max       21690 min
Histogram: 2 1 1 0 1 1 0 1 0 1

Total # of neighbors = 195895
Ave neighs/atom = 631.91935
Ave special neighs/atom = 0
Neighbor list builds = 500
Dangerous builds not checked
Total wall time: 0:50:29
