ITEM: TIMESTEP
0
ITEM: NUMBER OF ATOMS
365
ITEM: BOX BOUNDS xy xz yz pp pp pp
-7.4652760996916232e+00 1.6040662211718338e+01 -7.6099687619442680e+00
5.8858058857213180e-02 1.3908835344166008e+01 8.6815487397089119e-01
-2.9541532330329190e-01 1.8617615323303564e+01 1.2139340302329137e-01
ITEM: ATOMS id type x y z
127 2 -2.89937 6.37154 4.39675
142 2 4.04876 0.314778 3.06536
320 2 -1.3611 6.10957 2.82473
318 1 -0.775091 5.2352 2.10499
319 2 -1.29997 4.2542 2.19252
351 2 0.286818 5.08662 2.43261
201 3 0.714367 1.52656 5.13579
9 2 0.0147636 3.88725 0.884025
102 2 -0.852393 5.60413 1.03673
231 3 0.642206 5.78076 8.694
30 4 3.72205 2.53686 3.78856
74 1 3.10419 0.98209 2.89029
107 2 3.72517 5.66912 0.801319
156 2 1.62749 6.02787 0.0465389
143 2 2.14146 0.60109 3.40765
144 2 2.96876 1.19144 1.78615
219 3 3.12044 2.56994 5.3842
226 3 3.51376 3.942 2.87994
109 2 2.76194 6.19421 4.51869
153 2 3.04632 4.83213 5.54587
202 3 2.07831 1.16657 7.42338
31 4 5.88187 2.44627 0.504903
37 4 4.60091 4.83198 2.04721
220 3 5.88817 1.04903 1.40793
145 2 5.43834 2.24563 3.91531
204 3 -0.435786 3.05043 8.94502
146 2 6.86267 1.62215 4.69826
29 4 6.93099 0.15621 2.27996
322 2 -2.49045 6.54452 0.560255
313 2 -1.11759 5.51751 5.94898
16 4 0.101131 4.16471 7.83653
69 1 -1.48192 4.72295 6.9427
8 2 0.40945 1.44207 0.272605
171 2 5.63532 2.56078 6.0181
151 2 1.99542 5.95445 6.41935
108 2 3.28797 5.11223 7.44005
205 3 1.11427 3.69254 6.76322
77 1 3.00308 5.53508 6.36741
11 4 3.21603 0.606884 8.49747
13 4 1.73594 2.15562 6.2254
129 2 -2.14926 5.18284 7.74065
12 4 -0.012529 2.18649 10.1938
203 3 0.869561 3.02652 11.2892
33 4 4.08097 2.9809 10.0725
103 2 2.5103 3.20909 10.5133
238 3 2.47205 6.69062 11.8854
357 2 6.37272 1.22844 14.6262
125 2 2.12545 5.44276 12.3905
225 3 4.91127 2.82081 11.3572
105 2 7.12233 1.51213 12.1287
92 1 0.97479 0.360689 15.3674
19 4 -0.284929 5.5386 14.4161
209 3 -1.04535 6.58942 13.4067
97 2 -1.31168 5.29186 15.8335
10 3 0.0103928 3.2507 17.6037
363 2 1.5491 1.20456 15.9122
345 2 0.976228 0.970994 9.58647
206 3 0.0794993 4.08436 13.7657
7 4 1.26 3.07382 18.4426
123 2 2.82901 1.96756 12.3549
104 2 1.89768 1.63258 14.0662
14 4 1.31203 3.74455 12.713
124 2 3.2951 3.14227 13.75
236 3 1.09523 6.18963 15.0464
67 1 2.49746 2.46685 13.3069
76 1 3.75593 1.71867 16.1796
150 2 3.01357 1.21307 16.8328
224 3 2.79381 3.38845 17.9472
239 3 4.19988 5.5314 13.9142
149 2 3.30796 1.95042 15.0779
110 2 2.53513 6.01271 17.1723
154 2 4.67463 5.91287 17.91
36 4 5.81293 2.58781 12.6778
223 3 5.42914 2.64186 18.1913
82 1 6.46789 0.647434 13.6729
358 2 4.85678 1.67734 13.8304
35 4 4.26635 3.18588 17.2628
42 4 5.42436 4.97938 14.7261
148 2 4.75495 1.12455 16.2343
234 3 4.85473 4.0826 16.0208
78 1 4.00874 6.83028 18.1949
44 4 4.1265 6.89451 13.0148
229 3 4.40266 4.40754 9.20336
207 3 -2.30727 6.05221 16.7459
169 2 7.5141 0.418195 16.1468
221 3 4.19133 1.69189 9.17641
99 2 4.128 0.514221 18.5767
245 3 -1.16069 10.2917 8.335
131 2 -2.79091 8.48962 4.53286
323 2 -2.36037 8.86521 0.265134
157 2 -1.60172 9.98154 4.65209
325 2 -3.00865 11.3789 0.821087
354 2 -4.9851 13.3027 5.01768
324 1 -4.58662 12.436 0.547472
348 2 -5.68615 12.0602 0.328829
285 4 -4.29384 10.4794 1.64152
98 2 -3.15187 9.13043 1.86666
307 3 -4.6976 11.0842 3.06247
242 3 -2.33436 12.0918 5.85099
326 2 -4.55425 13.2349 1.38518
347 2 -4.18913 8.15367 -0.220058
321 1 -3.13991 8.01529 0.362362
68 1 -2.3498 7.40076 4.04949
289 4 -5.6491 11.571 4.34058
18 4 -1.02852 7.289 5.39889
241 3 -1.34678 13.371 3.65029
46 4 -1.07483 12.2465 4.8178
79 1 -0.835616 10.5327 3.99221
158 2 0.23387 10.129 4.13437
159 2 -1.16296 10.5437 2.97026
337 2 0.510872 11.0781 2.6019
112 2 -0.266135 12.5152 1.31084
247 3 0.462423 12.3804 5.59282
228 3 0.355969 7.47712 4.58312
38 4 1.82602 7.5454 3.95128
45 4 2.07406 7.72051 0.75685
243 3 1.25308 9.02361 0.204661
240 3 1.85658 7.38692 2.33768
291 1 2.12083 9.38608 4.17984
162 2 0.931686 9.88743 8.88072
126 2 -2.28096 7.36797 2.85111
161 2 0.262803 8.33907 8.28669
47 4 1.18994 10.7576 -0.00323037
70 1 -5.11523 12.022 6.14019
23 4 -2.33677 9.20451 7.79193
25 4 -3.45567 11.8106 6.95573
298 2 1.87702 10.1387 3.25055
211 3 -1.62554 8.30738 6.52838
213 3 -3.72906 9.9991 7.425
214 3 -3.65774 12.9245 8.06042
299 2 1.57347 9.59428 5.09878
244 3 3.16919 8.28501 6.83725
133 2 -5.93307 12.3947 6.81567
246 3 -0.34539 12.9486 9.04413
210 3 -2.79856 8.11757 9.07056
335 1 1.39223 11.5099 1.79944
208 3 -2.42682 8.00604 11.6981
24 4 -5.17603 12.6085 11.3353
114 2 -2.40178 11.8178 10.5366
217 3 -3.95629 12.8722 12.4718
17 4 -3.35377 7.56991 10.5071
328 1 -4.6628 10.9696 10.5442
329 2 -3.83365 10.2969 10.8738
164 2 -1.61453 10.6017 11.6254
356 2 -1.48401 13.3938 12.074
21 4 -0.935734 7.73873 12.2992
49 4 -1.06257 11.6225 9.44548
232 3 -0.0176843 7.47803 10.9811
163 2 0.167449 10.2848 10.8347
81 1 -0.703506 11.1078 11.2231
165 2 -0.216194 11.9143 11.9177
237 3 0.161811 7.15582 17.2063
160 2 2.44332 7.39654 9.70965
343 2 -6.04696 12.9613 18.0555
113 2 2.4009 9.54657 10.1053
253 3 0.687089 11.3199 18.3552
360 2 0.717709 12.8985 15.0277
106 2 -0.240093 13.7074 13.7458
352 2 -2.16601 8.67121 17.4468
28 4 -2.61688 12.7015 13.2783
22 4 -3.2718 12.728 17.6661
72 1 -2.74563 8.97307 14.7113
137 2 -3.51585 9.73721 15.0548
138 2 -2.42598 8.20805 15.47
139 2 -3.10271 8.52022 13.7411
216 3 -4.38398 12.5019 16.619
218 3 -1.97646 11.2006 13.6339
15 4 -1.35582 7.08641 17.5998
40 4 0.658181 7.21248 9.62876
26 4 -1.17074 10.0106 14.3008
254 3 -1.7006 12.3206 17.447
52 4 -0.238339 11.801 16.9556
215 3 -0.34879 9.25146 13.1665
252 3 -0.441884 10.5674 15.6964
100 2 -5.46363 13.4804 14.1238
84 1 0.606194 13.2764 16.0982
115 2 2.07267 10.3701 14.0028
330 2 -4.4836 11.4431 9.46752
250 3 2.23758 8.39492 15.8365
111 2 3.66978 7.39967 17.2748
96 2 1.86725 7.16495 12.5895
27 4 -5.58092 12.2766 15.5511
101 2 -2.66549 13.6506 14.6857
212 3 -5.31219 13.8045 10.0605
43 4 1.53208 7.08892 16.2808
80 1 1.77251 9.11769 9.18969
51 4 3.27455 9.28275 14.9115
128 2 13.1521 3.76701 6.50042
260 3 5.18983 5.96049 2.90796
75 1 7.13125 2.73809 4.73733
170 2 6.67235 3.58463 3.93607
266 3 7.21534 6.53341 4.65363
255 3 8.36062 0.980975 2.62443
147 2 8.41872 3.4806 5.76743
187 2 10.3269 6.64887 8.33228
53 4 8.5673 2.46425 3.38813
263 3 8.4611 5.57954 0.439588
258 3 8.80259 3.74346 2.55021
55 4 9.31744 5.01917 1.61028
172 2 9.87772 2.23996 4.5292
181 2 9.49555 4.8168 4.97201
59 4 8.55075 6.28424 5.44591
256 3 11.7361 3.82022 4.309
1 4 14.3675 0.726617 4.8179
85 1 10.9915 3.69324 5.14595
340 2 10.5417 2.04474 1.50767
339 1 11.2439 0.380211 2.15115
88 1 9.92931 6.56467 2.51822
341 2 11.8529 1.32363 2.66467
259 3 10.9499 4.25324 0.810786
308 4 10.784 0.997663 0.10719
178 2 10.3303 6.16159 3.50302
350 2 11.5448 4.86753 1.34688
316 2 11.405 2.14688 8.54558
90 1 11.4767 3.16408 8.89655
332 2 8.29499 2.40015 0.55921
34 4 7.07792 2.9595 6.95773
39 4 5.71984 5.20514 8.7326
230 3 6.6804 4.27812 7.7481
233 3 5.3264 6.56959 7.77836
222 3 7.48487 1.6388 7.76247
189 2 8.34062 6.31537 7.25871
32 4 8.30511 0.525015 8.53762
91 1 9.30986 6.85356 8.54654
56 4 5.77977 6.93535 3.98276
3 2 12.8447 1.30724 5.93277
130 2 12.2481 3.72712 8.21237
186 2 10.0521 3.85745 8.60339
227 3 5.83717 3.86445 1.42594
167 2 11.2622 0.131007 5.75219
264 3 6.59862 5.81042 9.91728
73 1 9.1134 1.28535 10.1014
119 2 9.69058 3.88378 11.4946
314 2 9.18976 2.29522 11.8805
355 2 10.0424 2.0165 9.69113
331 1 8.49352 2.56958 18.5566
257 3 13.8184 1.41901 10.9153
310 4 10.9303 4.37412 10.3357
270 3 7.40507 6.75577 17.4528
317 3 11.4005 5.85984 10.3379
184 2 12.1126 3.07427 10.5736
140 2 8.16821 1.88341 10.4846
54 4 13.0276 0.957656 12.204
269 3 6.28888 6.21179 15.2525
364 2 15.2579 0.496149 17.9587
362 2 14.2985 0.283966 13.3053
312 2 8.22235 3.29691 13.2874
333 2 8.57204 3.57938 18.0194
309 2 10.07 1.42693 18.43
334 2 8.70219 1.70755 17.8775
311 1 9.22633 2.83927 12.9998
120 2 9.98632 6.21251 12.6565
117 2 9.49473 1.54673 14.1366
57 4 9.02421 6.58239 17.7742
262 3 9.81379 5.61958 16.8065
134 2 9.76992 6.17472 14.4677
141 2 9.49571 0.46564 10.7639
346 2 12.7304 4.34252 18.4062
284 2 12.8942 3.40833 16.0039
283 4 13.4296 3.05109 17.5749
315 2 10.3733 4.1578 13.0182
365 3 12.8523 1.66149 18.0983
20 4 11.0944 5.09076 16.0319
60 4 10.9668 2.70751 13.8423
267 3 12.045 1.84887 13.0871
268 3 11.3881 3.62745 15.5508
71 1 10.9275 6.03284 14.4362
135 2 11.3734 5.34835 13.6155
190 2 15.0497 0.728516 14.9165
235 3 6.36228 3.96122 13.5185
188 2 8.98576 6.41217 9.51993
304 3 9.46072 9.79235 0.924326
361 2 2.83084 13.593 2.84998
155 2 3.86553 7.89569 0.451603
83 1 3.30988 12.8111 5.36142
349 2 3.37068 13.0385 0.560865
180 2 10.7269 7.14972 1.73394
338 2 1.4177 12.61 1.67384
152 2 4.0424 11.9296 3.7278
301 2 3.28169 9.25713 4.37969
166 2 4.13584 12.0047 5.46097
168 2 2.70312 12.8891 4.43662
6 3 6.2738 13.6481 3.51055
296 2 7.00543 7.32329 1.38663
327 2 6.26627 11.8268 5.46541
286 4 4.95366 12.8724 2.59666
297 2 6.28557 10.7621 3.7735
121 2 5.98786 8.43352 3.15663
290 1 7.09567 8.4274 1.51527
306 3 5.50001 12.0425 1.29097
292 1 6.4033 10.689 4.88445
300 2 7.40292 10.3123 5.15635
293 2 7.73815 11.8506 3.92987
294 2 6.06087 8.94265 1.36837
336 2 2.46886 11.0559 2.00289
261 3 4.83589 7.25511 5.13823
295 2 7.7793 8.74896 2.38831
302 2 5.57229 9.96463 5.33835
344 2 7.30311 13.5971 0.799253
287 4 8.1892 9.1905 0.124976
89 1 9.70136 7.67849 5.15729
248 3 2.28292 10.8522 6.99197
179 2 8.88627 7.02962 2.62334
185 2 8.94259 8.33467 4.51331
182 2 10.7304 7.47826 4.69068
132 2 9.48653 10.3428 5.84106
2 1 6.18206 13.6771 6.2541
193 2 9.83797 8.91199 7.91351
249 3 1.9566 13.5563 7.64392
50 4 1.87074 12.3066 6.57826
48 4 2.94556 9.5792 7.76084
5 2 5.40655 12.9309 6.47524
196 2 7.9503 10.2031 8.37969
94 1 7.0688 10.8667 8.1175
195 2 6.79046 10.8629 6.97672
273 3 4.48706 9.98737 8.51312
197 2 7.27073 11.862 8.56801
194 2 7.98452 8.12744 7.63226
183 2 9.68834 8.03333 6.31869
93 1 8.96291 8.24443 8.35891
4 2 6.95576 13.7419 7.08781
41 4 4.15926 7.12907 6.51842
288 4 6.13265 11.7221 -0.282876
276 3 8.84669 10.8633 15.0873
275 3 9.28516 8.546 13.6799
136 2 11.4762 7.09605 14.4544
303 3 9.59311 8.20663 17.9597
63 4 5.9128 10.1384 9.33095
116 2 6.27121 8.54138 10.0465
281 3 6.20083 10.8626 10.7393
177 2 4.43542 13.3262 11.6116
280 3 8.40326 12.2237 11.8915
66 4 6.89055 11.3727 12.2156
272 3 7.88811 7.35361 11.6406
353 2 9.31396 10.4824 10.6729
62 4 9.28415 7.71226 12.3152
271 3 10.1096 8.23864 11.0058
174 2 3.50932 10.9218 12.7178
175 2 1.81666 11.9211 12.8615
173 2 3.09092 11.981 14.265
86 1 2.63524 11.3248 13.4188
198 2 2.86933 13.2106 15.6378
251 3 3.95406 8.22383 13.9278
279 3 3.27569 11.391 18.0838
192 2 8.64999 8.56064 9.4627
122 2 4.52253 12.03 13.0567
61 4 6.68311 7.3936 16.2082
199 2 4.58332 12.8962 14.7355
176 2 6.11742 12.5595 14.0615
87 1 5.56964 12.5105 12.9689
65 4 4.34648 11.4522 16.9147
95 1 4.00335 13.0227 15.7528
118 2 5.28491 7.91466 17.1088
274 3 7.28464 8.64244 15.5054
277 3 4.16677 10.173 15.9228
278 3 5.90428 11.8886 17.4239
282 3 7.0665 10.1393 13.1423
191 2 8.00968 13.2215 16.2393
64 4 8.05114 9.63769 14.3615
58 4 6.54632 7.04436 10.9493
305 3 7.92728 10.6523 18.5352
359 2 1.6132 13.5759 16.5248
265 3 5.28703 7.06321 11.9462
200 2 4.47631 13.7434 16.5068
342 1 8.10067 13.4631 18.5969
ITEM: TIMESTEP
100
ITEM: NUMBER OF ATOMS
365
ITEM: BOX BOUNDS xy xz yz pp pp pp
-7.4690810840725970e+00 1.6048610196493073e+01 -7.6137737463252417e+00
5.8858058857213180e-02 1.3908835344166008e+01 8.6858895140787662e-01
-2.9541532330329190e-01 1.8617615323303564e+01 1.2139340302329137e-01
ITEM: ATOMS id type x y z
127 2 -2.80956 6.37427 4.34628
142 2 4.03241 0.440621 2.90755
320 2 -1.20808 6.00057 2.97296
318 1 -0.610905 5.10511 2.45903
319 2 -0.947769 4.06783 2.86444
351 2 0.486703 5.26944 2.63978
201 3 0.822438 1.3159 5.12083
9 2 0.101046 3.7865 1.04962
102 2 -0.84353 5.28387 1.39895
231 3 0.511093 5.64587 8.70103
30 4 3.76373 2.50909 3.85254
74 1 3.08942 1.14004 2.69031
107 2 3.63458 5.6206 0.866024
156 2 1.27994 6.19748 -0.16836
143 2 2.13884 0.713201 3.16263
144 2 2.96262 1.50875 1.67271
219 3 3.02472 2.54047 5.32024
226 3 3.65589 3.94734 2.97426
109 2 2.72136 6.22908 4.50176
153 2 3.54451 4.80062 5.46842
202 3 2.19783 1.33823 7.45352
31 4 5.84651 2.43818 0.500531
37 4 4.60067 4.88054 2.07528
220 3 5.8177 1.06086 1.32434
145 2 5.48874 2.08734 4.15305
204 3 -0.496454 3.01189 8.95791
146 2 6.90555 1.57976 4.86344
29 4 6.80558 0.229665 2.30737
322 2 -2.44855 6.6336 0.788605
313 2 -1.27873 5.63933 6.12864
16 4 -0.000491866 4.34966 8.05022
69 1 -1.5646 4.91475 7.14522
8 2 0.364151 1.35977 0.104226
171 2 5.74783 2.33484 6.07623
151 2 1.95688 5.84092 6.06137
108 2 3.00187 4.78425 7.19335
205 3 1.06392 3.63846 6.77122
77 1 3.00271 5.42761 6.28356
11 4 3.19174 0.685402 8.51721
13 4 1.74731 2.26552 6.25661
129 2 -2.2494 5.39168 7.9159
221 3 4.37663 1.94838 8.75693
12 4 -0.0393223 2.18573 10.2303
203 3 1.00983 2.99349 11.1551
33 4 4.21288 3.01067 9.91302
103 2 2.6535 2.96827 10.5062
238 3 2.77448 6.45568 11.5537
357 2 6.39195 1.13051 14.6806
125 2 2.36984 5.26754 12.095
225 3 5.14219 2.83587 11.3622
105 2 7.34421 1.48264 12.2009
212 3 2.27273 0.205471 9.89887
19 4 -0.308026 5.57597 14.2578
209 3 -1.16585 6.52988 13.2574
97 2 -1.2511 5.3095 15.6636
10 3 0.0336778 3.34194 17.4277
363 2 1.49926 0.784739 16.2337
345 2 0.908955 0.974807 9.5665
206 3 0.253042 4.03191 13.6386
7 4 1.24315 3.11725 18.4546
123 2 2.75122 1.70836 12.5634
104 2 1.72771 1.62184 14.2891
14 4 1.4153 3.70291 12.6386
124 2 3.16912 3.01717 13.9528
236 3 0.959934 6.3431 14.8234
67 1 2.37092 2.33253 13.4481
76 1 3.9244 1.3375 16.2719
150 2 3.24091 0.955632 17.0661
224 3 2.58463 3.32508 17.8814
239 3 4.18861 5.49915 13.7842
149 2 3.43972 1.68126 15.265
110 2 2.48884 5.92473 16.9848
154 2 4.45312 5.89299 17.7869
36 4 6.00516 2.64136 12.7602
223 3 5.6083 2.72962 18.2134
82 1 6.45222 0.708017 13.6167
358 2 4.82002 1.81488 13.7285
35 4 4.35035 2.98434 16.9728
42 4 5.41412 4.97961 14.6609
148 2 5.09933 0.986926 16.2826
234 3 4.74479 4.02858 15.871
78 1 3.88242 6.72361 18.1476
44 4 4.17224 6.94104 13.0021
229 3 4.4084 4.53232 9.32836
99 2 4.39157 0.478036 18.43
169 2 7.87618 0.486936 16.3242
15 4 -1.42437 6.96162 17.7363
237 3 0.0898711 6.97442 17.2624
96 2 2.06639 6.99245 12.0676
43 4 1.36589 7.02901 16.2544
245 3 -1.3414 10.3676 8.54735
131 2 -2.82581 8.44763 4.30327
323 2 -2.19399 8.94234 0.378791
157 2 -1.69649 10.025 4.48621
325 2 -2.91118 11.2947 0.748669
354 2 -5.18057 13.288 5.03267
324 1 -4.44513 12.4269 0.531354
348 2 -5.56815 12.0978 0.41732
285 4 -4.18372 10.5097 1.69988
98 2 -3.09127 9.19638 1.93869
307 3 -4.58071 11.0982 3.19434
242 3 -2.44554 12.0243 5.77446
326 2 -4.37753 13.3505 1.29443
347 2 -4.00272 8.3355 0.140914
321 1 -2.97437 8.10166 0.281619
68 1 -2.24949 7.48282 3.94942
289 4 -5.64282 11.586 4.26433
18 4 -1.0901 7.30746 5.4462
241 3 -1.4911 13.4201 3.63548
46 4 -1.13456 12.2223 4.83162
79 1 -0.896057 10.5965 3.89215
158 2 0.192893 10.0704 3.98231
159 2 -1.23766 10.8979 2.87552
337 2 0.524694 11.1588 2.56742
112 2 -0.176551 12.5895 1.48206
247 3 0.38707 12.4076 5.65301
228 3 0.331662 7.41612 4.59297
38 4 1.77474 7.58733 3.91659
45 4 1.96245 7.67382 0.71427
243 3 1.2695 9.06179 0.29914
240 3 1.85913 7.37344 2.29643
291 1 2.06236 9.38545 4.33958
41 4 4.11013 6.99341 6.63489
126 2 -1.92793 7.59562 2.92021
161 2 0.299185 8.45041 8.42943
47 4 1.11954 10.6817 0.0923365
70 1 -5.40603 11.9035 6.10377
23 4 -2.35225 9.18566 7.93792
25 4 -3.74227 11.8283 6.86117
298 2 1.88664 10.143 3.38923
211 3 -1.48951 8.38689 6.57574
213 3 -3.67009 10.036 7.3226
214 3 -3.66225 12.9478 7.95967
299 2 1.40148 9.5415 5.22879
244 3 3.03431 8.08768 7.16935
133 2 -6.02612 12.1937 7.04675
246 3 -0.279037 12.9858 9.13844
210 3 -2.86088 8.23037 9.06802
208 3 -2.32735 8.23698 11.5977
24 4 -5.45557 12.529 11.3551
114 2 -2.34376 11.9182 10.6623
217 3 -4.26172 12.805 12.4413
17 4 -3.24866 7.71153 10.4297
328 1 -4.73756 11.069 10.4677
329 2 -4.07875 10.6715 11.3931
164 2 -1.46862 10.2832 11.4667
356 2 -1.66252 13.5308 11.9187
21 4 -0.869345 7.76065 12.2331
49 4 -1.1512 11.608 9.4278
232 3 0.125831 7.29331 10.8197
163 2 0.386545 10.5238 10.817
81 1 -0.617128 11.0621 11.1598
165 2 -0.431767 11.8115 11.9384
80 1 1.87621 9.04124 9.3842
160 2 2.6551 7.29682 9.55468
343 2 -6.14957 13.1394 18.1115
113 2 2.45207 9.22305 10.295
253 3 0.473565 11.2162 18.3595
360 2 0.908021 12.7137 15.2747
106 2 -0.332229 13.6229 13.5635
352 2 -1.9951 8.63773 17.347
28 4 -2.67065 12.8064 13.1655
22 4 -3.22908 12.6233 17.6634
72 1 -2.66803 9.09886 14.9303
137 2 -2.93427 9.51211 15.9355
138 2 -2.15455 8.07236 14.9986
139 2 -3.40579 9.22881 14.0733
216 3 -4.46824 12.2961 16.7298
218 3 -2.01838 11.3492 13.6179
51 4 3.14871 9.2812 14.9395
40 4 0.838874 7.07107 9.48126
26 4 -1.17194 10.1037 14.2498
254 3 -1.73794 12.2552 17.3234
52 4 -0.216192 11.6105 16.92
215 3 -0.358086 9.03551 13.1359
252 3 -0.423679 10.4206 15.5983
100 2 -5.39722 13.2325 14.1972
84 1 0.713237 13.1503 16.3502
115 2 1.95913 10.2763 13.9923
330 2 -4.10172 11.5727 9.62117
250 3 2.1184 8.38634 15.9234
111 2 3.68702 7.36044 17.2591
92 1 -6.65147 13.8492 15.4849
27 4 -5.69645 12.124 15.5759
162 2 1.05781 9.87438 9.18041
101 2 -2.72536 13.8591 14.5912
128 2 13.0313 4.00496 6.72443
260 3 5.34465 5.96374 2.99892
75 1 7.1718 2.80545 4.84711
170 2 6.56696 3.48563 4.09659
266 3 7.30812 6.56364 4.7027
255 3 8.05815 1.12563 2.77028
147 2 8.37855 3.67543 5.99739
187 2 10.3658 6.83581 8.13819
53 4 8.52498 2.435 3.49502
263 3 8.34397 5.63337 0.3796
258 3 8.7269 3.68273 2.57572
55 4 9.45613 4.92155 1.38045
172 2 10.1445 2.0893 4.2175
181 2 9.68165 5.13189 5.17184
59 4 8.63921 6.53984 5.47037
256 3 11.8805 3.74966 4.25885
1 4 14.3854 0.843004 4.89359
85 1 10.9127 3.72033 4.86432
340 2 10.477 1.99316 1.52189
339 1 11.4064 0.377735 2.02499
88 1 10.1316 6.38399 2.30272
341 2 12.0949 1.33995 2.38123
259 3 11.0894 4.21544 0.653359
308 4 10.814 1.0861 0.0572013
178 2 10.6845 5.97983 3.19581
350 2 11.7102 4.78234 1.19078
316 2 11.4658 2.08195 8.62219
90 1 11.5008 3.18557 8.98065
332 2 8.25316 2.4527 0.639207
34 4 7.09436 2.99691 7.02946
39 4 5.65705 5.34354 8.76992
230 3 6.52914 4.24731 7.79496
233 3 5.05331 6.62075 7.87388
222 3 7.74082 1.71342 7.81508
189 2 8.31488 6.5388 7.28786
32 4 8.31481 0.460402 8.68178
227 3 5.67753 3.79204 1.40852
91 1 9.27577 6.97006 8.43349
3 2 13.0138 1.52568 6.05832
130 2 12.2497 3.8609 8.31329
186 2 10.0852 4.09987 8.44506
361 2 10.5588 0.119076 2.75538
179 2 9.10613 6.86849 2.57666
264 3 6.64608 5.92317 9.97866
73 1 9.16881 1.31302 10.1768
119 2 9.57393 4.00837 11.3076
314 2 9.25996 2.33328 12.0025
355 2 10.1165 1.92192 9.79556
207 3 12.707 5.91746 16.889
257 3 13.8274 1.5324 11.0595
310 4 10.8276 4.48628 10.1493
270 3 7.57933 6.79709 17.3757
317 3 11.3554 5.92494 10.2312
184 2 12.1694 3.06756 10.5029
140 2 8.29375 1.92071 10.5036
54 4 13.0369 0.884062 12.2753
269 3 6.23136 6.1322 15.3365
364 2 14.873 0.443369 17.848
362 2 14.3796 0.312816 13.1584
312 2 8.35401 3.47138 13.224
333 2 8.64848 3.74487 18.1807
309 2 10.06 1.57446 18.3539
334 2 8.58177 1.93095 17.8045
311 1 9.37837 3.03292 12.957
120 2 10.2338 6.42418 12.6826
117 2 9.57717 1.77385 14.257
57 4 9.12306 6.47572 17.7638
262 3 9.7938 5.50608 16.6503
134 2 9.97388 6.12509 14.304
141 2 9.46455 0.459775 10.895
346 2 12.7248 4.39361 18.1235
284 2 12.9006 2.92528 15.9078
283 4 13.5913 2.98481 17.4726
315 2 10.5435 4.24675 12.7306
365 3 12.9661 1.71651 18.2223
20 4 11.1654 5.12704 15.9742
60 4 11.0309 2.67906 13.9009
267 3 12.0785 1.80872 13.1376
268 3 11.4096 3.61643 15.6157
71 1 11.1919 6.15593 14.3898
135 2 11.7349 5.7172 13.5624
190 2 15.3595 0.663299 14.7647
235 3 6.63896 3.86013 13.7144
188 2 8.97233 6.55074 9.47308
331 1 8.49826 2.73404 18.5906
304 3 9.56281 9.88801 0.9419
335 1 1.45566 11.465 1.81729
155 2 3.8249 7.66754 0.392386
83 1 3.17731 12.7047 5.14349
349 2 3.29867 13.0966 0.45491
180 2 10.8843 7.11154 1.53948
338 2 1.49248 12.6406 1.53627
152 2 4.35669 11.8022 3.75851
301 2 3.25089 9.15374 4.62618
166 2 3.86888 11.7824 5.48424
168 2 2.73452 12.6202 4.12401
167 2 3.49593 13.7654 5.4194
296 2 6.97382 7.18772 1.08816
327 2 6.32455 11.8108 5.4183
286 4 5.05412 12.8841 2.66811
297 2 6.21899 10.7066 3.77
121 2 6.25083 8.38312 3.11853
290 1 7.19059 8.27518 1.37945
306 3 5.41631 11.9314 1.45395
292 1 6.46801 10.6934 4.92816
300 2 7.58876 10.3773 5.09414
293 2 7.76523 11.3772 3.5511
294 2 6.28898 9.06619 1.355
336 2 2.47681 11.0014 2.09668
261 3 4.9211 7.46868 5.1606
295 2 7.90125 8.48038 2.27278
302 2 5.74585 10.0132 5.43173
344 2 6.96794 13.6271 0.717593
287 4 8.27273 9.18854 0.113559
89 1 9.64605 7.94868 4.85562
248 3 2.26507 10.8798 7.12513
56 4 5.94712 7.00602 4.03198
185 2 9.01092 8.49724 4.05848
182 2 10.7098 7.68684 4.43352
132 2 9.41041 10.2679 5.77594
2 1 6.12811 13.6823 6.20427
193 2 10.0361 9.07201 8.0297
249 3 1.9204 13.4748 7.80144
50 4 1.85895 12.4191 6.47327
48 4 2.96877 9.59273 7.93408
5 2 5.32138 12.8949 6.40986
196 2 7.93687 10.1757 8.34784
94 1 7.06463 10.8994 8.08928
195 2 6.76706 10.8747 6.94339
273 3 4.4191 9.94076 8.63161
197 2 7.135 11.97 8.48539
194 2 8.24971 8.53453 7.56644
183 2 9.84802 8.4179 5.95718
93 1 9.12423 8.44792 8.34626
288 4 6.07849 11.6947 -0.143245
4 2 7.06116 13.5696 6.98475
6 3 6.20166 13.8045 3.39606
276 3 8.76358 10.7938 15.0444
275 3 9.30253 8.61534 13.5836
136 2 11.6081 7.25819 14.5951
303 3 9.73334 7.98248 17.9209
63 4 5.94021 10.1989 9.36074
116 2 6.28949 8.59916 10.2128
281 3 5.89594 11.1264 10.6165
177 2 4.54856 13.0968 11.6717
280 3 8.13298 12.2002 11.974
66 4 6.79716 11.3086 12.2383
272 3 7.96355 7.32537 11.7719
353 2 9.48443 10.3798 10.035
62 4 9.37657 7.82087 12.1948
271 3 10.2666 8.53567 11.068
174 2 3.40048 10.833 12.7545
342 1 7.8722 13.4687 18.4936
173 2 3.09472 11.968 14.3697
86 1 2.63795 11.2536 13.4574
198 2 2.66741 13.0785 15.9098
251 3 3.88093 8.26035 13.9426
279 3 3.16429 11.331 18.1646
192 2 8.75528 8.68633 9.40228
122 2 4.48787 12.019 13.1545
61 4 6.61377 7.32618 16.2897
199 2 4.44814 12.9148 14.8342
176 2 6.11206 12.5867 14.1346
87 1 5.56318 12.4464 13.09
65 4 4.27146 11.4783 16.9032
95 1 3.93346 13.0445 15.8352
118 2 5.28128 7.79682 17.3186
274 3 7.29335 8.50487 15.541
277 3 4.15501 10.2262 15.8631
278 3 5.77699 11.8106 17.6625
282 3 7.09647 10.1196 13.1535
191 2 7.48494 12.876 16.257
64 4 8.08239 9.44823 14.3472
58 4 6.58461 7.11968 11.0781
305 3 8.06895 10.5111 18.6129
359 2 1.55912 13.0584 17.1428
175 2 1.89162 11.8694 12.7863
265 3 5.38472 7.14001 11.9987
200 2 4.45287 13.8762 16.3376
ITEM: TIMESTEP
200
ITEM: NUMBER OF ATOMS
365
ITEM: BOX BOUNDS xy xz yz pp pp pp
1.4469266225264477e-01 2.3481821940731887e+01 7.4252637594640856e+00
5.8858058857213180e-02 1.3908835344166008e+01 8.6902302884486204e-01
-2.9541532330329190e-01 1.8617615323303564e+01 1.2139340302329137e-01
ITEM: ATOMS id type x y z
221 3 4.41786 1.72576 9.00881
142 2 3.40641 0.250426 3.15042
13 4 1.79629 2.16506 6.17226
11 4 3.27087 0.681987 8.45589
171 2 5.81633 2.53529 6.21212
29 4 6.80981 0.290966 2.28132
146 2 6.56532 1.80554 4.83365
145 2 5.3878 2.46414 3.80129
220 3 5.8904 1.12541 1.30064
37 4 4.69552 4.86631 2.21104
30 4 3.67567 2.64331 3.80004
74 1 3.03527 1.16735 2.70474
107 2 3.95443 5.88543 0.965123
31 4 5.84958 2.51889 0.393344
143 2 1.96097 1.3671 2.7412
144 2 3.50479 1.32921 1.64833
219 3 3.14442 2.52561 5.29621
226 3 3.47145 4.03041 2.99533
202 3 2.11351 1.17654 7.43188
153 2 3.42206 5.2006 5.04627
260 3 5.37716 5.84754 3.20318
59 4 8.7529 6.62214 5.33222
75 1 7.04087 2.81789 4.77825
186 2 9.83113 4.37722 8.6197
170 2 6.51355 3.63445 4.09382
266 3 7.34617 6.73831 4.68001
181 2 9.70349 5.08759 5.03367
227 3 5.75204 3.76354 1.40979
255 3 8.21094 1.08519 2.67796
189 2 8.55913 6.25376 7.16627
222 3 7.80982 1.93537 8.11866
233 3 5.18651 6.60093 7.86951
230 3 6.72332 4.40786 7.85149
39 4 5.78125 5.41284 8.7628
34 4 7.127 3.07705 7.23223
332 2 8.3827 2.5494 0.390925
147 2 8.38201 3.38065 6.02905
187 2 10.5538 6.92986 8.07257
53 4 8.40386 2.50382 3.43062
178 2 10.8674 5.83889 3.26774
263 3 8.67542 5.44261 0.244939
258 3 8.95463 3.67055 2.52058
55 4 9.52047 4.84691 1.51663
88 1 10.329 6.29698 2.3685
108 2 3.61682 4.57216 6.94178
179 2 9.32561 6.82641 2.60333
317 3 11.2406 6.15707 10.3831
99 2 4.2608 0.328324 18.4953
33 4 4.28912 2.97889 10.0283
103 2 2.73893 2.95693 10.5464
229 3 4.35948 4.42432 9.43642
357 2 6.1849 0.931412 14.7173
234 3 4.76015 3.88615 15.9172
225 3 5.20022 2.92443 11.317
105 2 7.36351 1.57912 12.5845
212 3 2.30513 0.372143 9.9949
148 2 4.79709 0.885057 16.3111
42 4 5.41672 4.92403 14.7384
35 4 4.2242 3.02719 17.1206
358 2 4.7714 1.81985 13.6789
363 2 1.37846 1.03223 15.9694
82 1 6.25277 0.562274 13.6602
223 3 5.65648 2.65598 18.2234
36 4 5.90369 2.71993 12.6921
123 2 2.65944 1.59455 12.456
104 2 1.76798 1.5356 14.2071
154 2 4.55505 5.71838 18.0561
124 2 3.21878 2.85502 13.8918
149 2 3.39841 1.49864 15.2136
67 1 2.40552 2.14216 13.4322
76 1 3.79729 1.37101 16.3158
150 2 3.00378 0.814143 16.9173
239 3 4.26714 5.52043 13.8411
264 3 6.66037 6.08204 9.88528
331 1 8.50629 2.43927 18.4957
188 2 9.1646 6.75163 9.35333
235 3 6.48 3.98116 13.454
119 2 9.44863 4.3756 11.5474
314 2 9.304 2.36885 11.948
71 1 11.0249 6.20641 14.3339
270 3 7.51567 6.7607 17.6416
140 2 8.36834 1.59557 10.8543
269 3 6.15951 6.0602 15.5366
312 2 8.27877 3.4789 13.1219
333 2 8.49361 3.18098 17.6964
334 2 8.46903 1.34695 18.1638
311 1 9.29482 3.00759 12.9661
120 2 10.3042 6.20803 12.5399
57 4 9.19322 6.51211 17.7575
262 3 9.71856 5.46925 16.6211
134 2 9.88795 6.19697 14.2622
224 3 2.86155 3.33286 17.8995
315 2 10.475 4.27854 12.9623
210 3 12.3107 8.26586 8.84598
192 2 8.50387 8.67829 9.08059
180 2 11.0757 7.03149 1.66191
133 2 8.83496 12.3933 6.74423
325 2 12.0809 11.5143 0.973493
354 2 9.84524 13.3778 4.77199
324 1 10.4773 12.3518 0.598973
348 2 9.33206 11.9629 0.491599
285 4 10.8151 10.4285 1.74673
98 2 12.0382 9.15597 1.98957
307 3 10.3267 10.978 3.13169
242 3 12.504 12.1922 5.72576
326 2 10.4651 13.227 1.34576
347 2 11.2191 8.27481 -0.185012
214 3 11.2921 12.9588 7.94952
213 3 11.312 10.1401 7.47876
289 4 9.30677 11.6158 4.18713
25 4 11.2928 11.936 6.79402
241 3 13.548 13.4873 3.6157
46 4 13.7587 12.2638 4.78941
23 4 12.7798 9.35094 7.785
70 1 9.69341 12.2274 5.99876
304 3 9.68949 9.7143 0.960643
305 3 7.38271 10.5166 -0.285283
296 2 7.2881 7.14889 1.30458
295 2 8.04142 8.61269 2.41368
93 1 9.01501 8.39469 8.08637
183 2 9.77663 8.50598 6.01427
194 2 8.2818 8.35021 7.21295
287 4 8.42888 9.15198 0.209208
121 2 6.16656 8.38737 3.09807
195 2 6.60998 10.9724 6.99153
94 1 6.87962 11.0877 8.13166
196 2 7.89001 10.4506 8.45355
290 1 7.32701 8.30052 1.50382
292 1 6.39976 10.6812 4.99953
300 2 7.5143 10.3732 5.1146
293 2 7.64322 11.4214 3.68702
193 2 10.0303 9.12832 7.85126
294 2 6.3457 8.83855 1.2907
132 2 9.38809 10.5051 5.68006
182 2 10.9688 7.65626 4.51246
185 2 9.21215 8.60005 4.13975
56 4 5.89394 7.01335 4.11464
261 3 4.84998 7.35841 5.28618
89 1 9.852 7.96631 4.87151
91 1 9.43295 7.01292 8.2675
302 2 5.78067 9.98275 5.48479
297 2 6.12731 10.5061 3.83494
41 4 4.24262 7.01129 6.64029
101 2 11.9619 13.8388 14.4485
24 4 9.69798 12.7574 11.2039
114 2 12.6871 12.0182 10.5018
217 3 10.9117 12.8918 12.3495
17 4 11.7635 7.79312 10.2589
328 1 9.98801 11.1275 10.3058
329 2 11.0168 10.9304 10.6996
164 2 13.4807 10.3123 11.5869
356 2 13.3931 13.5938 11.886
27 4 9.1524 12.1363 15.6788
49 4 14.0016 11.668 9.41558
169 2 14.7524 13.8158 16.5272
330 2 9.9343 11.2825 9.18872
100 2 9.09977 13.2957 14.2694
254 3 13.0817 11.8044 17.3714
218 3 12.97 11.3275 13.621
216 3 10.4494 12.3089 16.7088
343 2 8.99068 13.3215 18.51
139 2 11.7246 9.09071 14.2624
137 2 12.0375 9.51005 16.0455
72 1 12.4727 8.99567 15.1478
246 3 14.7297 13.0029 9.17391
22 4 11.6655 12.433 17.6772
28 4 12.329 12.7748 13.0347
276 3 8.65296 10.7433 15.0055
275 3 9.25408 8.55159 13.5676
265 3 5.55478 7.10272 12.0732
136 2 11.5566 7.31029 14.5765
303 3 9.83768 8.03015 17.8987
106 2 14.4777 13.554 13.5289
58 4 6.73368 7.21835 10.9863
64 4 8.01416 9.38661 14.2432
116 2 6.33078 8.7779 10.2366
282 3 6.97759 10.0264 13.1179
280 3 8.07254 12.3007 11.7897
61 4 6.70557 7.25563 16.3529
274 3 7.15836 8.46717 15.4482
118 2 5.33749 7.80887 17.2437
272 3 8.16045 7.24491 11.4767
353 2 9.23338 10.4207 10.7474
62 4 9.44126 7.72167 12.1742
271 3 10.3272 8.50657 10.9443
165 2 14.4301 11.9493 11.9535
128 2 12.9973 3.88879 6.64653
361 2 10.5516 0.283096 2.79338
130 2 12.095 3.94215 8.39955
3 2 12.9013 1.44184 6.09394
32 4 8.4266 0.543095 8.65817
90 1 11.3216 3.43093 9.08809
316 2 11.2148 2.37193 8.73947
350 2 11.6767 4.23286 1.25072
308 4 10.933 1.17254 0.0971913
259 3 11.005 4.0957 0.499909
341 2 12.086 1.42227 2.46081
339 1 11.4614 0.482123 2.1118
172 2 9.73159 2.30968 4.56552
340 2 10.9114 2.22851 1.64519
85 1 11.0007 3.80899 4.56646
256 3 12.1175 3.72741 4.45788
1 4 14.3149 0.772018 4.89053
127 2 12.2255 6.40533 4.28777
320 2 13.9686 5.78076 3.02022
129 2 12.9376 5.25621 7.96252
318 1 14.4317 5.00238 2.28928
319 2 14.1598 3.9981 2.65695
77 1 18.3107 5.36735 6.17553
205 3 15.9755 3.32875 6.77329
109 2 17.7065 6.25055 4.54905
151 2 17.2242 5.72384 6.39474
351 2 15.5659 5.17567 2.16862
8 2 15.5844 1.33195 0.21925
69 1 13.4923 4.7702 7.12052
16 4 15.0191 4.10109 7.89156
313 2 13.922 5.60763 6.02406
322 2 12.6676 6.71327 0.475497
201 3 15.714 1.44688 5.18586
9 2 15.2994 3.78783 0.956049
344 2 14.4208 0.0923758 0.720447
102 2 13.8966 5.13862 1.27938
231 3 15.6945 5.68746 8.7179
156 2 16.3731 6.31792 -0.146344
190 2 14.9604 0.83189 15.0383
73 1 9.24829 1.2331 10.2399
135 2 11.573 5.62855 13.5308
268 3 11.5883 3.69322 15.4816
355 2 10.0448 2.0298 9.78044
207 3 12.6821 6.00542 16.7303
257 3 14.0346 1.3828 11.201
310 4 10.5895 4.68101 10.2933
267 3 12.0322 1.78455 13.1233
236 3 15.9735 6.3557 14.7827
184 2 12.1088 3.40869 10.5183
60 4 10.9428 2.66382 13.8966
54 4 13.1258 0.896143 12.3562
20 4 11.1485 5.1708 15.9212
7 4 16.4568 2.9928 18.3952
362 2 14.3838 0.395946 13.3979
365 3 12.9843 1.69146 17.9881
204 3 14.4758 3.11362 9.18643
309 2 10.2352 1.63168 18.2208
283 4 13.6102 2.97836 17.384
284 2 13.1005 3.36949 15.7596
346 2 12.8929 4.34127 18.1755