ITEM: TIMESTEP
0
ITEM: NUMBER OF ATOMS
365
ITEM: BOX BOUNDS xy xz yz pp pp pp
-7.4652760996916232e+00 1.6040662211718338e+01 -7.6099687619442680e+00
5.8858058857213180e-02 1.3908835344166008e+01 8.6815487397089119e-01
-2.9541532330329190e-01 1.8617615323303564e+01 1.2139340302329137e-01
ITEM: ATOMS id type x y z
127 2 -2.89937 6.37154 4.39675
142 2 4.04876 0.314778 3.06536
320 2 -1.3611 6.10957 2.82473
318 1 -0.775091 5.2352 2.10499
319 2 -1.29997 4.2542 2.19252
351 2 0.286818 5.08662 2.43261
201 3 0.714367 1.52656 5.13579
9 2 0.0147636 3.88725 0.884025
102 2 -0.852393 5.60413 1.03673
231 3 0.642206 5.78076 8.694
30 4 3.72205 2.53686 3.78856
74 1 3.10419 0.98209 2.89029
107 2 3.72517 5.66912 0.801319
156 2 1.62749 6.02787 0.0465389
143 2 2.14146 0.60109 3.40765
144 2 2.96876 1.19144 1.78615
219 3 3.12044 2.56994 5.3842
226 3 3.51376 3.942 2.87994
109 2 2.76194 6.19421 4.51869
153 2 3.04632 4.83213 5.54587
202 3 2.07831 1.16657 7.42338
31 4 5.88187 2.44627 0.504903
37 4 4.60091 4.83198 2.04721
220 3 5.88817 1.04903 1.40793
145 2 5.43834 2.24563 3.91531
204 3 -0.435786 3.05043 8.94502
146 2 6.86267 1.62215 4.69826
29 4 6.93099 0.15621 2.27996
322 2 -2.49045 6.54452 0.560255
313 2 -1.11759 5.51751 5.94898
16 4 0.101131 4.16471 7.83653
69 1 -1.48192 4.72295 6.9427
8 2 0.40945 1.44207 0.272605
171 2 5.63532 2.56078 6.0181
151 2 1.99542 5.95445 6.41935
108 2 3.28797 5.11223 7.44005
205 3 1.11427 3.69254 6.76322
77 1 3.00308 5.53508 6.36741
11 4 3.21603 0.606884 8.49747
13 4 1.73594 2.15562 6.2254
129 2 -2.14926 5.18284 7.74065
12 4 -0.012529 2.18649 10.1938
203 3 0.869561 3.02652 11.2892
33 4 4.08097 2.9809 10.0725
103 2 2.5103 3.20909 10.5133
238 3 2.47205 6.69062 11.8854
357 2 6.37272 1.22844 14.6262
125 2 2.12545 5.44276 12.3905
225 3 4.91127 2.82081 11.3572
105 2 7.12233 1.51213 12.1287
92 1 0.97479 0.360689 15.3674
19 4 -0.284929 5.5386 14.4161
209 3 -1.04535 6.58942 13.4067
97 2 -1.31168 5.29186 15.8335
10 3 0.0103928 3.2507 17.6037
363 2 1.5491 1.20456 15.9122
345 2 0.976228 0.970994 9.58647
206 3 0.0794993 4.08436 13.7657
7 4 1.26 3.07382 18.4426
123 2 2.82901 1.96756 12.3549
104 2 1.89768 1.63258 14.0662
14 4 1.31203 3.74455 12.713
124 2 3.2951 3.14227 13.75
236 3 1.09523 6.18963 15.0464
67 1 2.49746 2.46685 13.3069
76 1 3.75593 1.71867 16.1796
150 2 3.01357 1.21307 16.8328
224 3 2.79381 3.38845 17.9472
239 3 4.19988 5.5314 13.9142
149 2 3.30796 1.95042 15.0779
110 2 2.53513 6.01271 17.1723
154 2 4.67463 5.91287 17.91
36 4 5.81293 2.58781 12.6778
223 3 5.42914 2.64186 18.1913
82 1 6.46789 0.647434 13.6729
358 2 4.85678 1.67734 13.8304
35 4 4.26635 3.18588 17.2628
42 4 5.42436 4.97938 14.7261
148 2 4.75495 1.12455 16.2343
234 3 4.85473 4.0826 16.0208
78 1 4.00874 6.83028 18.1949
44 4 4.1265 6.89451 13.0148
229 3 4.40266 4.40754 9.20336
207 3 -2.30727 6.05221 16.7459
169 2 7.5141 0.418195 16.1468
221 3 4.19133 1.69189 9.17641
99 2 4.128 0.514221 18.5767
245 3 -1.16069 10.2917 8.335
131 2 -2.79091 8.48962 4.53286
323 2 -2.36037 8.86521 0.265134
157 2 -1.60172 9.98154 4.65209
325 2 -3.00865 11.3789 0.821087
354 2 -4.9851 13.3027 5.01768
324 1 -4.58662 12.436 0.547472
348 2 -5.68615 12.0602 0.328829
285 4 -4.29384 10.4794 1.64152
98 2 -3.15187 9.13043 1.86666
307 3 -4.6976 11.0842 3.06247
242 3 -2.33436 12.0918 5.85099
326 2 -4.55425 13.2349 1.38518
347 2 -4.18913 8.15367 -0.220058
321 1 -3.13991 8.01529 0.362362
68 1 -2.3498 7.40076 4.04949
289 4 -5.6491 11.571 4.34058
18 4 -1.02852 7.289 5.39889
241 3 -1.34678 13.371 3.65029
46 4 -1.07483 12.2465 4.8178
79 1 -0.835616 10.5327 3.99221
158 2 0.23387 10.129 4.13437
159 2 -1.16296 10.5437 2.97026
337 2 0.510872 11.0781 2.6019
112 2 -0.266135 12.5152 1.31084
247 3 0.462423 12.3804 5.59282
228 3 0.355969 7.47712 4.58312
38 4 1.82602 7.5454 3.95128
45 4 2.07406 7.72051 0.75685
243 3 1.25308 9.02361 0.204661
240 3 1.85658 7.38692 2.33768
291 1 2.12083 9.38608 4.17984
162 2 0.931686 9.88743 8.88072
126 2 -2.28096 7.36797 2.85111
161 2 0.262803 8.33907 8.28669
47 4 1.18994 10.7576 -0.00323037
70 1 -5.11523 12.022 6.14019
23 4 -2.33677 9.20451 7.79193
25 4 -3.45567 11.8106 6.95573
298 2 1.87702 10.1387 3.25055
211 3 -1.62554 8.30738 6.52838
213 3 -3.72906 9.9991 7.425
214 3 -3.65774 12.9245 8.06042
299 2 1.57347 9.59428 5.09878
244 3 3.16919 8.28501 6.83725
133 2 -5.93307 12.3947 6.81567
246 3 -0.34539 12.9486 9.04413
210 3 -2.79856 8.11757 9.07056
335 1 1.39223 11.5099 1.79944
208 3 -2.42682 8.00604 11.6981
24 4 -5.17603 12.6085 11.3353
114 2 -2.40178 11.8178 10.5366
217 3 -3.95629 12.8722 12.4718
17 4 -3.35377 7.56991 10.5071
328 1 -4.6628 10.9696 10.5442
329 2 -3.83365 10.2969 10.8738
164 2 -1.61453 10.6017 11.6254
356 2 -1.48401 13.3938 12.074
21 4 -0.935734 7.73873 12.2992
49 4 -1.06257 11.6225 9.44548
232 3 -0.0176843 7.47803 10.9811
163 2 0.167449 10.2848 10.8347
81 1 -0.703506 11.1078 11.2231
165 2 -0.216194 11.9143 11.9177
237 3 0.161811 7.15582 17.2063
160 2 2.44332 7.39654 9.70965
343 2 -6.04696 12.9613 18.0555
113 2 2.4009 9.54657 10.1053
253 3 0.687089 11.3199 18.3552
360 2 0.717709 12.8985 15.0277
106 2 -0.240093 13.7074 13.7458
352 2 -2.16601 8.67121 17.4468
28 4 -2.61688 12.7015 13.2783
22 4 -3.2718 12.728 17.6661
72 1 -2.74563 8.97307 14.7113
137 2 -3.51585 9.73721 15.0548
138 2 -2.42598 8.20805 15.47
139 2 -3.10271 8.52022 13.7411
216 3 -4.38398 12.5019 16.619
218 3 -1.97646 11.2006 13.6339
15 4 -1.35582 7.08641 17.5998
40 4 0.658181 7.21248 9.62876
26 4 -1.17074 10.0106 14.3008
254 3 -1.7006 12.3206 17.447
52 4 -0.238339 11.801 16.9556
215 3 -0.34879 9.25146 13.1665
252 3 -0.441884 10.5674 15.6964
100 2 -5.46363 13.4804 14.1238
84 1 0.606194 13.2764 16.0982
115 2 2.07267 10.3701 14.0028
330 2 -4.4836 11.4431 9.46752
250 3 2.23758 8.39492 15.8365
111 2 3.66978 7.39967 17.2748
96 2 1.86725 7.16495 12.5895
27 4 -5.58092 12.2766 15.5511
101 2 -2.66549 13.6506 14.6857
212 3 -5.31219 13.8045 10.0605
43 4 1.53208 7.08892 16.2808
80 1 1.77251 9.11769 9.18969
51 4 3.27455 9.28275 14.9115
128 2 13.1521 3.76701 6.50042
260 3 5.18983 5.96049 2.90796
75 1 7.13125 2.73809 4.73733
170 2 6.67235 3.58463 3.93607
266 3 7.21534 6.53341 4.65363
255 3 8.36062 0.980975 2.62443
147 2 8.41872 3.4806 5.76743
187 2 10.3269 6.64887 8.33228
53 4 8.5673 2.46425 3.38813
263 3 8.4611 5.57954 0.439588
258 3 8.80259 3.74346 2.55021
55 4 9.31744 5.01917 1.61028
172 2 9.87772 2.23996 4.5292
181 2 9.49555 4.8168 4.97201
59 4 8.55075 6.28424 5.44591
256 3 11.7361 3.82022 4.309
1 4 14.3675 0.726617 4.8179
85 1 10.9915 3.69324 5.14595
340 2 10.5417 2.04474 1.50767
339 1 11.2439 0.380211 2.15115
88 1 9.92931 6.56467 2.51822
341 2 11.8529 1.32363 2.66467
259 3 10.9499 4.25324 0.810786
308 4 10.784 0.997663 0.10719
178 2 10.3303 6.16159 3.50302
350 2 11.5448 4.86753 1.34688
316 2 11.405 2.14688 8.54558
90 1 11.4767 3.16408 8.89655
332 2 8.29499 2.40015 0.55921
34 4 7.07792 2.9595 6.95773
39 4 5.71984 5.20514 8.7326
230 3 6.6804 4.27812 7.7481
233 3 5.3264 6.56959 7.77836
222 3 7.48487 1.6388 7.76247
189 2 8.34062 6.31537 7.25871
32 4 8.30511 0.525015 8.53762
91 1 9.30986 6.85356 8.54654
56 4 5.77977 6.93535 3.98276
3 2 12.8447 1.30724 5.93277
130 2 12.2481 3.72712 8.21237
186 2 10.0521 3.85745 8.60339
227 3 5.83717 3.86445 1.42594
167 2 11.2622 0.131007 5.75219
264 3 6.59862 5.81042 9.91728
73 1 9.1134 1.28535 10.1014
119 2 9.69058 3.88378 11.4946
314 2 9.18976 2.29522 11.8805
355 2 10.0424 2.0165 9.69113
331 1 8.49352 2.56958 18.5566
257 3 13.8184 1.41901 10.9153
310 4 10.9303 4.37412 10.3357
270 3 7.40507 6.75577 17.4528
317 3 11.4005 5.85984 10.3379
184 2 12.1126 3.07427 10.5736
140 2 8.16821 1.88341 10.4846
54 4 13.0276 0.957656 12.204
269 3 6.28888 6.21179 15.2525
364 2 15.2579 0.496149 17.9587
362 2 14.2985 0.283966 13.3053
312 2 8.22235 3.29691 13.2874
333 2 8.57204 3.57938 18.0194
309 2 10.07 1.42693 18.43
334 2 8.70219 1.70755 17.8775
311 1 9.22633 2.83927 12.9998
120 2 9.98632 6.21251 12.6565
117 2 9.49473 1.54673 14.1366
57 4 9.02421 6.58239 17.7742
262 3 9.81379 5.61958 16.8065
134 2 9.76992 6.17472 14.4677
141 2 9.49571 0.46564 10.7639
346 2 12.7304 4.34252 18.4062
284 2 12.8942 3.40833 16.0039
283 4 13.4296 3.05109 17.5749
315 2 10.3733 4.1578 13.0182
365 3 12.8523 1.66149 18.0983
20 4 11.0944 5.09076 16.0319
60 4 10.9668 2.70751 13.8423
267 3 12.045 1.84887 13.0871
268 3 11.3881 3.62745 15.5508
71 1 10.9275 6.03284 14.4362
135 2 11.3734 5.34835 13.6155
190 2 15.0497 0.728516 14.9165
235 3 6.36228 3.96122 13.5185
188 2 8.98576 6.41217 9.51993
304 3 9.46072 9.79235 0.924326
361 2 2.83084 13.593 2.84998
155 2 3.86553 7.89569 0.451603
83 1 3.30988 12.8111 5.36142
349 2 3.37068 13.0385 0.560865
180 2 10.7269 7.14972 1.73394
338 2 1.4177 12.61 1.67384
152 2 4.0424 11.9296 3.7278
301 2 3.28169 9.25713 4.37969
166 2 4.13584 12.0047 5.46097
168 2 2.70312 12.8891 4.43662
6 3 6.2738 13.6481 3.51055
296 2 7.00543 7.32329 1.38663
327 2 6.26627 11.8268 5.46541
286 4 4.95366 12.8724 2.59666
297 2 6.28557 10.7621 3.7735
121 2 5.98786 8.43352 3.15663
290 1 7.09567 8.4274 1.51527
306 3 5.50001 12.0425 1.29097
292 1 6.4033 10.689 4.88445
300 2 7.40292 10.3123 5.15635
293 2 7.73815 11.8506 3.92987
294 2 6.06087 8.94265 1.36837
336 2 2.46886 11.0559 2.00289
261 3 4.83589 7.25511 5.13823
295 2 7.7793 8.74896 2.38831
302 2 5.57229 9.96463 5.33835
344 2 7.30311 13.5971 0.799253
287 4 8.1892 9.1905 0.124976
89 1 9.70136 7.67849 5.15729
248 3 2.28292 10.8522 6.99197
179 2 8.88627 7.02962 2.62334
185 2 8.94259 8.33467 4.51331
182 2 10.7304 7.47826 4.69068
132 2 9.48653 10.3428 5.84106
2 1 6.18206 13.6771 6.2541
193 2 9.83797 8.91199 7.91351
249 3 1.9566 13.5563 7.64392
50 4 1.87074 12.3066 6.57826
48 4 2.94556 9.5792 7.76084
5 2 5.40655 12.9309 6.47524
196 2 7.9503 10.2031 8.37969
94 1 7.0688 10.8667 8.1175
195 2 6.79046 10.8629 6.97672
273 3 4.48706 9.98737 8.51312
197 2 7.27073 11.862 8.56801
194 2 7.98452 8.12744 7.63226
183 2 9.68834 8.03333 6.31869
93 1 8.96291 8.24443 8.35891
4 2 6.95576 13.7419 7.08781
41 4 4.15926 7.12907 6.51842
288 4 6.13265 11.7221 -0.282876
276 3 8.84669 10.8633 15.0873
275 3 9.28516 8.546 13.6799
136 2 11.4762 7.09605 14.4544
303 3 9.59311 8.20663 17.9597
63 4 5.9128 10.1384 9.33095
116 2 6.27121 8.54138 10.0465
281 3 6.20083 10.8626 10.7393
177 2 4.43542 13.3262 11.6116
280 3 8.40326 12.2237 11.8915
66 4 6.89055 11.3727 12.2156
272 3 7.88811 7.35361 11.6406
353 2 9.31396 10.4824 10.6729
62 4 9.28415 7.71226 12.3152
271 3 10.1096 8.23864 11.0058
174 2 3.50932 10.9218 12.7178
175 2 1.81666 11.9211 12.8615
173 2 3.09092 11.981 14.265
86 1 2.63524 11.3248 13.4188
198 2 2.86933 13.2106 15.6378
251 3 3.95406 8.22383 13.9278
279 3 3.27569 11.391 18.0838
192 2 8.64999 8.56064 9.4627
122 2 4.52253 12.03 13.0567
61 4 6.68311 7.3936 16.2082
199 2 4.58332 12.8962 14.7355
176 2 6.11742 12.5595 14.0615
87 1 5.56964 12.5105 12.9689
65 4 4.34648 11.4522 16.9147
95 1 4.00335 13.0227 15.7528
118 2 5.28491 7.91466 17.1088
274 3 7.28464 8.64244 15.5054
277 3 4.16677 10.173 15.9228
278 3 5.90428 11.8886 17.4239
282 3 7.0665 10.1393 13.1423
191 2 8.00968 13.2215 16.2393
64 4 8.05114 9.63769 14.3615
58 4 6.54632 7.04436 10.9493
305 3 7.92728 10.6523 18.5352
359 2 1.6132 13.5759 16.5248
265 3 5.28703 7.06321 11.9462
200 2 4.47631 13.7434 16.5068
342 1 8.10067 13.4631 18.5969
ITEM: TIMESTEP
100
ITEM: NUMBER OF ATOMS
365
ITEM: BOX BOUNDS xy xz yz pp pp pp
-7.4652760996916232e+00 1.6040662211718338e+01 -7.6099687619442680e+00
5.8858058857213180e-02 1.3918291859489312e+01 8.6815487397089119e-01
-2.9541532330329190e-01 1.8617615323303564e+01 1.3084991834659476e-01
ITEM: ATOMS id type x y z
127 2 -2.80808 6.37659 4.34628
142 2 4.03046 0.442223 2.90755
320 2 -1.20741 6.0022 2.97296
318 1 -0.610527 5.10649 2.45903
319 2 -0.947223 4.06941 2.86444
351 2 0.486532 5.27091 2.63978
201 3 0.822099 1.31861 5.12083
9 2 0.101068 3.78717 1.04962
102 2 -0.843036 5.28472 1.39895
231 3 0.51091 5.65036 8.70103
30 4 3.76192 2.51116 3.85254
74 1 3.08795 1.14153 2.69031
107 2 3.63284 5.62118 0.866024
156 2 1.27937 6.19754 -0.16836
143 2 2.13785 0.71493 3.16263
144 2 2.96122 1.50974 1.67271
219 3 3.02328 2.54327 5.32024
226 3 3.65413 3.94897 2.97426
109 2 2.72007 6.23148 4.50176
153 2 3.54281 4.80351 5.46842
202 3 2.1968 1.34211 7.45352
31 4 5.84366 2.43858 0.500531
37 4 4.59845 4.88172 2.07528
220 3 5.81487 1.06167 1.32434
145 2 5.48607 2.08956 4.15305
204 3 -0.496134 3.01652 8.95791
146 2 6.90217 1.58234 4.86344
29 4 6.80225 0.230966 2.30737
322 2 -2.44726 6.63414 0.788605
313 2 -1.27802 5.64254 6.12864
16 4 -0.00041931 4.35383 8.05022
69 1 -1.56375 4.91847 7.14522
8 2 0.364041 1.35997 0.104226
171 2 5.74503 2.33803 6.07623
151 2 1.95598 5.8441 6.06137
108 2 3.00045 4.78799 7.19335
205 3 1.06346 3.64199 6.77122
77 1 3.00128 5.4309 6.28356
11 4 3.19022 0.689808 8.51721
13 4 1.74651 2.2688 6.25661
129 2 -2.2482 5.39579 7.9159
221 3 4.37451 1.95291 8.75693
12 4 -0.0392304 2.19099 10.2303
203 3 1.0094 2.99922 11.1551
33 4 4.21084 3.01577 9.91302
103 2 2.65225 2.97367 10.5062
238 3 2.77317 6.4616 11.5537
357 2 6.38883 1.138 14.6806
125 2 2.36873 5.27374 12.095
225 3 5.13969 2.8417 11.3622
105 2 7.34061 1.48888 12.2009
212 3 2.27166 0.210569 9.89887
19 4 -0.3078 5.58325 14.2578
209 3 -1.16519 6.53666 13.2574
97 2 -1.2504 5.31748 15.6636
10 3 0.0337333 3.3508 17.4277
363 2 1.49858 0.793003 16.2337
345 2 0.908573 0.979738 9.5665
206 3 0.252987 4.03887 13.6386
7 4 1.2426 3.12663 18.4546
123 2 2.74992 1.71479 12.5634
104 2 1.72692 1.62913 14.2891
14 4 1.41467 3.70938 12.6386
124 2 3.16761 3.0243 13.9528
236 3 0.959526 6.35066 14.8234
67 1 2.36981 2.3394 13.4481
76 1 3.92251 1.34579 16.2719
150 2 3.23936 0.964313 17.0661
224 3 2.58341 3.33417 17.8814
239 3 4.18659 5.50619 13.7842
149 2 3.43807 1.68904 15.265
110 2 2.48767 5.93337 16.9848
154 2 4.45097 5.90203 17.7869
36 4 6.00223 2.64789 12.7602
223 3 5.60556 2.73888 18.2134
82 1 6.44907 0.714973 13.6167
358 2 4.81769 1.82189 13.7285
35 4 4.34825 2.99297 16.9728
42 4 5.41149 4.98709 14.6609
148 2 5.09685 0.995215 16.2826
234 3 4.74249 4.03666 15.871
78 1 3.88056 6.73284 18.1476
44 4 4.17023 6.94769 13.0021
229 3 4.40627 4.53713 9.32836
99 2 4.38945 0.487399 18.43
169 2 7.87231 0.495246 16.3242
15 4 -1.42358 6.97064 17.7363
237 3 0.0898985 6.9832 17.2624
96 2 2.06543 6.99864 12.0676
43 4 1.36528 7.03729 16.2544
245 3 -1.34066 10.372 8.54735
131 2 -2.82433 8.44993 4.30327
323 2 -2.19282 8.94268 0.378791
157 2 -1.69557 10.0274 4.48621
325 2 -2.90966 11.2952 0.748669
354 2 -5.17791 13.2907 5.03267
324 1 -4.44284 12.4274 0.531354
348 2 -5.5653 12.0981 0.41732
285 4 -4.18155 10.5107 1.69988
98 2 -3.08966 9.1975 1.93869
307 3 -4.57835 11.1 3.19434
242 3 -2.44425 12.0274 5.77446
326 2 -4.37527 13.3513 1.29443
347 2 -4.00065 8.33572 0.140914
321 1 -2.97281 8.10195 0.281619
68 1 -2.24829 7.48494 3.94942
289 4 -5.63993 11.5883 4.26433
18 4 -1.08948 7.31033 5.4462
241 3 -1.49028 13.4221 3.63548
46 4 -1.13392 12.2248 4.83162
79 1 -0.895537 10.5986 3.89215
158 2 0.192869 10.0726 3.98231
159 2 -1.23697 10.8995 2.87552
337 2 0.524504 11.1602 2.56742
112 2 -0.17639 12.5904 1.48206
247 3 0.386949 12.4105 5.65301
228 3 0.331568 7.41857 4.59297
38 4 1.77393 7.58943 3.91659
45 4 1.96155 7.67433 0.71427
243 3 1.26894 9.06209 0.29914
240 3 1.85827 7.37474 2.29643
291 1 2.0614 9.38777 4.33958
41 4 4.10815 6.99688 6.63489
126 2 -1.92689 7.59722 2.92021
161 2 0.299108 8.45477 8.42943
47 4 1.11905 10.6819 0.0923365
70 1 -5.40326 11.9067 6.10377
23 4 -2.351 9.18978 7.93792
25 4 -3.74033 11.8318 6.86117
298 2 1.88577 10.1449 3.38923
211 3 -1.48869 8.39032 6.57574
213 3 -3.66818 10.0398 7.3226
214 3 -3.66035 12.9519 7.95967
299 2 1.40085 9.54426 5.22879
244 3 3.03287 8.09142 7.16935
133 2 -6.02303 12.1974 7.04675
246 3 -0.278825 12.9905 9.13844
210 3 -2.85937 8.23505 9.06802
208 3 -2.32611 8.24293 11.5977
24 4 -5.45278 12.5349 11.3551
114 2 -2.34252 11.9237 10.6623
217 3 -4.25951 12.8114 12.4413
17 4 -3.24697 7.71689 10.4297
328 1 -4.73512 11.0744 10.4677
329 2 -4.07664 10.6774 11.3931
164 2 -1.46781 10.2891 11.4667
356 2 -1.66162 13.5369 11.9187
21 4 -0.868839 7.76691 12.2331
49 4 -1.15055 11.6129 9.4278
232 3 0.125841 7.29886 10.8197
163 2 0.386424 10.5293 10.817
81 1 -0.616747 11.0678 11.1598
165 2 -0.431479 11.8177 11.9384
80 1 1.87535 9.04608 9.3842
160 2 2.65384 7.30174 9.55468
343 2 -6.14643 13.1486 18.1115
113 2 2.45091 9.22834 10.295
253 3 0.473401 11.2255 18.3595
360 2 0.907639 12.7215 15.2747
106 2 -0.33199 13.6298 13.5635
352 2 -1.99403 8.64655 17.347
28 4 -2.66924 12.8132 13.1655
22 4 -3.22739 12.6323 17.6634
72 1 -2.66662 9.10648 14.9303
137 2 -2.93273 9.52022 15.9355
138 2 -2.15341 8.08001 14.9986
139 2 -3.40401 9.23599 14.0733
216 3 -4.46593 12.3046 16.7298
218 3 -2.0173 11.3562 13.6179
51 4 3.14721 9.28882 14.9395
40 4 0.838527 7.07596 9.48126
26 4 -1.17128 10.1109 14.2498
254 3 -1.73699 12.264 17.3234
52 4 -0.216012 11.6191 16.92
215 3 -0.357835 9.04223 13.1359
252 3 -0.423395 10.4285 15.5983
100 2 -5.39445 13.2398 14.1972
84 1 0.712953 13.1586 16.3502
115 2 1.95822 10.2834 13.9923
330 2 -4.0996 11.5777 9.62117
250 3 2.11741 8.39445 15.9234
111 2 3.68525 7.36921 17.2591
92 1 -6.64808 13.8571 15.4849
27 4 -5.69353 12.1319 15.5759
162 2 1.05735 9.87912 9.18041
101 2 -2.72392 13.8666 14.5912
128 2 13.0248 4.00847 6.72443
260 3 5.34205 5.96539 2.99892
75 1 7.16828 2.80802 4.84711
170 2 6.56375 3.48783 4.09659
266 3 7.30454 6.56614 4.7027
255 3 8.05419 1.12716 2.77028
147 2 8.37444 3.67857 5.99739
187 2 10.3607 6.84002 8.13819
53 4 8.52079 2.4369 3.49502
263 3 8.33987 5.6337 0.3796
258 3 8.72261 3.68416 2.57572
55 4 9.45148 4.92238 1.38045
172 2 10.1395 2.09155 4.2175
181 2 9.67688 5.13463 5.17184
59 4 8.63496 6.54273 5.47037
256 3 11.8746 3.75193 4.25885
1 4 14.3783 0.845598 4.89359
85 1 10.9074 3.72291 4.86432
340 2 10.4719 1.99407 1.52189
339 1 11.4007 0.378895 2.02499
88 1 10.1266 6.38529 2.30272
341 2 12.0889 1.34128 2.38123
259 3 11.084 4.21592 0.653359
308 4 10.8087 1.08628 0.0572013
178 2 10.6792 5.98157 3.19581
350 2 11.7045 4.78309 1.19078
316 2 11.4601 2.08641 8.62219
90 1 11.4951 3.19021 8.98065
332 2 8.24911 2.45317 0.639207
34 4 7.09088 3.00057 7.02946
39 4 5.6543 5.34807 8.76992
230 3 6.52595 4.25135 7.79496
233 3 5.05086 6.62484 7.87388
222 3 7.73703 1.71748 7.81508
189 2 8.3108 6.54259 7.28786
32 4 8.31073 0.464891 8.68178
227 3 5.67476 3.79289 1.40852
91 1 9.2712 6.97443 8.43349
3 2 13.0074 1.52886 6.05832
130 2 12.2437 3.8652 8.31329
186 2 10.0802 4.10424 8.44506
361 2 10.5536 0.120601 2.75538
179 2 9.10165 6.86993 2.57666
264 3 6.64283 5.92831 9.97866
73 1 9.1643 1.31826 10.1768
119 2 9.56922 4.01417 11.3076
314 2 9.25541 2.33943 12.0025
355 2 10.1115 1.92697 9.79556
207 3 12.7007 5.92606 16.889
257 3 13.8206 1.53808 11.0595
310 4 10.8223 4.4915 10.1493
270 3 7.57561 6.80592 17.3757
317 3 11.3498 5.9302 10.2312
184 2 12.1634 3.07296 10.5029
140 2 8.28968 1.92611 10.5036
54 4 13.0304 0.890348 12.2753
269 3 6.22831 6.14001 15.3365
364 2 14.8656 0.452441 17.848
362 2 14.3725 0.319543 13.1584
312 2 8.3499 3.47813 13.224
333 2 8.64423 3.75411 18.1807
309 2 10.0551 1.58378 18.3539
334 2 8.57755 1.94 17.8045
311 1 9.37376 3.03955 12.957
120 2 10.2287 6.43067 12.6826
117 2 9.57246 1.78113 14.257
57 4 9.11858 6.48475 17.7638
262 3 9.78898 5.51455 16.6503
134 2 9.96896 6.13239 14.304
141 2 9.45989 0.465371 10.895
346 2 12.7185 4.40282 18.1235
284 2 12.8942 2.93338 15.9078
283 4 13.5846 2.99369 17.4726
315 2 10.5383 4.25327 12.7306
365 3 12.9597 1.72576 18.2223
20 4 11.1599 5.13518 15.9742
60 4 11.0254 2.68616 13.9009
267 3 12.0725 1.81543 13.1376
268 3 11.404 3.62438 15.6157
71 1 11.1864 6.16327 14.3898
135 2 11.7291 5.72413 13.5624
190 2 15.3519 0.670829 14.7647
235 3 6.63571 3.86713 13.7144
188 2 8.96792 6.55562 9.47308
331 1 8.49409 2.74348 18.5906
304 3 9.55811 9.88863 0.9419
335 1 1.45501 11.466 1.81729
155 2 3.82306 7.66788 0.392386
83 1 3.1758 12.7074 5.14349
349 2 3.29709 13.0969 0.45491
180 2 10.879 7.11246 1.53948
338 2 1.4918 12.6416 1.53627
152 2 4.35458 11.8042 3.75851
301 2 3.24934 9.1562 4.62618
166 2 3.86702 11.7853 5.48424
168 2 2.73322 12.6224 4.12401
167 2 3.49426 13.7682 5.4194
296 2 6.9704 7.18841 1.08816
327 2 6.32147 11.8136 5.4183
286 4 5.05167 12.8856 2.66811
297 2 6.21595 10.7086 3.77
121 2 6.24778 8.38482 3.11853
290 1 7.18706 8.27602 1.37945
306 3 5.41368 11.9322 1.45395
292 1 6.46485 10.696 4.92816
300 2 7.58504 10.38 5.09414
293 2 7.76142 11.3791 3.5511
294 2 6.28591 9.06701 1.355
336 2 2.47565 11.0026 2.09668
261 3 4.91872 7.47141 5.1606
295 2 7.89737 8.48166 2.27278
302 2 5.74305 10.0161 5.43173
344 2 6.96453 13.6276 0.717593
287 4 8.26866 9.18875 0.113559
89 1 9.6413 7.95125 4.85562
248 3 2.26401 10.8836 7.12513
56 4 5.94422 7.00819 4.03198
185 2 9.00649 8.49942 4.05848
182 2 10.7046 7.6892 4.43352
132 2 9.40578 10.2709 5.77594
2 1 6.12512 13.6855 6.20427
193 2 10.0312 9.07617 8.0297
249 3 1.91951 13.4789 7.80144
50 4 1.85809 12.4225 6.47327
48 4 2.96736 9.59684 7.93408
5 2 5.31879 12.8983 6.40986
196 2 7.93297 10.18 8.34784
94 1 7.06117 10.9036 8.08928
195 2 6.76375 10.8783 6.94339
273 3 4.41697 9.94522 8.63161
197 2 7.1315 11.9744 8.48539
194 2 8.24565 8.53847 7.56644
183 2 9.84317 8.42102 5.95718
93 1 9.11974 8.45224 8.34626
288 4 6.07552 11.6948 -0.143245
4 2 7.05771 13.5732 6.98475
6 3 6.19864 13.8064 3.39606
276 3 8.75928 10.8014 15.0444
275 3 9.29795 8.62228 13.5836
136 2 11.6024 7.26563 14.5951
303 3 9.72854 7.99158 17.9209
63 4 5.93731 10.2037 9.36074
116 2 6.28642 8.60442 10.2128
281 3 5.89307 11.1319 10.6165
177 2 4.54635 13.1028 11.6717
280 3 8.12899 12.2063 11.974
66 4 6.79384 11.3148 12.2383
272 3 7.95965 7.33141 11.7719
353 2 9.47976 10.385 10.035
62 4 9.37196 7.82711 12.1948
271 3 10.2615 8.54136 11.068
174 2 3.39886 10.8395 12.7545
342 1 7.86834 13.4781 18.4936
173 2 3.09325 11.9753 14.3697
86 1 2.6367 11.2605 13.4574
198 2 2.66615 13.0866 15.9098
251 3 3.87907 8.26746 13.9426
279 3 3.16278 11.3403 18.1646
192 2 8.75098 8.69118 9.40228
122 2 4.4857 12.0257 13.1545
61 4 6.61054 7.33448 16.2897
199 2 4.44599 12.9223 14.8342
176 2 6.10908 12.5939 14.1346
87 1 5.56047 12.4531 13.09
65 4 4.2694 11.4869 16.9032
95 1 3.93157 13.0526 15.8352
118 2 5.27872 7.80563 17.3186
274 3 7.28977 8.51279 15.541
277 3 4.15301 10.2343 15.8631
278 3 5.77417 11.8196 17.6625
282 3 7.093 10.1263 13.1535
191 2 7.48127 12.8843 16.257
64 4 8.07843 9.45555 14.3472
58 4 6.58139 7.12537 11.0781
305 3 8.06499 10.5205 18.6129
359 2 1.55841 13.0671 17.1428
175 2 1.89075 11.876 12.7863
265 3 5.3821 7.14615 11.9987
200 2 4.45071 13.8845 16.3376
ITEM: TIMESTEP
200
ITEM: NUMBER OF ATOMS
365
ITEM: BOX BOUNDS xy xz yz pp pp pp
1.4469266225264477e-01 2.3458508125268875e+01 7.4178459135505346e+00
5.8858058857213180e-02 1.3927748374812616e+01 8.6815487397089119e-01
-2.9541532330329190e-01 1.8617615323303564e+01 1.4030643366989892e-01
ITEM: ATOMS id type x y z
221 3 4.41581 1.73525 9.009
142 2 3.40009 0.252978 3.15283
13 4 1.7946 2.17188 6.17196
11 4 3.26815 0.690059 8.45611
171 2 5.8095 2.5434 6.21205
29 4 6.803 0.294094 2.2814
146 2 6.55835 1.80929 4.83236
145 2 5.38422 2.46628 3.79883
220 3 5.88376 1.12654 1.30102
37 4 4.69139 4.86892 2.211
30 4 3.67208 2.64654 3.79993
74 1 3.03203 1.17062 2.70479
107 2 3.95051 5.88732 0.96518
31 4 5.84402 2.52062 0.392976
143 2 1.95756 1.37357 2.73823
144 2 3.50485 1.32989 1.64911
219 3 3.1433 2.52927 5.29749
226 3 3.46778 4.03315 2.99546
202 3 2.11078 1.18399 7.43204
153 2 3.42218 5.20358 5.04722
260 3 5.37107 5.85159 3.20321
59 4 8.74539 6.62861 5.33366
75 1 7.03268 2.82157 4.77799
186 2 9.82071 4.3843 8.61908
170 2 6.50533 3.63724 4.09242
266 3 7.3395 6.74199 4.67963
181 2 9.70149 5.09615 5.03995
227 3 5.74677 3.76586 1.41002
255 3 8.20359 1.08707 2.67777
189 2 8.54924 6.26079 7.1686
222 3 7.80227 1.94418 8.11828
233 3 5.18256 6.61007 7.8689
230 3 6.71801 4.41685 7.85119
39 4 5.7761 5.42164 8.76269
34 4 7.11996 3.08536 7.23212
332 2 8.3788 2.54972 0.384437
147 2 8.37318 3.38604 6.02713
187 2 10.5437 6.93809 8.07127
53 4 8.39539 2.50666 3.43124
178 2 10.8583 5.83945 3.26748
263 3 8.66687 5.44375 0.245579
258 3 8.94611 3.67286 2.52151
55 4 9.51131 4.84858 1.51717
88 1 10.319 6.29948 2.36929
108 2 3.61092 4.58061 6.94589
179 2 9.31846 6.82932 2.60442
317 3 11.2298 6.16851 10.3831
99 2 4.25599 0.34625 18.494
33 4 4.28514 2.98893 10.028
103 2 2.73325 2.96442 10.5437
229 3 4.35407 4.43406 9.43592
357 2 6.17928 0.949898 14.7179
234 3 4.75568 3.90136 15.917
225 3 5.19537 2.93581 11.3173
105 2 7.35917 1.59189 12.5852
212 3 2.30413 0.383546 9.99417
148 2 4.78914 0.898486 16.3125
42 4 5.41128 4.93859 14.7382
35 4 4.21923 3.04434 17.1207
358 2 4.76569 1.83384 13.6812
363 2 1.37476 1.05161 15.9697
82 1 6.24744 0.57767 13.6604
223 3 5.65208 2.67572 18.2232
36 4 5.89837 2.73257 12.6931
123 2 2.65682 1.60292 12.4569
104 2 1.76362 1.55143 14.2048
154 2 4.55019 5.73697 18.0572
124 2 3.2186 2.86171 13.889
149 2 3.40405 1.51327 15.2239
67 1 2.40116 2.15601 13.4291
76 1 3.79471 1.3875 16.3182
150 2 2.99782 0.834489 16.9153
239 3 4.26159 5.53464 13.8416
264 3 6.65488 6.09145 9.88525
331 1 8.497 2.46041 18.4936
188 2 9.15517 6.76049 9.35398
235 3 6.47336 3.99485 13.4543
119 2 9.4367 4.38704 11.549
314 2 9.29467 2.38086 11.9487
71 1 11.013 6.22111 14.3342
270 3 7.50674 6.78041 17.6422
140 2 8.36151 1.60494 10.856
269 3 6.15308 6.07674 15.5366
312 2 8.27095 3.49138 13.1208
333 2 8.48602 3.20091 17.692
334 2 8.45954 1.3669 18.1617
311 1 9.28637 3.02076 12.9666
120 2 10.2967 6.22301 12.5394
57 4 9.18399 6.53051 17.758
262 3 9.70738 5.48574 16.6216
134 2 9.87344 6.21102 14.2601
224 3 2.86001 3.35298 17.9015
315 2 10.4662 4.28784 12.9628
210 3 12.2998 8.27487 8.84492
192 2 8.49128 8.6872 9.07943
180 2 11.0638 7.03244 1.66391
133 2 8.82388 12.3942 6.73974
325 2 12.0735 11.5198 0.974713
354 2 9.84305 13.4209 4.75784
324 1 10.4668 12.3512 0.599276
348 2 9.32089 11.9634 0.491606
285 4 10.8061 10.4301 1.74782
98 2 12.0312 9.15805 1.9906
307 3 10.3131 10.9798 3.13542
242 3 12.4913 12.199 5.72596
326 2 10.4539 13.2265 1.34524
347 2 11.2062 8.2762 -0.182999
214 3 11.2822 12.9669 7.94944
213 3 11.3007 10.1484 7.47828
289 4 9.30237 11.6235 4.18474
25 4 11.2801 11.9435 6.79354
241 3 13.5346 13.4909 3.61516
46 4 13.7445 12.2687 4.79003
23 4 12.7676 9.35968 7.78423
70 1 9.6828 12.2304 5.998
304 3 9.68118 9.71534 0.960349
305 3 7.37608 10.5165 -0.285442
296 2 7.28444 7.15017 1.30115
295 2 8.03178 8.61467 2.41333
93 1 9.00403 8.40238 8.08602
183 2 9.76798 8.51389 6.01559
194 2 8.27174 8.35745 7.2113
287 4 8.42066 9.15201 0.208781
121 2 6.16198 8.39142 3.0984
195 2 6.60346 10.979 6.99404
94 1 6.87399 11.0977 8.13072
196 2 7.88398 10.4598 8.45204
290 1 7.31855 8.30099 1.50234
292 1 6.39115 10.6763 5.00352
300 2 7.49517 10.3315 5.133
293 2 7.62727 11.4233 3.69397
193 2 10.0189 9.13548 7.85139
294 2 6.33444 8.83364 1.29271
132 2 9.37517 10.5234 5.66595
182 2 10.9575 7.66133 4.51259
185 2 9.20294 8.60637 4.13772
56 4 5.88748 7.0179 4.11473
261 3 4.84382 7.36429 5.28507
89 1 9.84202 7.97402 4.87106
91 1 9.42281 7.02125 8.26805
297 2 6.13897 10.515 3.83955
41 4 4.23816 7.01873 6.64065
101 2 11.9501 13.8531 14.4493
24 4 9.68879 12.7688 11.204
114 2 12.6746 12.0284 10.5035
217 3 10.9014 12.904 12.3493
17 4 11.7528 7.80343 10.2584
328 1 9.97775 11.1379 10.3069
329 2 11.0055 10.9418 10.7005
164 2 13.468 10.3249 11.5885
356 2 13.3815 13.605 11.8859
27 4 9.14369 12.152 15.6785
49 4 13.9872 11.677 9.41521
169 2 14.7377 13.8331 16.5284
330 2 9.92418 11.2946 9.18886
100 2 9.10372 13.2969 14.2555
254 3 13.0695 11.8213 17.3707
218 3 12.9577 11.3414 13.6212
216 3 10.4384 12.3255 16.7093
343 2 8.98214 13.3385 18.5083
139 2 11.7117 9.10662 14.2614
137 2 12.0228 9.52565 16.0443
72 1 12.4584 9.01094 15.1467
246 3 14.715 13.0132 9.1736
22 4 11.6544 12.4505 17.6771
28 4 12.318 12.7882 13.0348
276 3 8.64362 10.7579 15.0057
275 3 9.24623 8.56508 13.5688
265 3 5.54843 7.1148 12.0729
136 2 11.5438 7.3265 14.5769
303 3 9.82948 8.04868 17.8985
106 2 14.4636 13.568 13.5325
58 4 6.72734 7.22901 10.9859
64 4 8.00685 9.40091 14.2435
116 2 6.3247 8.78795 10.2361
282 3 6.9702 10.0397 13.1179
280 3 8.06488 12.3131 11.7896
61 4 6.69877 7.27285 16.3523
274 3 7.15125 8.48333 15.4483
118 2 5.3322 7.82467 17.2448
272 3 8.15247 7.25606 11.4782
353 2 9.22409 10.4307 10.7472
62 4 9.43277 7.73466 12.174
271 3 10.3162 8.51739 10.9443
165 2 14.417 11.9616 11.9527
128 2 12.9838 3.89652 6.6484
361 2 10.5363 0.281076 2.79724
130 2 12.0829 3.95378 8.39586
3 2 12.8862 1.44838 6.09088
32 4 8.41847 0.551223 8.65809
90 1 11.3095 3.44098 9.08809
316 2 11.2055 2.38199 8.74074
350 2 11.6664 4.23392 1.25318
308 4 10.9216 1.17047 0.0963059
259 3 10.9955 4.09661 0.501721
341 2 12.0757 1.42402 2.4645
339 1 11.4491 0.4839 2.11058
172 2 9.72228 2.31326 4.56609
340 2 10.8981 2.22744 1.64581
85 1 10.991 3.81294 4.5677
256 3 12.1073 3.73227 4.45681
1 4 14.3001 0.777043 4.89028
127 2 12.2182 6.40757 4.28222
320 2 13.9494 5.78426 3.0226
129 2 12.9232 5.26565 7.9612
318 1 14.4175 5.00502 2.28995
319 2 14.1483 3.99824 2.65288
77 1 18.2922 5.37398 6.17657
205 3 15.9604 3.33725 6.77243
109 2 17.6909 6.25266 4.54764
151 2 17.2049 5.72932 6.39056
351 2 15.5506 5.18126 2.16837
8 2 15.5693 1.33262 0.218699
69 1 13.4774 4.77905 7.12042
16 4 15.0041 4.11021 7.8913
313 2 13.9045 5.61542 6.02582
322 2 12.653 6.72255 0.47388
201 3 15.6967 1.4544 5.18593
9 2 15.2851 3.78806 0.957426
344 2 14.4094 0.0920036 0.720683
102 2 13.8829 5.14246 1.28135
231 3 15.6793 5.69663 8.71758
156 2 16.3566 6.31885 -0.14783
190 2 14.9431 0.848198 15.0378
73 1 9.23946 1.24245 10.2405
135 2 11.5631 5.64215 13.5286
268 3 11.5764 3.70888 15.4814
355 2 10.0352 2.04003 9.78203
207 3 12.6681 6.02253 16.7302
257 3 14.0195 1.39348 11.1995
310 4 10.5788 4.69057 10.2933
267 3 12.021 1.79816 13.1246
236 3 15.9578 6.37037 14.7824
184 2 12.0968 3.42109 10.5187
60 4 10.9315 2.67806 13.8971
54 4 13.1127 0.908411 12.3566
20 4 11.1362 5.18707 15.9216
7 4 16.4418 3.01266 18.3953
362 2 14.3699 0.407448 13.3982
365 3 12.9708 1.70934 17.9874
204 3 14.4602 3.1239 9.18582
309 2 10.223 1.64641 18.2206
283 4 13.597 2.9956 17.3836
284 2 13.0873 3.38623 15.7612
346 2 12.8788 4.35851 18.1754
117 2 9.44818 1.61019 14.2155