ITEM: TIMESTEP
0
ITEM: NUMBER OF ATOMS
365
ITEM: BOX BOUNDS xy xz yz pp pp pp
-7.4652760996916232e+00 1.6040662211718338e+01 -7.6099687619442680e+00
5.8858058857213180e-02 1.3908835344166008e+01 8.6815487397089119e-01
-2.9541532330329190e-01 1.8617615323303564e+01 1.2139340302329137e-01
ITEM: ATOMS id type x y z
127 2 -2.89937 6.37154 4.39675
142 2 4.04876 0.314778 3.06536
320 2 -1.3611 6.10957 2.82473
318 1 -0.775091 5.2352 2.10499
319 2 -1.29997 4.2542 2.19252
351 2 0.286818 5.08662 2.43261
201 3 0.714367 1.52656 5.13579
9 2 0.0147636 3.88725 0.884025
102 2 -0.852393 5.60413 1.03673
231 3 0.642206 5.78076 8.694
30 4 3.72205 2.53686 3.78856
74 1 3.10419 0.98209 2.89029
107 2 3.72517 5.66912 0.801319
156 2 1.62749 6.02787 0.0465389
143 2 2.14146 0.60109 3.40765
144 2 2.96876 1.19144 1.78615
219 3 3.12044 2.56994 5.3842
226 3 3.51376 3.942 2.87994
109 2 2.76194 6.19421 4.51869
153 2 3.04632 4.83213 5.54587
202 3 2.07831 1.16657 7.42338
31 4 5.88187 2.44627 0.504903
37 4 4.60091 4.83198 2.04721
220 3 5.88817 1.04903 1.40793
145 2 5.43834 2.24563 3.91531
204 3 -0.435786 3.05043 8.94502
146 2 6.86267 1.62215 4.69826
29 4 6.93099 0.15621 2.27996
322 2 -2.49045 6.54452 0.560255
313 2 -1.11759 5.51751 5.94898
16 4 0.101131 4.16471 7.83653
69 1 -1.48192 4.72295 6.9427
8 2 0.40945 1.44207 0.272605
171 2 5.63532 2.56078 6.0181
151 2 1.99542 5.95445 6.41935
108 2 3.28797 5.11223 7.44005
205 3 1.11427 3.69254 6.76322
77 1 3.00308 5.53508 6.36741
11 4 3.21603 0.606884 8.49747
13 4 1.73594 2.15562 6.2254
129 2 -2.14926 5.18284 7.74065
12 4 -0.012529 2.18649 10.1938
203 3 0.869561 3.02652 11.2892
33 4 4.08097 2.9809 10.0725
103 2 2.5103 3.20909 10.5133
238 3 2.47205 6.69062 11.8854
357 2 6.37272 1.22844 14.6262
125 2 2.12545 5.44276 12.3905
225 3 4.91127 2.82081 11.3572
105 2 7.12233 1.51213 12.1287
92 1 0.97479 0.360689 15.3674
19 4 -0.284929 5.5386 14.4161
209 3 -1.04535 6.58942 13.4067
97 2 -1.31168 5.29186 15.8335
10 3 0.0103928 3.2507 17.6037
363 2 1.5491 1.20456 15.9122
345 2 0.976228 0.970994 9.58647
206 3 0.0794993 4.08436 13.7657
7 4 1.26 3.07382 18.4426
123 2 2.82901 1.96756 12.3549
104 2 1.89768 1.63258 14.0662
14 4 1.31203 3.74455 12.713
124 2 3.2951 3.14227 13.75
236 3 1.09523 6.18963 15.0464
67 1 2.49746 2.46685 13.3069
76 1 3.75593 1.71867 16.1796
150 2 3.01357 1.21307 16.8328
224 3 2.79381 3.38845 17.9472
239 3 4.19988 5.5314 13.9142
149 2 3.30796 1.95042 15.0779
110 2 2.53513 6.01271 17.1723
154 2 4.67463 5.91287 17.91
36 4 5.81293 2.58781 12.6778
223 3 5.42914 2.64186 18.1913
82 1 6.46789 0.647434 13.6729
358 2 4.85678 1.67734 13.8304
35 4 4.26635 3.18588 17.2628
42 4 5.42436 4.97938 14.7261
148 2 4.75495 1.12455 16.2343
234 3 4.85473 4.0826 16.0208
78 1 4.00874 6.83028 18.1949
44 4 4.1265 6.89451 13.0148
229 3 4.40266 4.40754 9.20336
207 3 -2.30727 6.05221 16.7459
169 2 7.5141 0.418195 16.1468
221 3 4.19133 1.69189 9.17641
99 2 4.128 0.514221 18.5767
245 3 -1.16069 10.2917 8.335
131 2 -2.79091 8.48962 4.53286
323 2 -2.36037 8.86521 0.265134
157 2 -1.60172 9.98154 4.65209
325 2 -3.00865 11.3789 0.821087
354 2 -4.9851 13.3027 5.01768
324 1 -4.58662 12.436 0.547472
348 2 -5.68615 12.0602 0.328829
285 4 -4.29384 10.4794 1.64152
98 2 -3.15187 9.13043 1.86666
307 3 -4.6976 11.0842 3.06247
242 3 -2.33436 12.0918 5.85099
326 2 -4.55425 13.2349 1.38518
347 2 -4.18913 8.15367 -0.220058
321 1 -3.13991 8.01529 0.362362
68 1 -2.3498 7.40076 4.04949
289 4 -5.6491 11.571 4.34058
18 4 -1.02852 7.289 5.39889
241 3 -1.34678 13.371 3.65029
46 4 -1.07483 12.2465 4.8178
79 1 -0.835616 10.5327 3.99221
158 2 0.23387 10.129 4.13437
159 2 -1.16296 10.5437 2.97026
337 2 0.510872 11.0781 2.6019
112 2 -0.266135 12.5152 1.31084
247 3 0.462423 12.3804 5.59282
228 3 0.355969 7.47712 4.58312
38 4 1.82602 7.5454 3.95128
45 4 2.07406 7.72051 0.75685
243 3 1.25308 9.02361 0.204661
240 3 1.85658 7.38692 2.33768
291 1 2.12083 9.38608 4.17984
162 2 0.931686 9.88743 8.88072
126 2 -2.28096 7.36797 2.85111
161 2 0.262803 8.33907 8.28669
47 4 1.18994 10.7576 -0.00323037
70 1 -5.11523 12.022 6.14019
23 4 -2.33677 9.20451 7.79193
25 4 -3.45567 11.8106 6.95573
298 2 1.87702 10.1387 3.25055
211 3 -1.62554 8.30738 6.52838
213 3 -3.72906 9.9991 7.425
214 3 -3.65774 12.9245 8.06042
299 2 1.57347 9.59428 5.09878
244 3 3.16919 8.28501 6.83725
133 2 -5.93307 12.3947 6.81567
246 3 -0.34539 12.9486 9.04413
210 3 -2.79856 8.11757 9.07056
335 1 1.39223 11.5099 1.79944
208 3 -2.42682 8.00604 11.6981
24 4 -5.17603 12.6085 11.3353
114 2 -2.40178 11.8178 10.5366
217 3 -3.95629 12.8722 12.4718
17 4 -3.35377 7.56991 10.5071
328 1 -4.6628 10.9696 10.5442
329 2 -3.83365 10.2969 10.8738
164 2 -1.61453 10.6017 11.6254
356 2 -1.48401 13.3938 12.074
21 4 -0.935734 7.73873 12.2992
49 4 -1.06257 11.6225 9.44548
232 3 -0.0176843 7.47803 10.9811
163 2 0.167449 10.2848 10.8347
81 1 -0.703506 11.1078 11.2231
165 2 -0.216194 11.9143 11.9177
237 3 0.161811 7.15582 17.2063
160 2 2.44332 7.39654 9.70965
343 2 -6.04696 12.9613 18.0555
113 2 2.4009 9.54657 10.1053
253 3 0.687089 11.3199 18.3552
360 2 0.717709 12.8985 15.0277
106 2 -0.240093 13.7074 13.7458
352 2 -2.16601 8.67121 17.4468
28 4 -2.61688 12.7015 13.2783
22 4 -3.2718 12.728 17.6661
72 1 -2.74563 8.97307 14.7113
137 2 -3.51585 9.73721 15.0548
138 2 -2.42598 8.20805 15.47
139 2 -3.10271 8.52022 13.7411
216 3 -4.38398 12.5019 16.619
218 3 -1.97646 11.2006 13.6339
15 4 -1.35582 7.08641 17.5998
40 4 0.658181 7.21248 9.62876
26 4 -1.17074 10.0106 14.3008
254 3 -1.7006 12.3206 17.447
52 4 -0.238339 11.801 16.9556
215 3 -0.34879 9.25146 13.1665
252 3 -0.441884 10.5674 15.6964
100 2 -5.46363 13.4804 14.1238
84 1 0.606194 13.2764 16.0982
115 2 2.07267 10.3701 14.0028
330 2 -4.4836 11.4431 9.46752
250 3 2.23758 8.39492 15.8365
111 2 3.66978 7.39967 17.2748
96 2 1.86725 7.16495 12.5895
27 4 -5.58092 12.2766 15.5511
101 2 -2.66549 13.6506 14.6857
212 3 -5.31219 13.8045 10.0605
43 4 1.53208 7.08892 16.2808
80 1 1.77251 9.11769 9.18969
51 4 3.27455 9.28275 14.9115
128 2 13.1521 3.76701 6.50042
260 3 5.18983 5.96049 2.90796
75 1 7.13125 2.73809 4.73733
170 2 6.67235 3.58463 3.93607
266 3 7.21534 6.53341 4.65363
255 3 8.36062 0.980975 2.62443
147 2 8.41872 3.4806 5.76743
187 2 10.3269 6.64887 8.33228
53 4 8.5673 2.46425 3.38813
263 3 8.4611 5.57954 0.439588
258 3 8.80259 3.74346 2.55021
55 4 9.31744 5.01917 1.61028
172 2 9.87772 2.23996 4.5292
181 2 9.49555 4.8168 4.97201
59 4 8.55075 6.28424 5.44591
256 3 11.7361 3.82022 4.309
1 4 14.3675 0.726617 4.8179
85 1 10.9915 3.69324 5.14595
340 2 10.5417 2.04474 1.50767
339 1 11.2439 0.380211 2.15115
88 1 9.92931 6.56467 2.51822
341 2 11.8529 1.32363 2.66467
259 3 10.9499 4.25324 0.810786
308 4 10.784 0.997663 0.10719
178 2 10.3303 6.16159 3.50302
350 2 11.5448 4.86753 1.34688
316 2 11.405 2.14688 8.54558
90 1 11.4767 3.16408 8.89655
332 2 8.29499 2.40015 0.55921
34 4 7.07792 2.9595 6.95773
39 4 5.71984 5.20514 8.7326
230 3 6.6804 4.27812 7.7481
233 3 5.3264 6.56959 7.77836
222 3 7.48487 1.6388 7.76247
189 2 8.34062 6.31537 7.25871
32 4 8.30511 0.525015 8.53762
91 1 9.30986 6.85356 8.54654
56 4 5.77977 6.93535 3.98276
3 2 12.8447 1.30724 5.93277
130 2 12.2481 3.72712 8.21237
186 2 10.0521 3.85745 8.60339
227 3 5.83717 3.86445 1.42594
167 2 11.2622 0.131007 5.75219
264 3 6.59862 5.81042 9.91728
73 1 9.1134 1.28535 10.1014
119 2 9.69058 3.88378 11.4946
314 2 9.18976 2.29522 11.8805
355 2 10.0424 2.0165 9.69113
331 1 8.49352 2.56958 18.5566
257 3 13.8184 1.41901 10.9153
310 4 10.9303 4.37412 10.3357
270 3 7.40507 6.75577 17.4528
317 3 11.4005 5.85984 10.3379
184 2 12.1126 3.07427 10.5736
140 2 8.16821 1.88341 10.4846
54 4 13.0276 0.957656 12.204
269 3 6.28888 6.21179 15.2525
364 2 15.2579 0.496149 17.9587
362 2 14.2985 0.283966 13.3053
312 2 8.22235 3.29691 13.2874
333 2 8.57204 3.57938 18.0194
309 2 10.07 1.42693 18.43
334 2 8.70219 1.70755 17.8775
311 1 9.22633 2.83927 12.9998
120 2 9.98632 6.21251 12.6565
117 2 9.49473 1.54673 14.1366
57 4 9.02421 6.58239 17.7742
262 3 9.81379 5.61958 16.8065
134 2 9.76992 6.17472 14.4677
141 2 9.49571 0.46564 10.7639
346 2 12.7304 4.34252 18.4062
284 2 12.8942 3.40833 16.0039
283 4 13.4296 3.05109 17.5749
315 2 10.3733 4.1578 13.0182
365 3 12.8523 1.66149 18.0983
20 4 11.0944 5.09076 16.0319
60 4 10.9668 2.70751 13.8423
267 3 12.045 1.84887 13.0871
268 3 11.3881 3.62745 15.5508
71 1 10.9275 6.03284 14.4362
135 2 11.3734 5.34835 13.6155
190 2 15.0497 0.728516 14.9165
235 3 6.36228 3.96122 13.5185
188 2 8.98576 6.41217 9.51993
304 3 9.46072 9.79235 0.924326
361 2 2.83084 13.593 2.84998
155 2 3.86553 7.89569 0.451603
83 1 3.30988 12.8111 5.36142
349 2 3.37068 13.0385 0.560865
180 2 10.7269 7.14972 1.73394
338 2 1.4177 12.61 1.67384
152 2 4.0424 11.9296 3.7278
301 2 3.28169 9.25713 4.37969
166 2 4.13584 12.0047 5.46097
168 2 2.70312 12.8891 4.43662
6 3 6.2738 13.6481 3.51055
296 2 7.00543 7.32329 1.38663
327 2 6.26627 11.8268 5.46541
286 4 4.95366 12.8724 2.59666
297 2 6.28557 10.7621 3.7735
121 2 5.98786 8.43352 3.15663
290 1 7.09567 8.4274 1.51527
306 3 5.50001 12.0425 1.29097
292 1 6.4033 10.689 4.88445
300 2 7.40292 10.3123 5.15635
293 2 7.73815 11.8506 3.92987
294 2 6.06087 8.94265 1.36837
336 2 2.46886 11.0559 2.00289
261 3 4.83589 7.25511 5.13823
295 2 7.7793 8.74896 2.38831
302 2 5.57229 9.96463 5.33835
344 2 7.30311 13.5971 0.799253
287 4 8.1892 9.1905 0.124976
89 1 9.70136 7.67849 5.15729
248 3 2.28292 10.8522 6.99197
179 2 8.88627 7.02962 2.62334
185 2 8.94259 8.33467 4.51331
182 2 10.7304 7.47826 4.69068
132 2 9.48653 10.3428 5.84106
2 1 6.18206 13.6771 6.2541
193 2 9.83797 8.91199 7.91351
249 3 1.9566 13.5563 7.64392
50 4 1.87074 12.3066 6.57826
48 4 2.94556 9.5792 7.76084
5 2 5.40655 12.9309 6.47524
196 2 7.9503 10.2031 8.37969
94 1 7.0688 10.8667 8.1175
195 2 6.79046 10.8629 6.97672
273 3 4.48706 9.98737 8.51312
197 2 7.27073 11.862 8.56801
194 2 7.98452 8.12744 7.63226
183 2 9.68834 8.03333 6.31869
93 1 8.96291 8.24443 8.35891
4 2 6.95576 13.7419 7.08781
41 4 4.15926 7.12907 6.51842
288 4 6.13265 11.7221 -0.282876
276 3 8.84669 10.8633 15.0873
275 3 9.28516 8.546 13.6799
136 2 11.4762 7.09605 14.4544
303 3 9.59311 8.20663 17.9597
63 4 5.9128 10.1384 9.33095
116 2 6.27121 8.54138 10.0465
281 3 6.20083 10.8626 10.7393
177 2 4.43542 13.3262 11.6116
280 3 8.40326 12.2237 11.8915
66 4 6.89055 11.3727 12.2156
272 3 7.88811 7.35361 11.6406
353 2 9.31396 10.4824 10.6729
62 4 9.28415 7.71226 12.3152
271 3 10.1096 8.23864 11.0058
174 2 3.50932 10.9218 12.7178
175 2 1.81666 11.9211 12.8615
173 2 3.09092 11.981 14.265
86 1 2.63524 11.3248 13.4188
198 2 2.86933 13.2106 15.6378
251 3 3.95406 8.22383 13.9278
279 3 3.27569 11.391 18.0838
192 2 8.64999 8.56064 9.4627
122 2 4.52253 12.03 13.0567
61 4 6.68311 7.3936 16.2082
199 2 4.58332 12.8962 14.7355
176 2 6.11742 12.5595 14.0615
87 1 5.56964 12.5105 12.9689
65 4 4.34648 11.4522 16.9147
95 1 4.00335 13.0227 15.7528
118 2 5.28491 7.91466 17.1088
274 3 7.28464 8.64244 15.5054
277 3 4.16677 10.173 15.9228
278 3 5.90428 11.8886 17.4239
282 3 7.0665 10.1393 13.1423
191 2 8.00968 13.2215 16.2393
64 4 8.05114 9.63769 14.3615
58 4 6.54632 7.04436 10.9493
305 3 7.92728 10.6523 18.5352
359 2 1.6132 13.5759 16.5248
265 3 5.28703 7.06321 11.9462
200 2 4.47631 13.7434 16.5068
342 1 8.10067 13.4631 18.5969
ITEM: TIMESTEP
100
ITEM: NUMBER OF ATOMS
365
ITEM: BOX BOUNDS xy xz yz pp pp pp
-7.4652760996916232e+00 1.6040662211718338e+01 -7.6099687619442680e+00
5.8858058857213180e-02 1.3915760332808663e+01 8.6815487397089119e-01
-2.9541532330329190e-01 1.8617615323303564e+01 1.2145409972480259e-01
ITEM: ATOMS id type x y z
127 2 -2.80808 6.37743 4.34628
142 2 4.03046 0.440812 2.90755
320 2 -1.20741 6.00354 2.97296
318 1 -0.610527 5.10763 2.45903
319 2 -0.947223 4.06984 2.86444
351 2 0.486532 5.27205 2.63978
201 3 0.822099 1.31653 5.12083
9 2 0.101068 3.78836 1.04962
102 2 -0.843036 5.28648 1.39895
231 3 0.51091 5.64866 8.70103
30 4 3.76192 2.51031 3.85254
74 1 3.08795 1.14058 2.69031
107 2 3.63284 5.62338 0.866024
156 2 1.27937 6.20055 -0.16836
143 2 2.13785 0.713528 3.16263
144 2 2.96122 1.50948 1.67271
219 3 3.02328 2.54171 5.32024
226 3 3.65413 3.94928 2.97426
109 2 2.72007 6.23216 4.50176
153 2 3.54281 4.803 5.46842
202 3 2.1968 1.33887 7.45352
31 4 5.84366 2.43937 0.500531
37 4 4.59845 4.88295 2.07528
220 3 5.81487 1.06136 1.32434
145 2 5.48607 2.08835 4.15305
204 3 -0.496134 3.01337 8.95791
146 2 6.90217 1.58052 4.86344
29 4 6.80225 0.22975 2.30737
322 2 -2.44726 6.63688 0.788605
313 2 -1.27802 5.64212 6.12864
16 4 -0.00041931 4.3518 8.05022
69 1 -1.56375 4.91718 7.14522
8 2 0.364041 1.36042 0.104226
171 2 5.74503 2.33598 6.07623
151 2 1.95598 5.84381 6.06137
108 2 3.00045 4.78661 7.19335
205 3 1.06346 3.64025 6.77122
77 1 3.00128 5.4303 6.28356
11 4 3.19022 0.685715 8.51721
13 4 1.74651 2.26663 6.25661
129 2 -2.2482 5.39435 7.9159
221 3 4.37451 1.94932 8.75693
12 4 -0.0392304 2.18679 10.2303
203 3 1.0094 2.99496 11.1551
33 4 4.21084 3.01214 9.91302
103 2 2.65225 2.96972 10.5062
238 3 2.77317 6.45887 11.5537
357 2 6.38883 1.13105 14.6806
125 2 2.36873 5.27015 12.095
225 3 5.13969 2.83726 11.3622
105 2 7.34061 1.48335 12.2009
212 3 2.27166 0.205545 9.89887
19 4 -0.3078 5.57873 14.2578
209 3 -1.16519 6.53311 13.2574
97 2 -1.2504 5.31213 15.6636
10 3 0.0337333 3.34358 17.4277
363 2 1.49858 0.785102 16.2337
345 2 0.908573 0.975265 9.5665
206 3 0.252987 4.03389 13.6386
7 4 1.2426 3.11878 18.4546
123 2 2.74992 1.70918 12.5634
104 2 1.72692 1.62262 14.2891
14 4 1.41467 3.70473 12.6386
124 2 3.16761 3.01865 13.9528
236 3 0.959526 6.34624 14.8234
67 1 2.36981 2.33367 13.4481
76 1 3.92251 1.33814 16.2719
150 2 3.23936 0.95608 17.0661
224 3 2.58341 3.32671 17.8814
239 3 4.18659 5.50187 13.7842
149 2 3.43807 1.68207 15.265
110 2 2.48767 5.92766 16.9848
154 2 4.45097 5.8959 17.7869
36 4 6.00223 2.64265 12.7602
223 3 5.60556 2.73096 18.2134
82 1 6.44907 0.708342 13.6167
358 2 4.81769 1.81575 13.7285
35 4 4.34825 2.9858 16.9728
42 4 5.41149 4.98207 14.6609
148 2 5.09685 0.98739 16.2826
234 3 4.74249 4.03056 15.871
78 1 3.88056 6.72695 18.1476
44 4 4.17023 6.94448 13.0021
229 3 4.40627 4.53456 9.32836
99 2 4.38945 0.478246 18.43
169 2 7.87231 0.48715 16.3242
15 4 -1.42358 6.96508 17.7363
237 3 0.0898985 6.97788 17.2624
96 2 2.06543 6.99592 12.0676
43 4 1.36528 7.0325 16.2544
245 3 -1.34066 10.3727 8.54735
131 2 -2.82433 8.45182 4.30327
323 2 -2.19282 8.94679 0.378791
157 2 -1.69557 10.03 4.48621
325 2 -2.90966 11.3003 0.748669
354 2 -5.17791 13.2947 5.03267
324 1 -4.44284 12.4331 0.531354
348 2 -5.5653 12.1038 0.41732
285 4 -4.18155 10.5149 1.69988
98 2 -3.08966 9.20095 1.93869
307 3 -4.57835 11.1038 3.19434
242 3 -2.44425 12.0303 5.77446
326 2 -4.37527 13.3571 1.29443
347 2 -4.00065 8.33964 0.140914
321 1 -2.97281 8.10568 0.281619
68 1 -2.24829 7.48653 3.94942
289 4 -5.63993 11.5917 4.26433
18 4 -1.08948 7.31108 5.4462
241 3 -1.49028 13.4268 3.63548
46 4 -1.13392 12.2284 4.83162
79 1 -0.895537 10.6018 3.89215
158 2 0.192869 10.0754 3.98231
159 2 -1.23697 10.9033 2.87552
337 2 0.524504 11.1643 2.56742
112 2 -0.17639 12.5957 1.48206
247 3 0.386949 12.4137 5.65301
228 3 0.331568 7.4198 4.59297
38 4 1.77393 7.59109 3.91659
45 4 1.96155 7.67763 0.71427
243 3 1.26894 9.06629 0.29914
240 3 1.85827 7.3771 2.29643
291 1 2.0614 9.39011 4.33958
41 4 4.10815 6.99688 6.63489
126 2 -1.92689 7.59938 2.92021
161 2 0.299108 8.4546 8.42943
47 4 1.11905 10.687 0.0923365
70 1 -5.40326 11.9094 6.10377
23 4 -2.351 9.19023 7.93792
25 4 -3.74033 11.8341 6.86117
298 2 1.88577 10.1481 3.38923
211 3 -1.48869 8.39105 6.57574
213 3 -3.66818 10.041 7.3226
214 3 -3.66035 12.9542 7.95967
299 2 1.40085 9.54624 5.22879
244 3 3.03287 8.0917 7.16935
133 2 -6.02303 12.1998 7.04675
246 3 -0.278825 12.9923 9.13844
210 3 -2.85937 8.23445 9.06802
208 3 -2.32611 8.24107 11.5977
24 4 -5.45278 12.5353 11.3551
114 2 -2.34252 11.9241 10.6623
217 3 -4.25951 12.8114 12.4413
17 4 -3.24697 7.71536 10.4297
328 1 -4.73512 11.0745 10.4677
329 2 -4.07664 10.6768 11.3931
164 2 -1.46781 10.2884 11.4667
356 2 -1.66162 13.5375 11.9187
21 4 -0.868839 7.7645 12.2331
49 4 -1.15055 11.6138 9.4278
232 3 0.125841 7.29692 10.8197
163 2 0.386424 10.529 10.817
81 1 -0.616747 11.0676 11.1598
165 2 -0.431479 11.8174 11.9384
80 1 1.87535 9.04573 9.3842
160 2 2.65384 7.30044 9.55468
343 2 -6.14643 13.1459 18.1115
113 2 2.45091 9.22763 10.295
253 3 0.473401 11.2218 18.3595
360 2 0.907639 12.72 15.2747
106 2 -0.33199 13.6297 13.5635
352 2 -1.99403 8.64202 17.347
28 4 -2.66924 12.8128 13.1655
22 4 -3.22739 12.6296 17.6634
72 1 -2.66662 9.10338 14.9303
137 2 -2.93273 9.51683 15.9355
138 2 -2.15341 8.07637 14.9986
139 2 -3.40401 9.23339 14.0733
216 3 -4.46593 12.3022 16.7298
218 3 -2.0173 11.3549 13.6179
51 4 3.14721 9.28581 14.9395
40 4 0.838527 7.07458 9.48126
26 4 -1.17128 10.1087 14.2498
254 3 -1.73699 12.2613 17.3234
52 4 -0.216012 11.6163 16.92
215 3 -0.357835 9.04 13.1359
252 3 -0.423395 10.4257 15.5983
100 2 -5.39445 13.2391 14.1972
84 1 0.712953 13.1568 16.3502
115 2 1.95822 10.2814 13.9923
330 2 -4.0996 11.5785 9.62117
250 3 2.11741 8.3905 15.9234
111 2 3.68525 7.36409 17.2591
92 1 -6.64808 13.8561 15.4849
27 4 -5.69353 12.13 15.5759
162 2 1.05735 9.87929 9.18041
101 2 -2.72392 13.866 14.5912
128 2 13.0248 4.00693 6.72443
260 3 5.34205 5.9667 2.99892
75 1 7.16828 2.80682 4.84711
170 2 6.56375 3.48735 4.09659
266 3 7.30454 6.56689 4.7027
255 3 8.05419 1.12616 2.77028
147 2 8.37444 3.67723 5.99739
187 2 10.3607 6.8392 8.13819
53 4 8.52079 2.43619 3.49502
263 3 8.33987 5.63615 0.3796
258 3 8.72261 3.68454 2.57572
55 4 9.45148 4.92398 1.38045
172 2 10.1395 2.09031 4.2175
181 2 9.67688 5.13443 5.17184
59 4 8.63496 6.54308 5.47037
256 3 11.8746 3.7515 4.25885
1 4 14.3783 0.843396 4.89359
85 1 10.9074 3.72216 4.86432
340 2 10.4719 1.99413 1.52189
339 1 11.4007 0.377894 2.02499
88 1 10.1266 6.38715 2.30272
341 2 12.0889 1.34059 2.38123
259 3 11.084 4.21752 0.653359
308 4 10.8087 1.08662 0.0572013
178 2 10.6792 5.98279 3.19581
350 2 11.7045 4.7847 1.19078
316 2 11.4601 2.08296 8.62219
90 1 11.4951 3.18713 8.98065
332 2 8.24911 2.4539 0.639207
34 4 7.09088 2.99838 7.02946
39 4 5.6543 5.34618 8.76992
230 3 6.52595 4.2494 7.79496
233 3 5.05086 6.62403 7.87388
222 3 7.73703 1.71425 7.81508
189 2 8.3108 6.54204 7.28786
32 4 8.31073 0.460603 8.68178
227 3 5.67476 3.7939 1.40852
91 1 9.2712 6.97352 8.43349
3 2 13.0074 1.52642 6.05832
130 2 12.2437 3.8628 8.31329
186 2 10.0802 4.10189 8.44506
361 2 10.5536 0.119106 2.75538
179 2 9.10165 6.8719 2.57666
264 3 6.64283 5.9261 9.97866
73 1 9.1643 1.31365 10.1768
119 2 9.56922 4.01035 11.3076
314 2 9.25541 2.33442 12.0025
355 2 10.1115 1.92286 9.79556
207 3 12.7007 5.92039 16.889
257 3 13.8206 1.53314 11.0595
310 4 10.8223 4.48849 10.1493
270 3 7.57561 6.80046 17.3757
317 3 11.3498 5.92787 10.2312
184 2 12.1634 3.06906 10.5029
140 2 8.28968 1.92164 10.5036
54 4 13.0304 0.884475 12.2753
269 3 6.22831 6.13523 15.3365
364 2 14.8656 0.443561 17.848
362 2 14.3725 0.312943 13.1584
312 2 8.3499 3.47308 13.224
333 2 8.64423 3.74671 18.1807
309 2 10.0551 1.57522 18.3539
334 2 8.57755 1.93188 17.8045
311 1 9.37376 3.03441 12.957
120 2 10.2287 6.42736 12.6826
117 2 9.57246 1.77471 14.257
57 4 9.11858 6.47893 17.7638
262 3 9.78898 5.5088 16.6503
134 2 9.96896 6.12812 14.304
141 2 9.45989 0.459976 10.895
346 2 12.7185 4.39578 18.1235
284 2 12.8942 2.92671 15.9078
283 4 13.5846 2.98627 17.4726
315 2 10.5383 4.24885 12.7306
365 3 12.9597 1.71733 18.2223
20 4 11.1599 5.12957 15.9742
60 4 11.0254 2.68037 13.9009
267 3 12.0725 1.80959 13.1376
268 3 11.404 3.61821 15.6157
71 1 11.1864 6.15897 14.3898
135 2 11.7291 5.72003 13.5624
190 2 15.3519 0.663602 14.7647
235 3 6.63571 3.86203 13.7144
188 2 8.96792 6.55398 9.47308
331 1 8.49409 2.73538 18.5906
304 3 9.55811 9.89293 0.9419
335 1 1.45501 11.4707 1.81729
155 2 3.82306 7.67134 0.392386
83 1 3.1758 12.711 5.14349
349 2 3.29709 13.1031 0.45491
180 2 10.879 7.11507 1.53948
338 2 1.4918 12.6469 1.53627
152 2 4.35458 11.808 3.75851
301 2 3.24934 9.15829 4.62618
166 2 3.86702 11.7882 5.48424
168 2 2.73322 12.6265 4.12401
167 2 3.49426 13.7722 5.4194
296 2 6.9704 7.19128 1.08816
327 2 6.32147 11.8166 5.4183
286 4 5.05167 12.8906 2.66811
297 2 6.21595 10.7119 3.77
121 2 6.24778 8.38728 3.11853
290 1 7.18706 8.27929 1.37945
306 3 5.41368 11.9373 1.45395
292 1 6.46485 10.6988 4.92816
300 2 7.58504 10.3825 5.09414
293 2 7.76142 11.3828 3.5511
294 2 6.28591 9.07069 1.355
336 2 2.47565 11.0069 2.09668
261 3 4.91872 7.47238 5.1606
295 2 7.89737 8.48459 2.27278
302 2 5.74305 10.0182 5.43173
344 2 6.96453 13.6339 0.717593
287 4 8.26866 9.19311 0.113559
89 1 9.6413 7.95262 4.85562
248 3 2.26401 10.8853 7.12513
56 4 5.94422 7.0095 4.03198
185 2 9.00649 8.50146 4.05848
182 2 10.7046 7.69065 4.43352
132 2 9.40578 10.273 5.77594
2 1 6.12512 13.6891 6.20427
193 2 10.0312 9.07652 8.0297
249 3 1.91951 13.4815 7.80144
50 4 1.85809 12.4253 6.47327
48 4 2.96736 9.5975 7.93408
5 2 5.31879 12.9014 6.40986
196 2 7.93297 10.1807 8.34784
94 1 7.06117 10.9049 8.08928
195 2 6.76375 10.8801 6.94339
273 3 4.41697 9.9457 8.63161
197 2 7.1315 11.976 8.48539
194 2 8.24565 8.53877 7.56644
183 2 9.84317 8.42208 5.95718
93 1 9.11974 8.45211 8.34626
288 4 6.07552 11.7005 -0.143245
4 2 7.05771 13.5763 6.98475
6 3 6.19864 13.8114 3.39606
276 3 8.75928 10.7991 15.0444
275 3 9.29795 8.61962 13.5836
136 2 11.6024 7.26179 14.5951
303 3 9.72854 7.98644 17.9209
63 4 5.93731 10.2039 9.36074
116 2 6.28642 8.60343 10.2128
281 3 5.89307 11.132 10.6165
177 2 4.54635 13.1033 11.6717
280 3 8.12899 12.2062 11.974
66 4 6.79384 11.3142 12.2383
272 3 7.95965 7.32901 11.7719
353 2 9.47976 10.385 10.035
62 4 9.37196 7.82475 12.1948
271 3 10.2615 8.53991 11.068
174 2 3.39886 10.8383 12.7545
342 1 7.86834 13.4754 18.4936
173 2 3.09325 11.9739 14.3697
86 1 2.6367 11.2592 13.4574
198 2 2.66615 13.085 15.9098
251 3 3.87907 8.26445 13.9426
279 3 3.16278 11.3367 18.1646
192 2 8.75098 8.69065 9.40228
122 2 4.4857 12.025 13.1545
61 4 6.61054 7.32982 16.2897
199 2 4.44599 12.9212 14.8342
176 2 6.10908 12.5929 14.1346
87 1 5.56047 12.4526 13.09
65 4 4.2694 11.4841 16.9032
95 1 3.93157 13.051 15.8352
118 2 5.27872 7.80069 17.3186
274 3 7.28977 8.5091 15.541
277 3 4.15301 10.2313 15.8631
278 3 5.77417 11.8165 17.6625
282 3 7.093 10.1246 13.1535
191 2 7.48127 12.8824 16.257
64 4 8.07843 9.45292 14.3472
58 4 6.58139 7.12321 11.0781
305 3 8.06499 10.5163 18.6129
359 2 1.55841 13.0649 17.1428
175 2 1.89075 11.8753 12.7863
265 3 5.3821 7.14355 11.9987
200 2 4.45071 13.8831 16.3376
ITEM: TIMESTEP
200
ITEM: NUMBER OF ATOMS
365
ITEM: BOX BOUNDS xy xz yz pp pp pp
1.4469266225264477e-01 2.3458508125268875e+01 7.4178459135505346e+00
5.8858058857213180e-02 1.3922685321451317e+01 8.6815487397089119e-01
-2.9541532330329190e-01 1.8617615323303564e+01 1.2151479642631458e-01
ITEM: ATOMS id type x y z
221 3 4.41504 1.72758 9.00853
142 2 3.40124 0.250797 3.15138
13 4 1.79506 2.16768 6.17236
11 4 3.26832 0.68255 8.45561
171 2 5.80966 2.53961 6.21272
29 4 6.80363 0.292028 2.28172
146 2 6.55701 1.80666 4.83252
145 2 5.38342 2.46641 3.79807
220 3 5.88381 1.1271 1.30058
37 4 4.69011 4.87074 2.21114
30 4 3.67222 2.64585 3.79982
74 1 3.03279 1.16921 2.70409
107 2 3.94871 5.89018 0.966265
31 4 5.84438 2.52118 0.394105
143 2 1.95928 1.3725 2.7383
144 2 3.50445 1.33006 1.64887
219 3 3.14301 2.52783 5.29659
226 3 3.46719 4.03395 2.99521
202 3 2.11169 1.17887 7.43227
153 2 3.42197 5.20765 5.04509
260 3 5.37008 5.85313 3.20361
59 4 8.74446 6.62931 5.3329
75 1 7.03317 2.81896 4.77815
186 2 9.82001 4.38094 8.61985
170 2 6.50449 3.63605 4.09317
266 3 7.3393 6.74394 4.67886
181 2 9.69957 5.09733 5.03767
227 3 5.74648 3.76617 1.41024
255 3 8.20303 1.08682 2.67801
189 2 8.54799 6.26076 7.16855
222 3 7.80217 1.93625 8.11891
233 3 5.18088 6.60566 7.86925
230 3 6.71817 4.4121 7.8519
39 4 5.77594 5.41767 8.76238
34 4 7.12 3.07975 7.23251
332 2 8.37741 2.55352 0.38763
147 2 8.37404 3.38103 6.02771
187 2 10.5443 6.93539 8.06979
53 4 8.39492 2.50651 3.43104
178 2 10.8583 5.8434 3.26755
263 3 8.66666 5.4485 0.245968
258 3 8.94518 3.67381 2.52056
55 4 9.51101 4.85121 1.51664
88 1 10.3189 6.30174 2.36906
108 2 3.60639 4.57663 6.94155
179 2 9.31551 6.83153 2.60423
317 3 11.2297 6.16473 10.3818
99 2 4.25715 0.329724 18.4951
33 4 4.28499 2.98145 10.028
103 2 2.7358 2.95769 10.5463
229 3 4.35548 4.42779 9.43563
357 2 6.18039 0.93025 14.7187
234 3 4.75561 3.89056 15.9176
225 3 5.19527 2.92656 11.3169
105 2 7.35841 1.58268 12.5871
212 3 2.30366 0.371631 9.99401
148 2 4.79364 0.885449 16.31
42 4 5.41151 4.92873 14.7378
35 4 4.22044 3.02996 17.1207
358 2 4.76517 1.82146 13.6793
363 2 1.37587 1.03034 15.9688
82 1 6.24633 0.564268 13.6601
223 3 5.6523 2.65863 18.2232
36 4 5.89745 2.72278 12.6929
123 2 2.65605 1.59916 12.4544
104 2 1.76551 1.53415 14.2083
154 2 4.54899 5.72461 18.0555
124 2 3.21507 2.85823 13.8941
149 2 3.39423 1.50103 15.2117
67 1 2.40386 2.14365 13.4329
76 1 3.79457 1.37317 16.3155
150 2 3.00071 0.814868 16.9163
239 3 4.26232 5.527 13.8421
264 3 6.65385 6.08865 9.88464
331 1 8.49807 2.44366 18.495
188 2 9.15777 6.7583 9.3558
235 3 6.472 3.98434 13.4547
119 2 9.43468 4.38427 11.5475
314 2 9.29804 2.37081 11.9458
71 1 11.0143 6.21193 14.3339
270 3 7.50762 6.76921 17.6423
140 2 8.35879 1.59579 10.8542
269 3 6.15363 6.06641 15.5364
312 2 8.27168 3.48504 13.12
333 2 8.48563 3.18517 17.694
334 2 8.46106 1.34978 18.1632
311 1 9.28602 3.01304 12.9637
120 2 10.2945 6.21703 12.5406
57 4 9.18343 6.51945 17.7584
262 3 9.70777 5.47509 16.6215
134 2 9.87418 6.20079 14.2618
224 3 2.85935 3.33635 17.9016
315 2 10.4645 4.28264 12.9631
210 3 12.2993 8.27474 8.8456
192 2 8.49453 8.688 9.08011
180 2 11.0641 7.03742 1.65998
133 2 8.82292 12.4028 6.74097
325 2 12.0709 11.5256 0.975013
354 2 9.83513 13.3914 4.77153
324 1 10.4668 12.364 0.59886
348 2 9.32384 11.974 0.492755
285 4 10.805 10.4396 1.74682
98 2 12.027 9.16626 1.98613
307 3 10.3174 10.9884 3.13105
242 3 12.4914 12.2045 5.72586
326 2 10.4546 13.24 1.34542
347 2 11.2063 8.28089 -0.185571
214 3 11.2815 12.9724 7.94942
213 3 11.3001 10.151 7.47901
289 4 9.29831 11.6274 4.18756
25 4 11.2813 11.9479 6.79476
241 3 13.5341 13.501 3.61507
46 4 13.7448 12.2758 4.78902
23 4 12.767 9.36109 7.78483
70 1 9.68337 12.2375 5.99754
304 3 9.68066 9.72473 0.960193
305 3 7.37621 10.5272 -0.285512
296 2 7.28311 7.1572 1.30334
295 2 8.03398 8.62208 2.41465
93 1 9.00583 8.40302 8.0865
183 2 9.77022 8.51437 6.01582
194 2 8.27223 8.35847 7.21268
287 4 8.42053 9.161 0.208921
121 2 6.16045 8.39396 3.09818
195 2 6.60299 10.9826 6.9923
94 1 6.8736 11.098 8.13156
196 2 7.88404 10.4602 8.45258
290 1 7.3191 8.30856 1.50307
292 1 6.39 10.6921 5.0001
300 2 7.50391 10.3841 5.11363
293 2 7.63785 11.4288 3.68895
193 2 10.0189 9.13757 7.85124
294 2 6.33616 8.8438 1.29196
132 2 9.38115 10.5144 5.68265
182 2 10.9573 7.66371 4.51227
185 2 9.20418 8.61026 4.13974
56 4 5.88748 7.01956 4.11443
261 3 4.84481 7.36469 5.28589
89 1 9.843 7.97581 4.87106
91 1 9.42416 7.02027 8.2682
302 2 5.7772 9.98927 5.48679
297 2 6.11335 10.5161 3.83488
41 4 4.23814 7.01825 6.64079
157 2 13.2138 9.9831 4.40527
101 2 11.95 13.8512 14.4495
24 4 9.68884 12.7698 11.2034
114 2 12.6752 12.0264 10.503
217 3 10.9015 12.9045 12.3488
17 4 11.7524 7.80085 10.2583
328 1 9.97771 11.138 10.3062
329 2 11.0067 10.941 10.6983
164 2 13.4684 10.3225 11.5871
356 2 13.3819 13.605 11.8864
27 4 9.14154 12.148 15.679
49 4 13.9884 11.6795 9.4158
169 2 14.7379 13.8283 16.5267
330 2 9.92296 11.2976 9.18753
100 2 9.08123 13.3193 14.2843
254 3 13.0692 11.8164 17.3712
218 3 12.9568 11.3393 13.6199
216 3 10.4385 12.3219 16.7091
343 2 8.98309 13.3339 18.5082
139 2 11.7133 9.09736 14.2624
137 2 12.0253 9.52024 16.0438
72 1 12.4604 9.00405 15.1477
246 3 14.7137 13.0151 9.17417
22 4 11.6537 12.4457 17.6772
28 4 12.3176 12.7878 13.035
276 3 8.64451 10.7543 15.0058
275 3 9.24599 8.56102 13.5675
265 3 5.54842 7.10957 12.0728
136 2 11.5438 7.31773 14.5784
303 3 9.82939 8.03786 17.8996
106 2 14.4647 13.571 13.5247
58 4 6.72719 7.22537 10.9859
64 4 8.00631 9.39632 14.2431
116 2 6.32446 8.78608 10.2363
282 3 6.97038 10.0369 13.1185
280 3 8.06483 12.3132 11.7895
61 4 6.69912 7.26303 16.3521
274 3 7.15109 8.47559 15.4475
118 2 5.33175 7.81522 17.2441
272 3 8.15256 7.25227 11.4769
353 2 9.22397 10.4296 10.7457
62 4 9.43222 7.73038 12.1742
271 3 10.3165 8.51515 10.9441
165 2 14.4215 11.9577 11.9556
128 2 12.9834 3.89465 6.6472
361 2 10.5388 0.283609 2.7909
130 2 12.0829 3.94842 8.39907
3 2 12.8885 1.44084 6.0931
32 4 8.41786 0.543246 8.65798
90 1 11.3099 3.43584 9.08813
316 2 11.2055 2.37689 8.73994
350 2 11.6664 4.23785 1.25057
308 4 10.9222 1.17255 0.0966601
259 3 10.995 4.09908 0.501349
341 2 12.0765 1.4211 2.46345
339 1 11.4499 0.482226 2.11081
172 2 9.72138 2.3112 4.56653
340 2 10.899 2.22821 1.64691
85 1 10.9908 3.81313 4.56711
256 3 12.1068 3.73096 4.4574
1 4 14.3012 0.772228 4.89064
127 2 12.2164 6.41093 4.28335
320 2 13.9506 5.78699 3.01978
129 2 12.9246 5.26204 7.96325
318 1 14.4178 5.00666 2.28841
319 2 14.146 4.00099 2.65296
77 1 18.2911 5.37335 6.17468
205 3 15.9606 3.3321 6.77416
109 2 17.6917 6.2586 4.54672
151 2 17.2047 5.73278 6.3878
351 2 15.5515 5.18103 2.16885
8 2 15.569 1.33282 0.21794
69 1 13.4786 4.77583 7.12098
16 4 15.0045 4.10538 7.89209
313 2 13.9068 5.61429 6.02648
322 2 12.6592 6.70901 0.477941
201 3 15.6978 1.44971 5.18658
9 2 15.2834 3.78531 0.960098
344 2 14.4107 0.0907154 0.720175
102 2 13.8849 5.144 1.2783
231 3 15.6796 5.69283 8.7185
156 2 16.3569 6.32564 -0.147557
190 2 14.9445 0.832377 15.0349
73 1 9.23931 1.23431 10.2393
135 2 11.5631 5.63518 13.5284
268 3 11.5763 3.69839 15.481
355 2 10.0346 2.03354 9.77986
207 3 12.6691 6.01091 16.7312
257 3 14.0198 1.38404 11.1995
310 4 10.5787 4.68631 10.2927
267 3 12.0218 1.78475 13.1254
236 3 15.9586 6.36245 14.7814
184 2 12.0961 3.4138 10.5182
60 4 10.9321 2.66541 13.8969
54 4 13.1136 0.896515 12.3559
20 4 11.1364 5.17658 15.9211
7 4 16.4398 2.99564 18.3961
362 2 14.3708 0.395316 13.3959
365 3 12.9713 1.69341 17.9879
204 3 14.4606 3.11826 9.18623
309 2 10.2237 1.6302 18.2199
283 4 13.5968 2.98115 17.3834
284 2 13.088 3.3749 15.7573
346 2 12.8774 4.34433 18.1739