ITEM: TIMESTEP
0
ITEM: NUMBER OF ATOMS
295
ITEM: BOX BOUNDS xy xz yz pp pp pp
-7.9400194813171350e+00 1.5055693276645961e+01 -7.9285373884105619e+00
6.5927825343657442e-01 1.2981847742707462e+01 -1.0048881626058097e-01
-3.7713602853938610e-01 1.6875136028539433e+01 3.2325996144037861e-02
ITEM: ATOMS id type x y z
81 3 -1.00692 3.0455 2.35017
54 1 -2.52421 5.06617 4.75366
183 2 -2.1118 5.00079 3.67889
52 1 -2.38936 5.04235 0.663793
10 4 -1.16249 6.14526 5.57577
85 3 -0.683152 5.21711 6.84472
7 4 -0.648692 4.02144 1.1409
172 2 3.88417 1.00392 1.37392
82 3 -0.208535 3.31617 -0.284169
177 2 -1.73912 6.03627 0.635148
189 2 -2.72227 6.61761 1.99434
157 2 2.71297 6.37923 6.77695
78 3 0.551006 0.728948 0.270564
79 3 0.348243 2.68931 4.41633
103 3 -0.080896 6.2178 4.29285
102 3 0.389232 5.09784 1.75915
8 4 0.48232 4.50565 7.65671
6 4 1.46855 2.62655 5.53876
51 1 3.23065 2.57013 4.73647
84 3 1.55663 3.98803 6.57802
106 3 2.45709 6.24636 3.145
173 2 3.11879 3.31055 3.91385
175 2 4.03278 2.93004 5.43835
274 1 5.60538 3.10136 1.29637
277 2 4.61432 2.58549 1.48095
174 2 3.49197 1.53774 4.37047
27 4 3.54175 6.47507 4.44495
25 4 0.862428 6.251 2.77451
104 3 5.14454 3.57141 7.09863
50 1 2.88499 1.52304 1.69473
171 2 2.5103 2.349 0.943329
212 2 6.28698 1.60491 3.96141
80 3 1.42407 1.15376 6.44216
170 2 2.93969 1.95161 2.80197
96 3 3.61211 1.35914 7.80456
66 1 6.35671 0.703794 3.33054
2 4 -0.797654 2.10806 3.56154
107 3 4.55186 5.23112 4.83144
86 3 -2.47163 6.22085 10.0247
20 4 4.60763 2.66375 8.29684
290 2 -1.55136 5.90801 16.2419
5 4 -0.641984 2.06875 9.6999
58 1 -0.997368 6.38308 15.3202
232 2 -1.77916 3.60936 13.5112
185 2 -0.302347 5.05672 12.3384
100 3 5.79708 0.877539 11.8391
3 4 0.325062 2.06259 16.3025
148 2 -0.148214 4.85552 10.3251
55 1 0.159651 5.6293 11.1019
83 3 0.0589002 3.35719 8.72096
23 4 3.31022 2.42679 15.1461
61 1 3.3239 3.79183 9.20229
98 3 1.835 2.24995 15.6949
108 3 2.51084 2.89469 12.3542
197 2 3.36641 4.66357 8.43662
198 2 1.79086 3.52197 12.3276
199 2 2.29918 3.29103 9.22737
11 4 -1.55396 6.47525 11.2459
24 4 6.09016 2.41163 10.9531
28 4 3.61205 4.09459 11.075
97 3 4.50368 2.97725 16.101
99 3 5.63989 2.18913 9.40027
179 2 1.3094 5.66401 8.50607
110 3 3.13028 5.77029 11.2635
152 2 3.23188 3.24973 13.5168
261 2 1.65086 5.34777 15.5694
269 2 1.67357 1.92468 10.4599
267 1 0.727969 1.38993 10.7826
184 2 1.30722 5.65201 11.1621
258 2 2.07878 5.94782 13.769
256 1 2.51111 5.77438 14.823
259 2 3.44468 5.16126 14.8088
190 2 -0.540439 5.61144 14.6764
109 3 5.10219 3.7725 11.479
285 2 0.314003 1.71611 11.7907
284 2 0.220626 1.45928 13.9999
64 1 3.76842 0.6977 14.7065
214 2 -0.552963 12.8524 2.77729
89 3 -3.86229 7.18769 7.7786
289 2 -1.63222 7.71777 3.1422
288 2 -3.42271 7.19749 3.70648
1 4 -6.18633 12.4433 1.19406
4 4 -5.54247 12.788 7.66399
12 4 -3.48114 9.0866 2.38776
15 4 -2.77331 8.2866 7.09313
16 4 -4.3948 10.6727 5.94796
88 3 -3.80618 9.01826 0.900955
92 3 -3.72876 9.30754 6.34082
93 3 -5.31359 11.2862 7.29675
114 3 -2.99235 11.6831 5.35375
280 3 -5.23922 11.3165 0.549017
31 4 -1.94747 11.2872 4.2634
90 3 -1.76839 7.62237 5.993
113 3 -2.56605 10.2028 3.10328
57 1 -2.72905 7.45124 2.805
116 3 -0.525001 10.9143 4.79036
91 3 -5.52787 10.5507 4.81249
14 4 -4.06529 10.3432 -0.258017
151 2 1.6693 7.50013 5.68296
87 3 -6.96109 11.863 2.86123
65 1 2.712 7.17848 5.97731
155 2 -0.0315443 9.4454 0.226691
181 2 1.12143 7.50915 7.86048
30 4 1.24137 8.49466 0.93009
33 4 1.02375 10.6189 5.30248
111 3 0.453347 7.68014 1.97634
217 2 1.25774 9.80522 7.11244
112 3 1.9881 7.79037 -0.284678
115 3 -1.83873 9.102 8.18009
188 2 -5.09735 8.73202 3.34733
213 2 -2.4655 12.8622 2.61845
94 3 -1.94823 6.89192 12.7248
208 2 -5.00865 12.375 15.1401
22 4 -1.13243 12.5195 13.0158
292 2 -3.35969 9.91352 10.5352
67 1 -2.97462 11.0031 9.99615
215 2 -2.66356 11.8582 10.7079
216 2 -1.52123 11.7625 8.93199
150 2 -3.84702 9.86769 13.2325
32 4 -1.43211 10.05 9.38744
156 2 -3.74648 11.4601 9.25965
17 4 -2.2848 7.35709 14.3182
95 3 -5.11955 10.0202 15.5728
119 3 -2.72263 10.958 16.6547
117 3 -2.05997 8.90927 14.7696
118 3 -2.01082 11.3876 13.9657
60 1 -5.43756 10.9619 12.8244
18 4 -5.35016 9.55373 14.0711
34 4 -1.76898 10.4054 15.1415
147 2 -6.49132 12.8487 9.12442
211 2 2.71529 7.399 8.83914
120 3 -0.264098 9.81309 10.4125
268 2 -7.11893 12.5224 10.6959
69 1 0.0395544 10.5207 15.8251
195 2 -4.66614 11.8577 12.7255
260 2 2.27608 8.47004 14.2282
225 2 0.984478 9.49567 13.5432
186 2 -0.19816 7.47467 10.647
209 2 1.42245 8.68623 9.28967
53 1 1.59126 7.60665 8.9148
196 2 -6.47161 11.3589 13.3409
220 2 0.626699 9.52758 15.9522
255 4 2.72506 7.40683 15.5695
70 1 1.55136 9.26613 12.6085
224 2 1.22406 8.30596 12.0278
35 4 0.763902 10.6415 11.357
121 3 0.120541 11.7032 12.2794
291 2 -5.63447 10.4667 11.7614
222 2 0.442154 11.0614 14.8746
207 2 -4.02966 12.8431 13.536
191 2 -0.283667 7.18305 15.6117
206 2 -3.12683 12.9154 15.2825
221 2 -0.0749355 11.1903 16.6912
180 2 1.04349 6.83872 9.71986
26 4 5.50915 5.09815 6.3168
105 3 7.13308 5.27256 5.99519
71 1 9.00233 2.397 8.19566
275 2 5.69321 4.11394 1.83971
228 2 8.09699 2.15948 7.61925
135 3 5.08823 6.32017 7.32745
158 2 7.94735 1.1956 4.43218
286 2 11.3245 5.49227 4.79726
182 2 12.5249 4.04753 5.25392
21 4 8.63115 4.95931 5.72831
63 1 9.41207 6.32406 4.69205
62 1 11.4253 4.43336 7.75802
162 2 11.9297 2.84422 6.7423
74 1 9.37683 4.23906 0.832942
122 3 8.89465 3.5534 4.96164
234 2 8.89443 4.85713 1.67369
235 2 8.58467 3.73267 0.180401
36 4 9.32087 2.18996 4.3033
40 4 11.9072 1.50165 5.62353
43 4 10.5491 2.98747 1.65412
125 3 12.8501 1.8946 4.40816
126 3 10.3568 1.29047 5.26147
133 3 9.64175 2.36298 2.72414
134 3 11.0441 2.12205 0.444459
164 2 11.872 4.01982 2.17542
236 2 10.1227 4.88238 0.256208
200 2 9.65674 5.09225 7.17777
204 2 9.88799 5.733 3.83002
202 2 11.7293 4.6655 6.6624
281 2 10.5293 3.64739 7.83466
227 2 9.9317 2.22963 7.53196
276 2 6.53492 2.40142 1.371
178 2 11.5904 5.36595 1.08347
249 2 5.32499 6.51749 1.72192
176 2 12.4291 4.48127 -0.330334
19 4 5.8038 3.62679 16.7765
161 2 8.91486 3.84858 8.59551
242 2 6.14196 5.82799 11.9182
76 1 6.79228 6.19041 12.806
130 3 7.2829 3.02063 16.0547
201 2 12.3701 4.08604 8.4581
101 3 5.82299 5.2178 16.8595
230 2 8.54713 4.74153 14.4353
265 2 13.4789 2.24994 14.2425
138 3 7.24678 6.29993 9.14128
59 1 10.8877 6.80991 14.8601
128 3 7.43623 1.38319 13.9339
123 3 13.7886 0.823921 8.68218
124 3 7.71068 2.60957 11.0013
9 4 11.246 6.01469 8.94316
241 2 7.51356 5.31146 13.1531
231 2 8.34939 3.88913 12.7061
131 3 13.1643 2.54119 10.7519
37 4 10.9307 1.38804 16.2601
39 4 9.09225 2.40804 10.1492
41 4 8.23125 2.4744 14.8029
165 2 7.71883 5.17469 11.3612
229 2 10.0545 3.77388 13.5515
295 2 11.4862 4.60095 12.2447
42 4 11.841 2.77885 11.5867
72 1 8.86725 3.87591 13.7195
73 1 12.0564 3.43928 13.4113
129 3 9.64758 1.90428 15.4066
132 3 10.4694 2.64181 10.7898
233 2 11.4438 3.53677 14.4117
45 4 8.35141 6.21073 10.1773
137 3 9.85702 5.63946 9.69223
294 2 12.5122 1.55462 15.5449
163 2 11.7195 1.72149 13.1903
192 2 11.2878 5.93271 15.5064
240 2 6.15886 6.57436 13.7276
193 2 10.2755 6.4626 13.8782
226 2 9.02717 0.853685 9.23095
264 1 14.3245 1.53719 14.7588
251 2 6.30814 8.22347 1.68721
13 4 8.19569 10.5851 3.87127
282 2 6.76338 12.9198 2.92933
187 2 8.22337 9.57925 1.83066
250 2 4.46672 8.21608 1.27003
127 3 4.65043 12.6385 6.4099
247 1 5.4379 7.61649 1.2401
262 1 3.57455 11.9706 2.31922
252 2 8.23418 7.56003 -0.191128
160 2 6.26601 10.713 7.50227
283 2 3.3975 11.9873 1.12532
38 4 5.10841 11.9996 7.8685
149 2 6.01697 8.52365 5.10852
263 2 4.76962 9.59448 3.44182
56 1 8.32622 9.12279 2.89001
139 3 2.40887 9.52681 1.65288
140 3 2.12247 10.3602 4.15328
219 2 2.8319 11.5429 6.58092
46 4 3.09333 10.283 2.86591
166 2 3.02242 12.8138 2.82672
167 2 4.67488 11.8508 2.67263
273 2 4.6817 9.67156 5.65993
270 1 5.45485 9.48124 4.93348
271 2 4.56816 7.87372 4.31701
272 2 6.37834 10.5601 4.97809
75 1 6.37305 8.82551 7.98824
237 2 6.0663 9.0546 6.83856
287 2 7.35659 8.5016 3.32725
210 2 3.39443 8.12867 6.1317
159 2 2.20311 11.5376 -0.148014
68 1 1.62677 11.3986 6.73933
218 2 1.01042 12.2738 7.09744
203 2 8.47938 6.90075 4.37411
205 2 10.1345 6.96462 5.37177
194 2 10.3409 7.58218 15.4401
48 4 7.61148 7.92636 12.5249
44 4 5.83616 7.0023 8.57747
153 2 5.031 7.04501 12.4391
141 3 3.86113 11.3462 8.46839
293 2 2.58059 11.6442 15.256
246 4 5.73167 6.90228 16.8025
29 4 4.01449 7.03718 11.1052
254 2 7.78159 6.99505 15.3653
143 3 8.39894 7.54346 11.0189
257 3 4.60326 7.53114 15.829
278 1 2.93134 11.8117 16.4195
223 2 2.70188 9.5372 12.645
154 2 2.91484 8.23316 11.5329
168 2 3.03434 8.95402 9.13562
142 3 1.96304 11.1834 10.3834
47 4 3.32647 10.5852 9.71321
49 4 5.54421 10.3646 12.0767
77 1 4.71844 11.1244 13.6004
136 3 4.69441 7.17824 9.70247
145 3 4.42064 10.3918 10.8934
146 3 6.53514 9.20435 12.34
169 2 5.21049 11.6849 14.4788
243 2 3.80603 11.685 13.2144
244 2 4.367 10.0056 13.9674
245 2 6.07054 12.0141 12.5047
253 2 7.26217 8.71917 15.8458
248 1 7.39229 7.64417 16.1873
144 3 8.85713 8.21399 13.6056
239 2 5.65732 9.36175 8.73187
266 2 5.94116 12.7673 14.9384
279 2 4.02256 11.5476 16.6797
238 2 7.48072 8.89087 8.2788
ITEM: TIMESTEP
100
ITEM: NUMBER OF ATOMS
295
ITEM: BOX BOUNDS xy xz yz pp pp pp
-7.9400194813171350e+00 1.5055693276645961e+01 -7.9285373884105619e+00
6.5927825343657442e-01 1.2981847742707462e+01 -1.0048881626058097e-01
-3.7713602853938610e-01 1.6866509892510894e+01 3.2325996144037861e-02
ITEM: ATOMS id type x y z
81 3 -1.06629 3.11652 2.25222
54 1 -2.50768 5.00929 4.76338
183 2 -2.13701 4.9122 3.71737
52 1 -2.33217 5.28523 0.800203
10 4 -1.06086 6.06126 5.51704
85 3 -0.65758 5.27473 6.89509
7 4 -0.584257 4.10108 1.12287
172 2 3.92375 1.17972 1.3289
82 3 -0.323892 3.31901 -0.359169
177 2 -1.58408 6.17796 0.821595
189 2 -2.5328 6.6918 2.22982
157 2 2.4453 6.10665 6.58938
176 2 -2.36692 4.78106 -0.212152
79 3 0.465645 2.61489 4.37998
103 3 -0.0363179 6.2911 4.19696
102 3 0.621369 5.07477 1.6009
8 4 0.414819 4.48116 7.68363
6 4 1.5464 2.67388 5.50677
51 1 3.34761 2.42275 4.78905
84 3 1.4577 3.87789 6.5626
106 3 2.37048 6.29917 3.28824
173 2 3.19138 3.18639 3.97222
175 2 4.05844 2.84989 5.68168
274 1 5.70811 3.00232 1.37959
277 2 4.64038 2.55318 1.60962
174 2 3.61845 1.37488 4.44438
27 4 3.5327 6.46548 4.4289
25 4 0.863737 6.3625 2.79109
104 3 5.14537 3.74191 6.90833
50 1 2.8616 1.5594 1.77436
171 2 2.37675 2.41276 1.09333
212 2 5.89823 1.40479 3.88722
80 3 1.33746 1.251 6.58159
170 2 2.92365 1.84486 2.90757
96 3 3.6215 1.42667 7.77125
107 3 4.53497 5.261 4.82839
2 4 -0.76284 2.16789 3.45108
86 3 -2.61437 6.15714 10.2049
284 2 0.0900109 1.12483 14.1803
290 2 -1.36197 6.01337 16.3663
5 4 -0.629382 2.11573 9.56886
58 1 -0.834748 6.31905 15.3645
232 2 -1.67951 3.68128 13.408
185 2 -0.585397 4.79313 11.9267
100 3 5.56976 1.01386 11.8593
3 4 0.299227 2.00147 16.4109
148 2 0.0679876 5.28765 10.0372
55 1 0.10399 5.70414 11.1164
83 3 -0.156683 3.41128 8.72027
23 4 3.30925 2.19672 15.1725
61 1 3.37283 3.75859 9.24839
98 3 1.90008 2.27122 15.8686
108 3 2.43495 2.91973 12.1848
197 2 3.43487 4.67296 8.53846
198 2 1.88952 3.70672 12.4315
199 2 2.37115 3.20452 9.15922
11 4 -1.62416 6.62908 11.2922
24 4 6.08852 2.37483 10.9893
28 4 3.6596 4.11961 11.0775
97 3 4.4833 2.95665 16.0029
99 3 5.75186 2.16188 9.21778
179 2 1.22179 5.75897 8.49924
110 3 3.35424 5.71247 11.2616
152 2 3.15864 2.67816 13.4538
261 2 1.62362 5.31121 15.7466
269 2 1.8271 1.7831 10.5437
267 1 0.789856 1.324 10.5997
184 2 1.13805 5.81834 11.4812
258 2 2.02971 5.92126 13.9711
256 1 2.42693 5.66628 15.0239
259 2 3.33727 4.94231 15.0349
190 2 -0.575784 5.4923 14.6425
109 3 5.17068 3.64478 11.4945
285 2 0.309398 1.61987 11.6541
20 4 4.60679 2.62651 8.27628
78 3 -7.38406 12.9157 0.119526
89 3 -3.68102 7.14737 7.88596
289 2 -1.52204 7.91636 3.29059
288 2 -3.12425 7.32766 4.03922
1 4 -6.10266 12.4386 1.20506
4 4 -5.53695 12.8079 7.61611
12 4 -3.45504 9.05372 2.45429
15 4 -2.7719 8.13801 7.05991
16 4 -4.42578 10.6877 5.88166
88 3 -3.60783 9.09336 0.78706
92 3 -3.7956 9.21129 6.225
93 3 -5.11724 11.3716 7.33863
114 3 -3.21158 11.8287 5.31189
280 3 -5.17611 11.3203 0.495085
31 4 -2.0964 11.4355 4.26976
90 3 -1.87033 7.35346 5.9505
113 3 -2.80088 10.3917 3.13015
57 1 -2.5252 7.61403 3.09137
116 3 -0.486724 10.8474 4.96409
91 3 -5.65362 10.6201 4.88616
14 4 -4.14533 10.2483 -0.256658
151 2 1.48189 7.46079 5.67402
87 3 -7.10814 11.8092 2.79128
65 1 2.48653 7.00313 5.92791
155 2 0.480049 9.73562 0.154944
181 2 1.16779 7.43603 7.82318
30 4 1.42792 8.49272 0.874645
33 4 0.991541 10.4745 5.328
111 3 0.447806 7.84047 1.93465
217 2 1.21522 9.79208 7.25492
112 3 2.07901 7.72198 -0.350031
115 3 -1.8329 9.0691 8.10185
213 2 -2.17589 12.6497 2.26984
66 1 -1.49003 12.9464 3.19213
188 2 -5.19513 8.83725 3.12162
94 3 -2.07499 6.96134 12.7648
208 2 -4.87335 12.1413 15.2799
22 4 -1.0482 12.5335 12.9457
292 2 -3.31029 10.1296 10.577
67 1 -2.85202 11.1011 9.99048
215 2 -2.79258 12.0283 10.7296
216 2 -1.5315 11.7977 8.82712
150 2 -4.19523 9.90659 12.8514
32 4 -1.41634 10.0462 9.28704
156 2 -3.47278 11.374 9.09546
17 4 -2.22326 7.26062 14.3648
95 3 -4.94795 9.76949 15.6832
119 3 -2.65341 11.0627 16.4428
117 3 -2.04457 8.8239 14.7795
118 3 -1.81256 11.3909 13.81
60 1 -5.73804 11.0742 12.9038
18 4 -5.40204 9.60555 14.1191
34 4 -1.76032 10.4786 15.1967
147 2 -6.31264 12.5706 9.14283
211 2 2.73272 7.53024 8.83961
120 3 -0.348187 9.88832 10.3908
268 2 -7.07704 12.4876 10.5129
69 1 0.0831714 10.6637 15.663
195 2 -4.82682 11.7728 12.7465
64 1 -4.0877 12.7567 14.697
225 2 1.32163 9.85496 13.745
186 2 -0.263192 7.54311 10.6843
209 2 1.35872 8.76571 9.05678
53 1 1.59604 7.69183 8.8404
196 2 -6.51047 11.5385 13.7916
220 2 0.503567 9.63737 15.7082
255 4 2.85763 7.40633 15.5516
70 1 1.72525 9.43952 12.7114
224 2 1.16254 8.48808 12.3799
35 4 0.844613 10.619 11.3171
121 3 0.115421 11.8761 12.093
291 2 -6.2485 10.8327 11.9622
222 2 0.5697 11.3041 14.8584
207 2 -4.03304 12.5986 13.5511
191 2 -0.0435613 7.24189 15.4656
206 2 -2.96807 12.8816 15.2174
221 2 0.0938328 11.2252 16.6384
180 2 0.972514 6.91646 9.77755
26 4 5.48413 5.13221 6.27565
105 3 7.13548 5.23819 5.84893
71 1 8.86435 2.38979 8.14402
275 2 5.93187 4.01228 1.90401
228 2 7.83271 1.98384 7.80707
135 3 5.14849 6.49747 7.22415
158 2 7.75838 1.18017 4.63056
286 2 11.3204 5.50864 4.76902
182 2 12.5346 4.01279 5.34883
21 4 8.67369 5.00838 5.64182
63 1 9.48833 6.45587 4.67857
62 1 11.3891 4.41591 7.7359
162 2 12.2333 2.84816 6.83387
74 1 9.46935 4.35006 0.814834
122 3 8.9464 3.58946 5.07132
234 2 8.55688 4.62394 1.46017
235 2 9.1509 3.90098 -0.203762
36 4 9.1958 2.16899 4.46939
40 4 12.0027 1.57939 5.60942
43 4 10.3741 2.953 1.61153
125 3 12.9601 1.90426 4.34837
126 3 10.4269 1.56119 5.26
133 3 9.58719 2.37969 2.89712
134 3 10.833 1.83573 0.519814
164 2 11.7035 4.12055 1.99
236 2 10.1988 5.28442 0.64402
200 2 9.52466 4.95338 7.11399
204 2 9.88287 6.00121 3.73969
202 2 11.6795 4.6736 6.61189
281 2 10.4054 3.67013 7.82513
227 2 9.69383 2.16369 7.45467
276 2 6.57407 2.28905 1.43545
178 2 11.5549 5.68327 1.00253
249 2 4.74521 6.40109 1.6194
214 2 7.43303 0.923219 2.82255
19 4 5.79864 3.52062 16.8011
101 3 5.82738 5.35439 16.7281
242 2 6.07413 5.67714 12.2829
76 1 6.81053 6.18315 12.9541
130 3 7.12809 2.89647 16.0974
201 2 12.2949 4.00617 8.43364
264 1 14.1966 1.46203 14.8824
230 2 8.63769 4.79433 14.6836
265 2 13.4091 2.30156 14.3255
138 3 7.21023 6.45217 8.95573
59 1 10.9578 6.58426 14.8642
128 3 7.48663 1.36882 13.8723
123 3 13.7271 0.927007 8.63201
124 3 7.70506 2.87284 10.9003
9 4 11.1556 5.92285 8.9857
241 2 7.65221 5.39085 13.3519
231 2 8.19816 3.67239 13.093
131 3 13.2553 2.60065 10.7161
37 4 10.9309 1.2454 16.2383
39 4 9.00068 2.43878 10.0865
41 4 8.17604 2.34427 14.9355
165 2 7.64734 5.29378 11.3788
229 2 10.0506 3.81722 13.685
295 2 11.5555 4.59164 12.1229
42 4 11.8158 2.74875 11.5441
72 1 8.91796 3.92332 14.0196
73 1 12.12 3.47219 13.3315
129 3 9.68503 1.72948 15.4286
132 3 10.4059 2.52167 10.7888
233 2 11.4916 3.81507 14.1775
45 4 8.2242 6.24159 10.0762
137 3 9.68951 5.63338 9.6302
294 2 12.3661 1.83321 15.5158
163 2 11.7014 1.78253 13.1268
192 2 11.3283 5.62826 15.4037
240 2 6.32393 6.68962 13.861
193 2 10.4392 6.40887 13.9338
226 2 8.90581 0.818507 9.25781
161 2 8.77807 3.7644 8.33004
251 2 6.25146 7.43876 2.07648
13 4 7.99274 10.603 3.89981
282 2 6.75298 12.9418 2.80062
187 2 7.64246 9.49349 1.84573
250 2 4.60788 8.30416 1.55391
127 3 4.59441 12.5312 6.26349
247 1 5.34035 7.37489 1.40963
262 1 3.70017 11.8012 2.29247
252 2 7.82564 8.52379 -0.132045
160 2 6.43069 11.0008 7.52884
283 2 3.31187 11.7825 1.05373
38 4 5.10287 12.088 7.79592
149 2 5.64653 8.3852 5.19469
263 2 4.82295 9.44612 3.3668
56 1 8.12768 9.06361 2.93123
139 3 2.45584 9.34981 1.82963
140 3 2.22964 10.3847 4.27365
219 2 2.53297 11.81 6.50258
46 4 3.1182 10.2111 2.93924
166 2 3.19383 12.5716 2.96282
167 2 4.79752 11.7315 2.46785
273 2 4.63688 9.87337 5.59582
270 1 5.36894 9.45195 4.86403
271 2 4.59634 7.80881 4.05283
272 2 6.39046 10.1291 4.83464
75 1 6.37048 9.0454 7.97192
237 2 5.89389 9.22345 6.81083
287 2 7.40893 8.40373 3.53209
210 2 3.35824 7.7746 6.32267
159 2 2.19613 11.2771 -0.0739094
68 1 1.44213 11.2849 6.774
218 2 0.546391 12.0745 6.91183
203 2 8.62428 7.17745 4.55873
238 2 7.50794 9.2993 8.01757
205 2 10.3546 6.87314 5.34408
194 2 10.5334 7.34832 15.6073
48 4 7.71998 7.9047 12.444
44 4 5.81731 7.23914 8.47154
153 2 5.11566 7.13401 12.5874
141 3 3.99934 11.2934 8.54933
293 2 2.6499 11.2392 15.2683
246 4 5.71215 6.93026 16.8183
29 4 4.05152 7.04879 11.2241
254 2 7.99609 6.89792 16.1231
143 3 8.5754 7.5941 11.0051
257 3 4.44556 7.41513 15.8224
278 1 2.85229 11.6487 16.3214
223 2 2.86881 9.52942 12.6617
154 2 2.88523 8.26209 11.572
168 2 3.04093 9.00808 9.14896
142 3 2.09801 11.1609 10.3886
47 4 3.43231 10.5507 9.75041
49 4 5.56571 10.346 12.0839
77 1 4.68322 11.0599 13.614
136 3 4.74273 7.34 9.86854
145 3 4.58604 10.4091 10.9302
146 3 6.57216 9.14035 12.2338
169 2 5.31913 11.5867 14.3763
243 2 3.80912 11.684 13.2781
244 2 4.32996 9.9687 14.0133
245 2 6.15104 11.8935 12.7512
253 2 7.1066 8.38538 15.3346
248 1 7.30647 7.83031 16.2769
144 3 8.72095 8.35022 13.6991
239 2 5.78403 9.58439 8.74134
266 2 5.71378 12.8219 15.2674
279 2 3.96184 11.4409 16.6579
260 2 2.47356 8.61895 14.4066
ITEM: TIMESTEP
200
ITEM: NUMBER OF ATOMS
295
ITEM: BOX BOUNDS xy xz yz pp pp pp
-7.9400194813171350e+00 1.5055693276645961e+01 -7.9285373884105619e+00
6.5927825343657442e-01 1.2981847742707462e+01 -1.0048881626058097e-01
-3.7713602853938610e-01 1.6857883756482355e+01 3.2325996144037861e-02
ITEM: ATOMS id type x y z
81 3 -1.24389 3.1541 2.34842
54 1 -2.73107 5.01352 4.84673
183 2 -2.27353 4.78737 3.77667
52 1 -2.30794 5.20878 0.775666
10 4 -1.23807 6.08333 5.39971
85 3 -0.645456 5.15873 6.61986
7 4 -0.636846 4.04619 1.23819
172 2 4.04255 0.772749 1.77003
82 3 -0.255016 3.32431 -0.129895
177 2 -1.7662 6.22468 0.708921
78 3 0.59559 0.793222 0.308561
157 2 2.67932 6.03227 6.57326
66 1 6.3767 0.792553 3.27581
79 3 0.615745 2.61404 4.32759
103 3 -0.227587 6.28184 4.01404
102 3 0.526594 5.0336 1.75152
8 4 0.52702 4.50536 7.50044
6 4 1.53812 2.48103 5.56295
51 1 3.34383 2.72534 4.73082
84 3 1.63033 3.74905 6.60067
106 3 2.54885 6.27152 3.14333
173 2 3.11447 3.53393 4.00465
175 2 4.03708 3.11023 5.64246
274 1 5.67155 3.0676 1.1858
277 2 4.66209 2.44688 1.39912
174 2 3.76961 1.76334 4.29839
27 4 3.53163 6.60616 4.44235
25 4 0.800532 6.29599 2.75763
104 3 5.20022 3.8062 6.89677
50 1 3.0267 1.29826 1.89884
171 2 2.80078 2.15444 1.05322
212 2 5.68898 1.49603 3.84103
80 3 1.45589 0.917571 6.22657
170 2 2.9918 1.82589 2.99681
96 3 3.41915 1.50819 8.03163
2 4 -0.710329 2.17856 3.53176
189 2 -2.48695 6.79544 2.046
176 2 -2.50142 4.7167 -0.21598
179 2 1.3767 5.76832 8.22095
86 3 -2.78813 6.04668 10.3196
284 2 0.0419841 1.46824 14.1331
290 2 -1.40553 5.83027 16.4024
5 4 -0.823618 2.26519 9.45174
58 1 -0.885622 6.1595 15.3442
232 2 -1.78962 3.65025 13.726
185 2 -0.495668 4.93233 12.0162
100 3 5.7993 0.916441 11.7913
3 4 0.296596 1.96275 16.3885
148 2 0.491704 5.29081 10.2322
55 1 0.0982387 5.89459 11.0381
83 3 -0.0164238 3.53222 8.63621
23 4 3.18294 2.43292 15.0937
61 1 3.50367 3.94512 9.25873
98 3 1.73354 2.22549 15.6882
108 3 2.30268 3.12171 12.149
197 2 3.69345 4.89534 8.61375
198 2 1.72589 3.92894 12.2922
199 2 2.45566 3.46252 9.08419
11 4 -1.66521 6.58057 11.3714
24 4 6.12622 2.48996 10.8656
28 4 3.65494 4.26352 11.1361
97 3 4.43437 3.07352 15.7956
99 3 5.74742 2.15325 9.32261
206 2 4.92125 0.916498 15.125
110 3 3.27793 5.86822 11.4759
152 2 2.96645 3.16934 13.4822
261 2 1.58198 5.3911 16.2729
269 2 1.52045 1.76963 10.3771
267 1 0.521573 1.28697 10.4098
184 2 0.934217 6.45408 11.5358
258 2 1.65551 5.79186 14.3128
256 1 2.28535 5.63442 15.3818
259 2 3.28787 5.0458 15.3043
190 2 -0.658849 5.35001 14.5812
109 3 5.16175 3.72205 11.5295
285 2 -0.00124276 1.4644 11.4582
20 4 4.57548 2.76028 8.34019
64 1 3.84506 0.750859 14.598
115 3 -1.92347 9.01304 8.15892
89 3 -3.69865 7.19541 7.87956
289 2 -1.44218 8.17167 3.0433
288 2 -3.00526 7.32337 3.86621
1 4 -6.13206 12.3999 1.15528
4 4 -5.64392 12.6904 7.57674
12 4 -3.56354 9.12667 2.50322
15 4 -2.82868 8.28892 7.05696
16 4 -4.35064 10.6248 5.8829
88 3 -3.71689 9.0248 0.84215
92 3 -3.87009 9.17433 6.11303
93 3 -4.94173 11.2021 7.39632
114 3 -3.14746 11.6894 5.29196
280 3 -5.0991 11.4536 0.508823
31 4 -2.00305 11.446 4.20801
90 3 -1.85587 7.47948 5.91041
113 3 -2.67503 10.4052 3.18373
57 1 -2.52839 7.66949 2.8433
116 3 -0.57043 10.9797 4.88421
91 3 -5.70264 10.5192 4.71738
14 4 -4.03751 10.2471 -0.167829
151 2 1.32832 7.11595 5.73864
213 2 -2.01427 12.5744 2.27199
65 1 2.42384 6.96753 5.94971
155 2 0.231626 9.8186 0.32606
181 2 1.13213 7.49603 7.84511
30 4 1.37442 8.60569 0.878541
33 4 0.805563 10.4827 5.35136
111 3 0.529458 7.55263 1.7032
217 2 0.802083 9.53689 7.08028
94 3 -1.94531 6.91097 12.8727
208 2 -4.75804 12.3553 15.2477
22 4 -1.08008 12.5537 12.8929
292 2 -3.36114 10.2593 10.5151
67 1 -2.98271 11.1863 9.79067
215 2 -2.62986 12.0378 10.4576
216 2 -1.67131 11.6872 8.54763
150 2 -4.21033 10.2562 12.9741
32 4 -1.51999 10.0276 9.22776
156 2 -3.72094 11.3179 8.92467
17 4 -2.14449 7.31448 14.43
95 3 -4.84526 9.62885 15.7206
119 3 -2.72544 10.989 16.4171
117 3 -1.85637 8.83846 14.753
118 3 -1.91814 11.3883 13.701
60 1 -5.84023 11.2003 13.3828
18 4 -5.30933 9.53107 14.166
34 4 -1.67095 10.4292 15.0785
147 2 -6.66534 12.512 8.98347
211 2 2.72338 7.47953 8.73545
120 3 -0.275029 9.82563 10.2431
268 2 -7.36751 12.4491 10.2167
69 1 0.0491126 10.7054 15.7861
195 2 -4.97691 11.87 12.9448
221 2 -0.211663 11.2492 16.7653
225 2 0.913586 9.87705 13.4641
186 2 -0.460603 7.73753 10.7187
209 2 1.44137 8.74171 9.09732
53 1 1.61016 7.7063 8.82304
196 2 -6.33517 11.5838 14.4314
220 2 0.607889 9.69217 15.972
255 4 2.68683 7.43225 15.5067
70 1 1.601 9.45332 12.6375
224 2 1.20604 8.51919 12.1931
35 4 0.867636 10.6203 11.137
121 3 0.150802 11.9209 12.0168
180 2 1.02625 6.98198 9.64394
260 2 2.42054 8.48591 14.1164
207 2 -3.97439 12.7485 13.514
191 2 -0.0289802 6.89751 15.4556
112 3 1.8656 7.97547 16.822
26 4 5.55483 5.28485 6.21244
105 3 7.16507 5.4158 5.94678
71 1 8.84455 2.4226 8.22702
275 2 5.61145 4.11303 1.66179
228 2 7.88707 1.9482 7.91633
135 3 5.03355 6.56064 7.18873
158 2 7.79941 1.23246 4.58325
286 2 11.2072 5.54811 4.7286
182 2 12.1637 4.07184 5.45811
21 4 8.62323 4.93491 5.71904
63 1 9.32351 6.37334 4.65068
62 1 11.3542 4.39333 7.87454
162 2 11.9801 2.87631 6.76641
74 1 9.78963 4.59041 0.969311
122 3 8.98703 3.58564 5.07448
234 2 8.67737 4.40402 1.17188
235 2 10.0661 4.53168 -0.0807611
36 4 9.22659 2.13479 4.4403
40 4 12.0157 1.55652 5.61591
43 4 10.3895 2.88499 1.63266
125 3 13.0011 1.91804 4.44679
126 3 10.5079 1.38175 4.99511
133 3 9.54476 2.42308 2.8721
134 3 10.6791 1.68635 0.627832
164 2 11.7467 3.94313 1.94737
236 2 10.1706 5.49041 1.53327
200 2 9.54243 4.92911 7.27531
204 2 9.79392 6.14582 3.624
202 2 11.6814 4.70073 6.74243
281 2 10.4075 3.63262 7.95008
227 2 9.63363 2.18722 7.44996
276 2 6.54638 2.44799 1.47447
178 2 11.6441 5.39387 1.29873
249 2 4.90279 6.10028 1.83177
214 2 7.36314 1.35652 2.99627
107 3 4.52621 5.44007 4.79949
205 2 10.0753 6.71922 5.54052
282 2 14.7385 0.686147 2.88284
19 4 5.98687 3.64655 16.6585
101 3 6.0102 5.25688 16.7403
242 2 6.07292 5.91434 12.045
76 1 6.88862 6.19756 12.8369
130 3 7.40446 2.94157 16.1663
201 2 12.3695 4.08389 8.55565
264 1 14.1301 1.43036 14.896
230 2 8.51211 4.81549 14.3153
265 2 13.3338 2.22353 14.4878
138 3 7.24486 6.56538 8.91309
59 1 11.0627 6.69736 15.0475
128 3 7.42631 1.36831 13.9423
123 3 13.6567 0.97617 8.5461
124 3 7.76042 2.75952 11.0034
9 4 11.1546 5.9889 8.98384
241 2 7.61922 5.31734 13.073
231 2 8.34571 3.62892 12.8657
131 3 13.0768 2.7597 10.5495
37 4 10.758 1.09512 16.3653
39 4 9.03645 2.29987 10.2053
41 4 8.31919 2.35919 14.8955
165 2 7.54085 5.25134 11.1895
229 2 10.0997 3.78862 13.7189
295 2 11.7252 4.53515 12.2802
42 4 11.7612 2.88721 11.5072
72 1 8.92834 3.84177 13.8349
73 1 12.1281 3.47514 13.4389
129 3 9.73213 1.64854 15.3396
132 3 10.3968 2.61816 10.874
233 2 11.454 3.52576 14.3029
45 4 8.30859 6.34273 10.0808
137 3 9.73408 5.6289 9.41636
294 2 12.3541 1.40219 15.7634
163 2 11.9849 1.80962 13.1787
192 2 11.4186 5.63294 15.3298
240 2 6.46996 6.57404 13.8337
193 2 10.3306 6.70839 14.1755
226 2 8.92131 0.805561 9.31145
161 2 8.60439 3.64057 8.39868
251 2 6.10615 7.48267 2.07893
13 4 7.95897 10.4917 3.80156
188 2 9.75857 8.67751 3.46954
187 2 8.06316 9.29994 1.78782
250 2 4.40902 7.83669 1.42478
127 3 4.72244 12.5172 6.32208
247 1 5.26487 7.11791 1.45623
262 1 3.74888 11.6083 2.24343
252 2 7.43908 8.51593 0.114152
160 2 6.5251 10.9404 7.61396
283 2 3.47664 11.5987 0.959457
38 4 5.20041 11.9991 7.77839
149 2 5.97664 8.74652 5.1746
263 2 4.91811 9.57107 3.42507
56 1 8.14184 8.94274 2.91786
139 3 2.57077 9.28595 1.7992
140 3 2.04386 10.1796 4.3881
219 2 2.38141 11.2788 7.05802
46 4 3.17007 10.0871 3.00812
166 2 3.15293 12.3834 2.85012
167 2 4.91117 11.518 2.43285
273 2 4.5968 9.89262 5.71274
270 1 5.44373 9.66315 4.95658
271 2 4.4618 8.06821 4.28246
272 2 6.27097 10.5267 4.9407
75 1 6.44759 8.9903 7.92584
237 2 6.1001 9.264 6.77225
287 2 7.20908 8.38942 3.36549
210 2 2.92522 7.96269 6.26857
159 2 2.3644 11.2329 -0.27319
68 1 1.22736 11.0935 6.86563
218 2 0.491436 11.9381 7.15306
203 2 8.4866 7.1074 4.54845
238 2 7.56829 8.71815 7.99779
87 3 7.82374 11.6459 2.66844
246 4 5.77192 6.82286 -0.360896
279 2 4.14984 10.9959 16.4557
48 4 7.73754 7.93984 12.4777
44 4 5.78472 7.21856 8.5208
153 2 5.19712 7.24013 12.6517
141 3 4.1187 11.2122 8.50615
293 2 2.82679 11.3412 15.1351
291 2 8.30573 10.9257 12.6538
29 4 4.13368 7.18706 11.312
254 2 8.18756 7.14403 16.4048
143 3 8.57926 7.77438 10.8743
257 3 4.51341 7.39058 15.9001
278 1 3.14973 11.5122 16.2234
223 2 2.70534 9.60725 12.8027
154 2 2.98282 8.44222 11.5368
168 2 3.16151 8.87241 9.14617
142 3 2.12074 11.102 10.2356
47 4 3.51595 10.479 9.72845
49 4 5.50959 10.2245 12.1399
77 1 4.87787 10.7049 13.8614
136 3 4.88154 7.42563 9.97643
145 3 4.50833 10.3676 10.897
146 3 6.56686 9.02899 12.2617
169 2 5.70977 11.2969 14.5954
243 2 3.90396 11.2733 13.7317
244 2 4.67434 9.51958 14.1904
245 2 6.21175 11.7019 12.9131
253 2 6.95344 8.27502 15.4912
248 1 7.30508 7.85581 16.4875
144 3 8.80391 8.27156 13.6783
239 2 6.10397 9.68807 8.76293
266 2 5.78332 12.6097 15.091
222 2 0.619632 11.3619 15.0783
194 2 10.68 7.32437 15.9261
ITEM: TIMESTEP
300
ITEM: NUMBER OF ATOMS
295
ITEM: BOX BOUNDS xy xz yz pp pp pp
-7.9400194813171350e+00 1.5055693276645961e+01 -7.9285373884105619e+00
6.5927825343657442e-01 1.2981847742707462e+01 -1.0048881626058097e-01
-3.7713602853938610e-01 1.6849257620453816e+01 3.2325996144037861e-02
ITEM: ATOMS id type x y z
81 3 -1.12088 2.78931 2.31275
54 1 -2.70183 5.04708 4.62422
183 2 -2.30203 5.08187 3.55039
52 1 -2.3387 5.09789 0.872204
10 4 -1.16969 6.07036 5.3244
85 3 -0.448107 5.14784 6.38696
7 4 -0.675178 3.88238 1.23263
172 2 3.88623 1.19339 1.07469
82 3 -0.550378 3.29094 -0.26267
177 2 -1.63055 6.02402 0.849138
78 3 0.780473 0.778492 0.2095
157 2 2.9361 6.52219 6.87529
66 1 6.25378 0.895439 3.37124
79 3 0.624606 2.73355 4.32188
103 3 -0.151681 6.25028 4.07945
102 3 0.598552 4.9044 1.74594
8 4 0.482416 4.46617 7.47274
6 4 1.73389 2.5575 5.45104
51 1 3.52751 2.53977 4.66363
84 3 1.59418 3.64375 6.64715
106 3 2.44409 6.41367 3.3062
173 2 3.27778 3.28245 3.78058
175 2 4.19132 3.03303 5.46983
274 1 5.82657 3.14619 1.10182
277 2 4.82365 2.68415 1.17816
174 2 3.78991 1.49285 4.40734
27 4 3.56134 6.58023 4.41006
25 4 0.855855 6.29148 2.63111
104 3 4.98388 3.83242 6.93869
50 1 2.92374 1.50913 1.63688
171 2 2.35118 2.35384 1.08319
212 2 6.19749 1.73968 4.16739
80 3 1.6232 0.903846 6.29582
170 2 3.08586 1.75752 2.69131
96 3 3.38689 1.59777 7.96901
2 4 -0.684701 2.06609 3.69109
189 2 -2.52909 6.65135 2.15373
151 2 1.46426 6.59511 5.79461
214 2 7.3272 0.717756 2.90319
213 2 5.38632 1.09297 2.64515
86 3 -2.54887 6.30441 9.9443
284 2 0.292153 1.06561 14.2399
290 2 -1.30923 5.80025 16.4822
5 4 -0.748618 2.36236 9.40214
58 1 -0.815564 6.17767 15.3937
232 2 -1.68052 3.55203 13.9445
185 2 -0.542095 4.55769 11.6145
100 3 5.52966 1.00123 11.7262
3 4 0.441089 1.99114 16.3544
148 2 0.551271 5.17648 10.0128
55 1 0.173286 5.6307 11.0043
83 3 -0.0959062 3.4539 8.50771
23 4 3.32129 2.58017 14.9272
61 1 3.25681 4.1353 9.23686
98 3 2.01452 2.50009 15.7791
108 3 2.2464 3.26109 11.9206
197 2 3.47707 5.02675 8.5063
198 2 1.68883 4.09263 12.1255
199 2 2.16813 3.69511 9.18757
11 4 -1.59207 6.42348 11.2138
24 4 5.94536 2.46691 11.0523
28 4 3.69065 4.38791 11.0847
97 3 4.62892 3.26625 15.6368
99 3 5.43432 2.48371 9.41493
206 2 5.04186 0.980085 15.0757
110 3 3.24017 5.94678 11.499
152 2 2.84049 3.01359 13.2112
261 2 1.28028 5.67303 16.2658
269 2 1.63008 1.74638 10.2368
267 1 0.558383 1.47874 10.5227
184 2 0.962175 5.97869 11.6825
258 2 2.00412 5.65632 14.3662
256 1 2.16515 5.74769 15.5979
259 2 3.11499 5.21027 16.029
190 2 -0.598994 5.22949 14.7352
109 3 5.13832 3.86601 11.761
285 2 0.150463 1.99987 11.5236
20 4 4.30288 2.85684 8.32949
64 1 3.95711 0.878049 14.5963