ITEM: TIMESTEP
0
ITEM: NUMBER OF ATOMS
295
ITEM: BOX BOUNDS xy xz yz pp pp pp
-8.2506599999999999e+00 1.4993253000000001e+01 -7.6204260000000001e+00
0.0000000000000000e+00 1.4189300000000001e+01 -6.3023400000000007e-01
0.0000000000000000e+00 1.6498000000000001e+01 5.8050000000000002e-01
ITEM: ATOMS id type x y z
6 4 0.864931 1.49834 5.67412
7 4 -0.154311 4.13679 1.96977
8 4 -0.385567 3.82698 7.86563
10 4 -1.87464 6.30262 5.82847
25 4 0.608481 6.2269 4.03516
27 4 2.99903 6.99526 5.78441
50 1 2.96814 1.04363 1.93381
51 1 2.53205 2.07766 5.16096
52 1 -1.48054 5.33934 1.42071
78 3 0.860789 0.572058 0.252676
79 3 0.0247638 1.23171 4.40204
180 2 1.84953 4.64732 8.22788
81 3 -1.02316 3.00396 2.7187
82 3 0.638083 3.62002 0.563288
84 3 0.359218 2.71866 6.83681
85 3 -1.77032 4.76563 6.9725
96 3 3.10926 0.810321 7.94519
102 3 0.904643 4.84128 3.18883
103 3 -0.983662 6.2403 4.4872
104 3 3.32231 3.82438 7.96494
106 3 1.54003 6.46285 5.43331
172 2 2.99623 0.383361 2.93292
170 2 2.2924 1.99468 1.87473
171 2 4.0398 1.11336 1.36765
250 2 2.74057 4.90784 2.64576
173 2 2.39413 2.26066 4.02024
174 2 3.22827 1.20393 5.42872
175 2 2.8154 3.03577 5.71415
176 2 -1.29702 6.3308 1.95788
277 2 5.7935 1.63643 1.70232
276 2 5.27886 0.372307 0.265145
274 1 5.9816 1.21158 0.620637
205 2 4.43016 2.26026 3.9029
26 4 4.44807 4.55776 7.15678
177 2 -2.62033 5.05186 1.5221
203 2 6.0126 1.21116 3.39431
204 2 5.68097 3.06129 2.69507
63 1 5.52345 2.33555 3.57734
178 2 -1.20652 5.41829 0.301137
247 1 3.88961 4.9326 2.5442
179 2 0.434696 6.00484 7.65035
249 2 4.52792 3.96085 2.93235
107 3 3.9068 5.87366 6.30021
105 3 5.29318 3.50851 6.20298
3 4 0.0611062 2.92015 15.9463
9 4 -3.93418 7.09564 9.35973
19 4 5.13797 3.1919 15.7865
20 4 3.40136 2.21737 8.82339
23 4 2.75227 2.65385 13.945
28 4 4.47667 4.5321 12.1508
100 3 6.09489 0.789432 11.3111
61 1 2.03021 2.25302 10.1365
64 1 2.54926 0.881661 13.3735
83 3 -0.738542 3.19184 9.33971
86 3 -2.28952 6.82206 9.87828
97 3 3.94954 2.64712 14.9621
98 3 1.22472 2.94202 14.8128
99 3 4.66894 2.23279 9.70434
108 3 3.10141 3.67202 12.4955
264 1 -1.56036 2.89194 15.1191
190 2 -3.44858 7.18011 13.3801
148 2 0.382207 6.5326 10.602
269 2 0.152089 2.0258 12.052
284 2 -1.25991 3.04471 14.0082
181 2 0.391167 5.32238 9.41681
53 1 0.76716 5.18588 8.32131
257 3 2.75418 6.84338 16.366
197 2 1.9989 1.0854 10.3356
198 2 1.00008 2.66665 9.87118
199 2 2.51199 2.84311 11.0548
267 1 -0.736322 1.26425 11.9184
208 2 2.85119 0.92274 12.2765
206 2 1.4975 0.582599 13.6037
259 2 0.14874 6.10683 15.7212
260 2 0.564996 6.81203 13.9563
232 2 -2.95141 5.92661 11.4605
233 2 -2.61377 4.8628 13.1073
265 2 -2.20656 3.73638 15.5117
256 1 0.224142 7.14129 14.9922
215 2 6.53114 0.412214 8.27353
1 4 -5.72344 13.3835 1.02913
4 4 -5.26472 13.0757 7.51547
12 4 -2.32471 9.35427 1.39397
15 4 -2.95077 9.01623 7.25195
16 4 -3.98962 11.1066 5.4111
30 4 1.60251 8.59962 2.30504
31 4 -1.20314 11.276 3.67983
216 2 -2.90633 13.6982 7.83199
56 1 -3.84817 8.58852 2.37736
157 2 1.43913 9.46684 6.51442
222 2 -0.881913 11.8559 0.436932
66 1 -0.93095 12.9583 2.92897
67 1 -1.79435 13.2927 7.80917
87 3 -6.54826 12.3663 2.32724
88 3 -3.07222 10.4101 0.469452
90 3 -1.8806 7.88779 6.75276
91 3 -5.20701 11.352 4.38388
92 3 -3.91352 9.52136 5.97783
93 3 -4.25036 12.1145 6.74013
111 3 0.937287 7.4516 3.10679
112 3 1.69579 8.24299 0.773362
113 3 -1.25056 9.95281 2.37047
114 3 -2.56035 11.3772 4.48984
115 3 -2.12529 10.2657 7.92805
116 3 0.109356 11.1487 4.71765
155 2 0.451023 9.82436 2.38252
292 2 -1.36117 12.8033 6.66008
187 2 -3.89446 9.02232 3.39502
189 2 -0.634972 7.81529 0.678063
211 2 1.71281 8.47153 7.68546
212 2 -0.397301 12.7632 1.92558
80 3 -6.6212 13.3933 6.68118
214 2 -1.96501 13.2647 2.67392
287 2 -3.4837 7.54452 2.33049
188 2 -4.74015 8.80004 1.77825
213 2 -0.378633 13.6307 3.61112
57 1 -1.57678 8.13347 0.115391
280 3 -4.82785 12.4225 0.111693
11 4 -1.04274 7.58648 10.4063
14 4 -4.48453 11.9642 15.8478
17 4 -2.33256 9.45759 12.7013
32 4 -1.46175 11.5304 8.53913
34 4 -1.78189 12.1031 14.5844
288 2 -1.91134 9.31907 15.6315
55 1 0.610043 8.06319 9.54756
58 1 -3.48532 8.2297 13.6886
59 1 -3.201 10.4547 11.3897
69 1 -0.805016 11.9937 16.1861
261 2 -0.64144 7.77494 14.9701
224 2 0.294803 9.59571 11.7843
94 3 -1.22647 8.51621 11.8737
95 3 -5.45458 10.9265 14.8154
117 3 -1.84433 10.4124 13.8958
118 3 -1.07745 13.1357 13.5344
119 3 -3.28835 12.6863 15.0307
120 3 -0.191544 11.3404 9.45872
89 3 -3.92041 8.44952 8.54908
154 2 2.22195 7.29516 10.2603
156 2 -2.71712 12.5035 9.31885
184 2 -0.612059 8.75893 8.76909
186 2 0.928048 9.00148 10.3301
191 2 -3.0225 8.4344 14.7874
192 2 -4.11678 9.68173 11.356
193 2 -2.74991 10.4975 10.3121
194 2 -3.54568 11.4511 11.7529
147 2 -5.84733 12.3216 8.93609
255 4 1.57295 7.86675 16.1189
221 2 -0.49881 10.9519 16.3863
258 2 1.49119 8.47308 14.4551
207 2 -4.33801 13.8499 14.0472
290 2 -4.42393 8.80811 13.4515
185 2 1.4387 7.77628 8.78119
70 1 1.20996 10.3242 11.7726
289 2 -2.93747 7.84822 16.4472
268 2 -7.96763 13.8589 11.8112
220 2 0.000514435 12.747 15.9297
236 2 11.1501 4.0526 0.709337
21 4 6.47486 3.08239 5.15145
127 3 12.2609 0.839061 6.97725
36 4 9.07412 1.667 4.9791
252 2 6.96737 6.34533 0.590049
40 4 11.841 1.95386 5.914
43 4 10.1138 2.53279 2.32147
54 1 11.4724 6.01063 5.08997
62 1 7.38323 4.66546 5.01739
248 1 5.95138 6.72149 0.926228
74 1 10.45 4.39324 1.57565
251 2 4.35119 5.90957 2.94893
122 3 7.65423 1.81384 5.64791
125 3 12.3054 1.56962 4.47455
126 3 10.2717 2.28914 5.88507
37 4 10.2486 0.365518 0.123331
133 3 9.0118 2.25411 3.42542
134 3 10.5517 1.48586 1.28959
226 2 9.47168 0.455828 8.01328
235 2 9.25306 4.31254 1.23856
162 2 12.6182 3.48831 6.2155
164 2 11.4311 3.5082 2.98224
202 2 7.08372 5.64795 5.72215
2 4 13.6601 1.55323 3.57849
286 2 11.0737 5.23603 5.82147
200 2 7.095 4.80273 3.88115
201 2 8.43149 4.17387 5.21658
253 2 5.83622 6.74847 2.07054
161 2 9.0639 2.66329 7.67529
234 2 10.6841 5.43644 1.89058
135 3 5.77603 5.09952 8.2253
283 2 13.478 0.907655 1.25257
246 4 4.54445 5.41781 0.702722
237 2 6.16516 6.88832 5.92862
262 1 13.5294 0.243791 2.14963
182 2 11.6446 5.59503 4.04074
101 3 5.24785 4.13091 0.129673
275 2 7.07065 1.0135 0.48458
281 2 10.6448 5.91149 8.2346
183 2 10.9026 6.96937 5.09042
5 4 13.3985 1.90162 10.3892
71 1 9.79172 1.30779 8.82194
44 4 6.28497 6.47801 8.67796
39 4 8.83509 2.84273 9.39712
41 4 7.96263 2.38138 14.48
42 4 11.0133 3.68026 11.6228
129 3 8.48223 1.33914 15.5254
29 4 3.91789 7.07272 10.5547
72 1 9.27497 3.77283 14.4005
295 2 10.6399 5.62281 12.8437
45 4 8.48925 6.60896 10.7782
138 3 7.6597 6.7396 9.49891
266 2 13.0776 1.80268 15.3562
124 3 7.39519 2.61307 9.85772
128 3 8.14016 1.60906 13.072
73 1 11.6379 5.22369 12.3179
130 3 6.54845 3.22161 15.0277
131 3 12.1537 2.85876 10.998
132 3 9.68939 3.93666 10.1771
227 2 9.73158 0.765985 9.88812
76 1 5.98698 6.8054 14.2504
152 2 5.16703 5.11985 13.6059
242 2 4.94002 6.91131 13.6959
163 2 10.2505 2.794 12.9134
165 2 8.65732 4.91236 10.9543
123 3 13.1332 0.590171 9.39833
229 2 9.22523 4.30544 13.4209
230 2 10.2657 3.30629 14.65
231 2 8.94398 4.44868 15.249
241 2 6.69847 5.89598 13.977
110 3 4.12682 5.7234 11.273
240 2 5.87654 7.00087 15.3961
228 2 10.872 1.74169 8.73781
137 3 9.95645 7.11028 10.5243
24 4 5.98472 2.37928 10.6473
285 2 13.5145 1.36642 12.7081
109 3 5.68861 3.57498 11.7328
150 2 9.27996 8.46795 0.21558
38 4 5.35646 13.481 7.95152
46 4 3.49996 10.4568 3.38578
68 1 1.51029 12.5985 6.60155
75 1 6.64847 7.18718 6.93984
139 3 3.30659 8.88761 3.04319
140 3 2.76681 10.933 4.68236
158 2 1.61221 13.5815 4.86602
149 2 6.90998 11.3054 4.56354
151 2 3.61463 7.92771 4.49712
160 2 6.91881 13.2015 7.38108
166 2 3.26078 11.4146 1.96376
167 2 5.16841 10.5512 3.84979
278 1 3.51562 12.1387 0.159189
217 2 1.63937 12.0691 7.63494
218 2 0.502256 13.1681 6.475
219 2 2.39963 13.1632 6.33842
254 2 5.67514 7.65972 0.383305
263 2 4.99827 13.1773 2.38999
291 2 8.7178 10.3788 1.05132
209 2 3.2443 9.19327 6.57581
239 2 6.30926 8.28436 7.14037
294 2 4.34154 11.6462 0.664527
270 1 7.00585 9.93507 3.56977
271 2 6.62441 9.01396 4.10872
272 2 8.42204 9.56608 2.92235
273 2 6.40817 10.2568 2.66334
282 2 6.89405 13.3622 2.18643
159 2 2.1073 12.3788 1.11741
210 2 3.56339 7.9626 8.04279
195 2 7.26102 9.17155 0.627312
33 4 1.43386 10.942 5.623
13 4 8.51684 11.3237 3.50885
60 1 7.99665 9.94142 0.256164
141 3 4.72375 12.0543 8.04002
65 1 2.81791 8.31329 7.24266
238 2 7.81171 7.14766 6.87414
18 4 8.3621 9.95356 15.2406
225 2 1.44705 10.7609 12.7843
196 2 6.82597 11.3891 16.0758
47 4 3.95615 11.1525 9.12569
48 4 6.81867 8.06313 13.1195
49 4 5.47326 10.6373 11.772
168 2 3.75669 9.69168 8.3366
35 4 1.14494 11.8054 10.5762
77 1 5.32606 12.0507 13.023
121 3 0.856277 12.9568 11.5727
136 3 4.67602 7.31139 9.28207
245 2 5.81881 11.727 14.0293
142 3 2.5553 11.6645 9.66621
279 2 2.55659 12.0738 15.8171
144 3 7.64955 9.04496 14.141
145 3 4.75354 10.9551 10.4469
146 3 5.52952 9.09723 12.2403
243 2 4.12343 11.9515 13.0625
153 2 4.23611 8.3392 11.5794
244 2 5.71736 13.1544 12.596
169 2 6.90684 11.5984 11.9555
223 2 2.13445 9.82748 11.2395
22 4 -0.381144 13.8953 12.3289
293 2 3.65079 13.9876 15.7639
143 3 7.6778 7.24551 12.0203
ITEM: TIMESTEP
100
ITEM: NUMBER OF ATOMS
295
ITEM: BOX BOUNDS xy xz yz pp pp pp
-8.2506599999999999e+00 1.4993253000000001e+01 -7.6204260000000001e+00
0.0000000000000000e+00 1.4189300000000001e+01 -6.3023400000000007e-01
0.0000000000000000e+00 1.6498000000000001e+01 5.8050000000000002e-01
ITEM: ATOMS id type x y z
6 4 0.835523 1.55028 5.927
7 4 -0.165575 4.12272 2.00905
8 4 -0.518128 3.84733 7.87958
10 4 -2.11878 6.24541 5.77803
25 4 0.602655 6.22983 4.12328
105 3 5.1837 3.3883 6.20058
50 1 3.17455 1.09437 1.74858
51 1 2.4826 2.02457 5.21163
52 1 -1.38523 5.41219 1.31259
78 3 1.03036 0.926384 0.0981923
79 3 0.0551751 1.34337 4.66333
180 2 1.73176 4.77107 7.95873
81 3 -1.18281 3.1058 2.55263
82 3 0.430627 3.40645 0.617168
84 3 0.138083 2.6385 6.8878
85 3 -1.83557 4.68805 6.9688
96 3 3.12618 0.828494 7.95391
102 3 1.04826 4.86752 3.11225
103 3 -0.971867 6.10937 4.58523
104 3 3.3356 3.84402 7.84163
106 3 1.52945 6.34966 5.50236
172 2 3.19594 0.736533 2.83878
170 2 2.50042 2.05018 1.62418
171 2 4.25496 1.11651 1.22438
250 2 2.94778 4.99137 2.63322
173 2 2.37947 2.066 4.05821
174 2 3.14329 1.2125 5.58134
175 2 2.64585 3.04072 5.69509
176 2 -1.15057 6.42679 1.82049
277 2 6.03861 1.75674 1.64319
276 2 5.53134 0.407758 0.223644
274 1 6.19558 1.30479 0.533076
205 2 4.53395 2.45192 3.66204
26 4 4.61662 4.48755 7.17589
177 2 -2.54407 5.07092 1.418
203 2 5.99612 1.26296 3.35736
257 3 3.5047 6.20874 0.0663897
63 1 5.68336 2.35663 3.53874
178 2 -1.00235 5.42941 0.248816
247 1 4.11238 5.01521 2.58993
179 2 0.339748 5.91579 7.37404
249 2 4.61832 4.03605 2.94805
53 1 0.735624 5.18375 8.17974
27 4 2.95785 6.95036 5.82667
3 4 0.0812625 2.86527 15.8285
265 2 -2.1198 3.70393 15.1488
19 4 5.21624 3.15956 15.6676
20 4 3.45248 2.19361 8.79233
23 4 2.65843 2.64535 13.8871
28 4 4.55267 4.46613 12.2628
100 3 6.08913 0.760932 11.5128
61 1 2.06334 2.22982 10.0778
64 1 2.56591 0.868744 13.251
83 3 -0.632851 3.1379 9.38274
86 3 -2.43289 6.86382 9.78603
97 3 3.91489 2.59561 14.9008
98 3 1.17185 3.22823 14.7071
99 3 4.85033 2.07034 9.50937
108 3 3.06176 3.64896 12.4843
264 1 -1.60382 2.69402 15.0311
190 2 -3.321 7.04847 13.2019
148 2 0.363799 6.56443 10.5721
269 2 0.249158 1.82085 11.6405
284 2 -1.34345 2.46511 13.924
181 2 0.694966 5.47839 9.29198
256 1 0.202495 6.95959 15.0415
233 2 -2.33292 4.88167 12.8333
197 2 2.0236 1.09251 10.3554
198 2 1.0459 2.6451 9.75811
199 2 2.46944 2.8927 10.9801
267 1 -0.658348 1.15913 11.7238
208 2 2.82703 1.10622 12.1046
232 2 -2.94302 5.93437 11.3387
259 2 0.0197092 6.04974 15.9513
260 2 0.564771 6.45248 14.1167
206 2 1.51331 0.519396 13.323
9 4 -4.04667 7.12655 9.21266
1 4 -5.68108 13.4532 1.04736
4 4 -5.19254 13.1309 7.53979
12 4 -2.41742 9.38461 1.52062
15 4 -3.08515 8.96913 7.11962
16 4 -4.02969 11.2199 5.41192
30 4 1.5932 8.55845 2.29997
31 4 -1.27791 11.3895 3.86818
216 2 -2.49714 13.834 7.72665
56 1 -3.75329 8.53102 2.69212
157 2 1.39112 9.48293 6.3755
222 2 -0.988095 11.583 0.646136
66 1 -1.03039 12.99 2.85684
67 1 -1.51079 13.2629 7.81873
87 3 -6.60215 12.401 2.26797
88 3 -3.19044 10.3689 0.607929
90 3 -2.08475 7.59101 6.52309
91 3 -5.38351 11.1984 4.51218
92 3 -3.8758 9.45454 5.90179
93 3 -4.16501 12.3546 6.56484
111 3 0.990754 7.38232 3.13455
112 3 1.82899 8.22623 0.718876
113 3 -1.16737 10.1131 2.51302
114 3 -2.62737 11.5091 4.63652
115 3 -2.09241 10.2412 7.84867
116 3 -0.0158979 11.1268 4.72381
155 2 0.491631 9.76144 2.31751
292 2 -1.22723 12.8212 6.7188
187 2 -3.79632 9.1542 3.62301
189 2 -0.720818 7.86116 0.78724
211 2 1.65722 8.27903 7.58743
212 2 -0.327619 12.9633 1.96105
80 3 -6.63416 13.357 6.85452
214 2 -2.10681 13.3079 2.62841
287 2 -3.36468 7.48773 2.87051
188 2 -4.73803 8.52492 2.10573
213 2 -0.557247 13.5538 3.75924
57 1 -1.70926 8.18933 0.235121
280 3 -4.74332 12.4546 0.212006
89 3 -4.17139 8.37134 8.18175
289 2 -2.43572 7.32668 0.0847204
11 4 -1.22039 7.63888 10.4103
14 4 -4.46882 11.896 15.9573
17 4 -2.34951 9.34674 12.7703
32 4 -1.53675 11.5431 8.56354
34 4 -1.69743 12.0182 14.6874
288 2 -2.1263 9.3577 15.7684
55 1 0.641145 8.05831 9.71015
58 1 -3.42922 8.11374 13.7183
59 1 -3.53332 10.3653 11.5119
69 1 -0.831024 12.0237 16.3189
261 2 -0.680555 7.72328 14.7824
224 2 0.205205 9.66897 11.6965
94 3 -1.38863 8.51666 11.7196
95 3 -5.30448 10.9108 14.9229
117 3 -1.73543 10.3207 13.9358
118 3 -0.672936 12.8649 13.6186
119 3 -3.24333 12.7413 14.9257
120 3 -0.344915 11.373 9.57292
215 2 -0.629617 13.8691 8.35193
220 2 -0.134685 12.9306 16.1447
156 2 -2.75169 12.6806 9.20888
184 2 -0.68829 8.73025 8.93998
186 2 1.0424 8.86455 10.3634
191 2 -3.14405 8.16551 14.8869
192 2 -4.468 9.7502 11.6332
193 2 -3.1043 10.3479 10.437
194 2 -3.71751 11.4117 11.8466
147 2 -5.29352 12.1427 8.94448
255 4 1.58403 7.62796 16.1376
221 2 -0.270016 11.0463 16.2868
258 2 1.50294 8.24696 14.4896
207 2 -4.31262 13.8177 13.8444
290 2 -4.40635 8.6074 13.5115
185 2 1.30397 7.73918 8.86615
70 1 1.27107 10.3186 11.872
154 2 2.3375 7.26007 10.3543
236 2 11.2178 4.14109 0.628964
21 4 6.44177 3.09482 5.2662
127 3 12.2024 0.873107 6.98413
36 4 9.09017 1.64142 4.92187
252 2 7.21406 6.04143 0.598374
40 4 11.8547 1.92863 5.80534
43 4 10.2795 2.63076 2.2612
54 1 11.1597 6.27077 5.12327
62 1 7.41695 4.71052 4.85448
248 1 6.24742 6.64766 0.755097
74 1 10.5099 4.4185 1.45433
251 2 4.59275 5.94145 3.06937
122 3 7.53105 1.97826 5.75086
125 3 12.3802 1.57929 4.36974
126 3 10.3103 2.1711 5.76419
37 4 10.3647 0.282644 0.279508
133 3 9.15751 2.15508 3.42663
134 3 10.8794 1.40808 1.40405
226 2 9.61147 0.491753 8.02927
235 2 9.15061 4.06745 1.08301
162 2 12.4741 3.49683 6.2953
164 2 11.5218 3.81054 2.91954
202 2 7.10142 5.68756 5.56575
2 4 13.6712 1.62945 3.44386
286 2 10.7612 5.34628 5.76288
200 2 7.07949 4.83002 3.79295
201 2 8.53779 4.46578 4.86246
204 2 6.09616 3.02781 2.70548
161 2 9.10974 2.788 7.66954
234 2 10.5593 5.51703 1.7436
275 2 7.3036 1.00746 0.349571
283 2 13.264 0.804938 1.19491
246 4 4.75214 5.43685 0.821337
238 2 7.89571 6.7801 6.75098
262 1 13.5042 0.271877 2.13895
182 2 11.4111 5.9523 4.01946
101 3 5.29675 4.00723 0.195618
107 3 4.121 6.00223 6.26249
237 2 6.16535 6.9344 5.93983
5 4 13.2638 1.95139 10.3805
71 1 9.8263 1.36084 8.78586
44 4 6.23314 6.75932 8.5093
39 4 8.83072 2.8566 9.40287
41 4 7.96392 2.43681 14.4896
42 4 10.9503 3.69012 11.4713
129 3 8.70816 1.40219 15.7266
29 4 4.00085 7.05411 10.6054
72 1 9.26721 3.89555 14.4575
295 2 10.8161 5.61642 12.7509
45 4 8.52007 6.74893 10.7439
138 3 7.44121 6.75767 9.4691
266 2 12.8005 1.87704 15.5315
124 3 7.38847 2.53022 9.85003
128 3 8.02053 1.74881 12.9625
73 1 11.7265 5.19927 12.176
130 3 6.58822 3.22278 14.8052
131 3 12.0178 2.63494 11.0229
132 3 9.86655 4.11554 10.1382
227 2 9.82417 0.954467 9.99595
76 1 5.81148 6.90087 14.0524
152 2 4.95536 5.17459 13.7967
242 2 4.84939 6.90757 13.492
163 2 9.94664 3.06943 12.8187
165 2 8.55303 5.07022 10.9935
123 3 12.9128 0.741826 9.41375
229 2 8.87642 4.47978 13.5709
230 2 10.3791 3.74412 14.3678
231 2 9.0379 4.5743 15.3433
241 2 6.54683 5.97796 13.8076
110 3 4.34307 5.73426 11.3915
240 2 5.66762 7.11676 15.2562
228 2 10.8159 1.70942 8.46127
109 3 5.71048 3.48096 11.755
24 4 6.01493 2.32451 10.6055
285 2 13.9965 1.08516 12.7087
135 3 5.75518 5.10752 8.26146
281 2 10.5824 5.69769 8.4176
65 1 2.79733 8.31846 7.22956
38 4 5.24951 13.5011 8.07891
46 4 3.53919 10.371 3.48898
68 1 1.61776 12.4943 6.76097
75 1 6.83433 7.30239 6.8135
139 3 3.30888 8.86136 3.13317
140 3 2.68904 10.9813 4.59835
158 2 1.61312 13.6184 5.075
149 2 6.80338 11.1668 4.53221
151 2 3.44555 7.7714 4.41635
160 2 6.87837 13.1858 7.56761
166 2 3.43659 11.4227 2.15666
167 2 5.21572 10.5928 3.8361
278 1 3.56545 11.9927 0.263131
217 2 1.4208 11.7561 7.72005
218 2 0.894632 13.3964 6.78892
219 2 2.75045 12.8019 6.5588
254 2 6.10679 7.54469 0.0857033
263 2 5.01798 13.2884 2.60238
291 2 8.56716 10.4804 0.831236
209 2 3.22342 9.15202 6.4331
239 2 6.94907 8.44908 6.8914
294 2 4.53487 11.7856 0.826314
270 1 6.99349 9.78846 3.36539
271 2 6.55217 8.85874 3.74597
272 2 8.38468 9.44578 2.69161
273 2 6.35827 10.1527 2.50527
282 2 6.999 13.2486 2.08957
159 2 2.1435 12.2082 1.1544
210 2 3.63261 7.94417 8.13047
195 2 8.09476 8.69001 0.954615
33 4 1.44036 11.0126 5.57016
13 4 8.37503 11.2188 3.50936
60 1 8.20211 9.60133 0.283226
141 3 4.47619 12.144 8.10487
253 2 6.10736 6.98433 1.84305
183 2 10.4893 7.19952 5.20614
18 4 8.52963 9.81138 15.1729
225 2 1.26861 10.9158 12.7833
196 2 6.58741 10.4831 16.1402
47 4 3.7317 11.2413 9.14958
48 4 6.805 8.15541 13.0497
49 4 5.35435 10.69 11.8634
168 2 3.55523 9.62864 8.48474
35 4 1.0198 11.6937 10.4725
77 1 5.60411 12.0828 13.1299
121 3 0.775483 13.0673 11.3634
136 3 4.66997 7.48239 9.29766
245 2 6.09997 11.7769 14.0569
142 3 2.33451 11.749 9.63312
279 2 2.73245 11.8076 15.9664
144 3 7.70052 9.03606 14.0847
145 3 4.7142 10.9951 10.4623
146 3 5.29793 9.24016 12.5092
243 2 4.39114 12.1565 13.3134
153 2 4.19541 8.25249 11.7176
244 2 6.01151 13.0435 12.6466
169 2 6.95739 11.2611 11.9613
223 2 2.21805 9.76204 11.6514
22 4 -0.14454 13.9432 12.3135
293 2 3.51253 13.8599 15.6971
143 3 7.75525 7.34674 12.0509
268 2 6.94097 13.7228 11.2995
137 3 9.96698 7.33332 10.5528
150 2 8.86171 8.71223 16.4975
ITEM: TIMESTEP
200
ITEM: NUMBER OF ATOMS
295
ITEM: BOX BOUNDS xy xz yz pp pp pp
-8.2506599999999999e+00 1.4993253000000001e+01 -7.6204260000000001e+00
0.0000000000000000e+00 1.4189300000000001e+01 -6.3023400000000007e-01
0.0000000000000000e+00 1.6498000000000001e+01 5.8050000000000002e-01
ITEM: ATOMS id type x y z
6 4 0.821852 1.54134 5.87852
7 4 -0.155246 4.22108 1.84572
8 4 -0.536383 3.83659 7.82762
10 4 -2.18843 6.17208 5.76786
25 4 0.62308 6.09345 4.06831
105 3 5.25962 3.43388 6.22009
50 1 3.22742 0.881392 1.90479
51 1 2.51776 2.24107 5.47486
52 1 -1.43458 5.50587 1.33132
78 3 1.02538 0.782741 0.142671
79 3 0.0139141 1.2195 4.47209
180 2 1.78811 4.68631 8.12801
81 3 -1.05579 3.03346 2.71826
82 3 0.598131 3.657 0.471452
84 3 0.136182 2.77041 6.84128
85 3 -2.0058 4.72263 7.04382
96 3 3.12965 0.856379 8.05894
102 3 0.890034 4.83586 2.96768
103 3 -1.16278 6.05809 4.57409
104 3 3.39449 4.00043 8.03494
106 3 1.57563 6.11145 5.39678
172 2 3.21708 0.348297 2.92568
170 2 2.72344 1.91855 1.86334
171 2 4.31563 0.913437 1.46853
250 2 3.27391 5.10324 2.44337
173 2 2.58817 2.24266 4.35499
174 2 3.27047 1.51249 5.96909
175 2 2.39519 3.27403 5.97203
176 2 -1.10081 6.40237 1.97229
277 2 5.94672 1.53163 1.72753
276 2 5.42865 0.241147 0.212084
274 1 6.1316 1.05409 0.56926
205 2 4.50171 2.38779 3.69103
26 4 4.52957 4.62011 7.06405
177 2 -2.58821 5.20399 1.48465
203 2 6.02905 1.33845 3.392
257 3 3.64239 6.12969 0.0969022
63 1 5.60046 2.40082 3.47626
178 2 -1.13039 5.52548 0.237909
247 1 4.39999 5.18961 2.67155
179 2 0.433533 6.04984 7.53963
249 2 4.85672 4.17764 3.09092
53 1 0.70624 5.13894 8.22017
27 4 2.94245 6.90023 5.70993
107 3 4.07176 5.78424 6.02003
3 4 0.0774309 2.83706 15.7429
24 4 5.93793 2.24349 10.6541
19 4 5.19361 3.09075 15.9059
20 4 3.36951 2.22196 8.84464
23 4 2.60143 2.71598 13.8354
28 4 4.43673 4.4632 12.1097
100 3 5.99512 0.85799 11.668
61 1 1.94417 2.22714 10.0585
64 1 2.39148 0.907447 13.2917
83 3 -0.836047 3.12374 9.26218
86 3 -2.45294 6.83898 9.90624
97 3 3.93348 2.74435 14.8998
98 3 1.08816 3.15406 14.5286
99 3 4.74704 2.05162 9.60083
108 3 3.02398 3.67183 12.4457
264 1 -1.57337 2.65706 14.9392
190 2 -3.12523 6.97159 13.443
148 2 0.264915 6.58687 10.5467
269 2 0.289504 2.24203 11.7173
284 2 -1.46869 3.38 14.0138
181 2 0.282513 5.37127 9.29972
256 1 0.359322 6.87895 15.1883
233 2 -2.29124 4.73891 12.7244
197 2 1.76791 1.0826 10.2125
198 2 1.05469 2.73681 9.64495
199 2 2.31965 2.79638 11.0173
267 1 -0.435521 1.41406 11.6866
208 2 2.41031 1.07772 12.1489
232 2 -2.79064 5.80417 11.17
259 2 0.188451 5.88952 15.7368
260 2 0.82221 6.7021 14.1384
285 2 -0.889725 1.18407 12.7111
268 2 0.000993246 0.448675 11.1402
1 4 -5.50413 13.3725 0.935528
4 4 -5.19093 13.0644 7.60811
12 4 -2.37256 9.3793 1.53651
15 4 -3.024 8.92461 7.07618
16 4 -4.11167 11.1681 5.29697
30 4 1.52712 8.48515 2.39646
31 4 -1.2824 11.4403 3.85537
289 2 -2.60007 7.42462 0.362745
56 1 -3.43023 8.35047 2.80219
157 2 1.54068 9.6552 6.74508
222 2 -0.801866 11.8243 0.49349
66 1 -0.999499 13.0787 2.9215
67 1 -1.47856 12.9961 7.68636
87 3 -6.48375 12.3415 2.03197
88 3 -3.14641 10.436 0.681215
90 3 -2.05748 7.72054 6.53772
91 3 -5.52116 11.2853 4.38641
92 3 -3.91081 9.68857 5.8373
93 3 -4.37803 12.1952 6.55247
111 3 0.821485 7.4774 3.31327
112 3 1.6301 8.10015 0.804531
113 3 -1.16735 9.99043 2.52227
114 3 -2.77921 11.6333 4.35933
115 3 -2.2854 10.1463 7.90242
116 3 -0.0771671 11.187 4.75569
155 2 0.487593 9.78197 2.58126
292 2 -1.05151 12.3984 6.63099
187 2 -3.02843 8.63895 3.79854
189 2 -0.682517 7.63733 0.732333
211 2 1.71644 8.12596 7.57657
212 2 -0.626545 12.9264 1.8841
80 3 -6.63613 13.5404 7.072
214 2 -2.11758 13.4409 2.92338
287 2 -3.31029 7.21673 2.65034
188 2 -4.51419 8.68691 2.67359
213 2 -0.315043 13.6502 3.63804
57 1 -1.57895 8.12036 0.279926
216 2 -2.44607 13.5665 7.506
89 3 -4.052 8.18503 8.03646
215 2 -0.735235 13.7066 8.08247
221 2 0.106709 10.1966 0.073141
11 4 -1.24852 7.73935 10.4843
14 4 -4.39092 11.956 15.8321
17 4 -2.59833 9.39563 12.9223
32 4 -1.53988 11.3671 8.60007
34 4 -1.58654 12.0286 14.5922
288 2 -2.0675 9.23404 15.7444
55 1 0.61532 8.10349 9.75011
58 1 -3.48419 7.94101 13.8942
59 1 -3.79016 10.5732 12.0879
69 1 -0.683683 11.9131 16.2798
261 2 -0.647482 7.35181 15.2014
224 2 0.215984 9.80715 11.8917
94 3 -1.57771 8.74375 11.7265
95 3 -5.38475 11.0172 14.9547
117 3 -1.82904 10.2982 14.0296
118 3 -0.640487 12.9569 13.6244
119 3 -3.12295 12.5777 14.8934
120 3 -0.349287 11.4051 9.67191
70 1 1.11499 10.373 11.9388
154 2 2.42376 7.4886 10.4573
156 2 -2.79287 12.5998 9.0093
184 2 -0.697525 8.77906 8.99446
186 2 1.02761 8.87615 10.5464
191 2 -3.13033 8.20464 15.0558
192 2 -4.73495 10.1473 12.6518
193 2 -3.84148 10.4021 11.0136
194 2 -3.5098 11.6527 12.4022
147 2 -5.51794 12.1013 8.92706
255 4 1.66178 7.5825 16.3436
206 2 -6.18805 14.0859 13.7613
258 2 1.76042 8.14284 14.7284
207 2 -4.23306 14.0211 13.6352
290 2 -4.58953 8.12833 13.7328
185 2 1.43755 7.98212 8.91954
280 3 -5.10627 13.2276 16.433
9 4 -4.11769 7.14694 9.21842
236 2 11.1142 4.53397 0.638498
21 4 6.42658 3.29475 5.14604
127 3 12.2626 0.873926 6.86983
36 4 9.08535 1.67629 4.85279
252 2 7.37406 6.0643 0.286856
40 4 11.753 2.03361 5.79909
43 4 10.4202 2.55562 2.21947
54 1 11.1362 5.8647 5.05191
62 1 7.29552 4.9478 4.95558
248 1 6.47503 6.54272 0.832718
74 1 10.5802 4.42091 1.63059
251 2 4.69371 6.1219 3.18401
122 3 7.60107 2.1186 5.41756
125 3 12.2727 1.60452 4.31524
126 3 10.1858 2.33099 5.92652
37 4 10.4885 0.359055 0.156442
133 3 9.33896 2.33188 3.46181
134 3 11.089 1.43083 1.23461
226 2 9.38275 0.566677 7.92406
235 2 9.16775 3.71649 1.13089
162 2 12.4258 3.55599 6.32414
164 2 11.747 3.77233 2.82935
202 2 7.00543 5.80295 5.63082
2 4 13.7341 1.56292 3.52197
286 2 10.7397 4.9036 5.5872
200 2 6.98869 5.21231 3.84004
201 2 8.4499 4.61113 4.9992
204 2 5.88313 3.04291 2.59318
161 2 8.88923 2.7939 7.6498
234 2 10.2477 5.39034 2.05618
275 2 7.24065 0.80118 0.428416
283 2 13.3326 0.639318 1.21371
246 4 4.93944 5.39635 0.747118
135 3 5.8783 5.11665 8.04503
262 1 13.585 0.152253 2.20766
182 2 11.2815 5.69022 3.92624
101 3 5.49398 3.93527 0.211271
253 2 6.52338 6.41759 2.04686
183 2 10.469 6.76153 5.24936
5 4 13.3642 1.93685 10.2825
71 1 9.80225 1.33494 8.63319
44 4 6.30442 6.65626 8.47087
39 4 8.8442 2.79465 9.37389
41 4 8.18808 2.44993 14.6206
42 4 10.9022 3.66711 11.5195
129 3 8.65246 1.38088 15.7857
29 4 4.0674 7.15579 10.6125
72 1 9.24606 4.03519 14.4448
295 2 10.9885 5.52246 12.7958
45 4 8.37362 6.81634 10.7032
138 3 7.62861 6.86194 9.35437
266 2 13.1725 1.61089 14.6035
124 3 7.38923 2.48412 9.87852
128 3 8.2524 1.7178 13.15
73 1 11.8217 5.14153 12.1402
130 3 6.52476 3.12845 15.084
131 3 12.1341 2.65949 11.1229
132 3 9.75481 4.02375 10.2836
227 2 9.81338 0.855973 9.85065
76 1 6.11886 6.65672 14.1699
152 2 5.177 4.97274 13.5528
242 2 5.07849 6.75806 13.7516
163 2 10.075 3.05896 12.8999
165 2 8.56559 5.19949 11.2386
123 3 12.8197 0.708983 9.41892
229 2 9.20221 4.52529 13.4042
230 2 10.3181 3.76368 14.7763
231 2 8.71088 4.63526 15.2797
241 2 6.83063 5.81786 13.8011
110 3 4.21419 5.78056 11.3041
240 2 6.06295 6.82996 15.3525
228 2 10.8049 1.79921 8.36186
109 3 5.52287 3.52989 11.4436
281 2 10.3693 5.6847 8.56845
265 2 12.6746 3.08144 15.7451
65 1 2.83307 8.15483 7.19534
38 4 5.17005 13.5102 8.02843
46 4 3.46602 10.3306 3.3719
68 1 1.47462 12.6488 6.48416
75 1 6.66326 7.48895 6.77021
139 3 3.2659 8.82047 3.0159
140 3 2.7095 10.8284 4.72514
158 2 1.47563 13.5692 4.74948
149 2 6.68259 11.4117 4.06136
151 2 3.36661 7.77403 4.32365
160 2 6.83979 13.2124 7.60363
166 2 3.2065 11.3627 2.07734
167 2 5.14978 10.6986 3.61959
278 1 3.67248 12.0443 0.224297
217 2 1.58102 12.1151 7.62534
218 2 0.698659 13.4643 6.43792
219 2 2.55943 13.0723 6.2053
237 2 6.15658 7.05979 5.8694
263 2 5.12394 13.1277 2.68463
291 2 8.55291 10.171 0.872753
209 2 3.18459 9.08519 6.63233
239 2 6.1494 8.54215 7.08186
294 2 4.48547 11.9486 0.99212
270 1 6.86784 9.94407 3.20111
271 2 6.38825 9.13281 3.82289
272 2 8.47121 9.50686 2.83161
273 2 6.2804 10.0403 2.25212
282 2 6.98139 13.1804 2.07629
159 2 2.20867 12.5288 1.14778
210 2 3.59259 7.87994 8.01951
195 2 8.28428 8.22458 0.943507
33 4 1.44901 10.9805 5.65936
13 4 8.35694 11.3678 3.29347
60 1 8.23933 9.17948 0.306462
141 3 4.54401 12.0766 8.16526
150 2 9.94984 8.20935 0.110329
254 2 6.2466 7.58651 0.442995
238 2 7.82913 7.51022 6.738
18 4 8.66796 9.69133 15.2615
225 2 1.15418 11.1404 12.8519
196 2 6.54241 9.82482 16.2537
47 4 3.76013 11.1534 9.1876
48 4 6.80352 8.14193 13.1669
49 4 5.33777 10.7108 11.9137
137 3 9.8128 7.51377 10.4032
35 4 0.977603 11.7564 10.6106
77 1 5.78878 12.2576 12.912
121 3 0.817877 13.3597 11.4565
136 3 4.80542 7.45035 9.32192
245 2 6.34253 12.0746 13.8979
142 3 2.30566 11.6086 9.7402
279 2 2.90498 11.6928 16.1699
144 3 7.79465 8.85737 14.219
145 3 4.65135 10.8797 10.5091
146 3 5.30114 9.35157 12.7601
243 2 4.46615 12.3635 13.088
153 2 4.57132 8.24752 11.8027
244 2 6.23378 13.2609 12.3906
169 2 6.99718 11.2951 11.7882
223 2 2.11047 9.86361 11.7024
22 4 -0.189649 13.9326 12.5442
293 2 3.70463 13.7076 15.654
143 3 7.49706 7.54839 11.9116
220 2 0.245516 12.548 16.0439
168 2 3.49986 9.73088 8.28469
ITEM: TIMESTEP
300
ITEM: NUMBER OF ATOMS
295
ITEM: BOX BOUNDS xy xz yz pp pp pp
-8.2506599999999999e+00 1.4993253000000001e+01 -7.6204260000000001e+00
0.0000000000000000e+00 1.4189300000000001e+01 -6.3023400000000007e-01
0.0000000000000000e+00 1.6498000000000001e+01 5.8050000000000002e-01
ITEM: ATOMS id type x y z
6 4 0.803467 1.60865 5.8471
7 4 -0.0464398 4.01634 1.80779
8 4 -0.598352 3.95489 7.79629
10 4 -2.0534 6.19136 5.77467
25 4 0.445913 6.11628 4.12019
105 3 5.14775 3.32042 5.99539
50 1 2.98014 0.784734 2.11242
51 1 2.41385 2.28221 5.2662
52 1 -1.48721 5.22236 1.3243
180 2 1.7382 4.63037 8.21511
79 3 0.165584 1.08226 4.52385
27 4 2.88793 6.78879 5.72702
81 3 -0.802896 2.7164 2.56143
82 3 0.5477 3.53086 0.409644
84 3 0.119037 2.81317 6.71184
85 3 -1.83229 4.67097 7.08854
96 3 3.03845 0.934185 7.83454
102 3 0.91784 4.9178 2.99365
103 3 -1.08687 5.84558 4.50214
104 3 3.34191 3.80574 7.85177
106 3 1.51611 6.12799 5.58904
275 2 6.81058 0.56835 0.319086
170 2 2.36196 1.70733 2.2906
171 2 4.06469 1.01356 1.5758
250 2 3.23301 5.36257 2.76218
173 2 2.29499 2.21506 4.11225
174 2 3.27975 1.60458 5.72543
175 2 2.49546 3.37116 5.62185
176 2 -1.13388 6.15038 1.89519
277 2 5.75662 1.52237 1.71418
276 2 4.86237 0.527458 0.166937
274 1 5.79681 1.0705 0.565637
205 2 4.35461 2.38844 3.72396
26 4 4.58985 4.49536 7.0957
177 2 -2.60073 4.94855 1.42449
203 2 5.9349 1.26826 3.43397
257 3 3.79912 6.31457 0.0052102
63 1 5.51878 2.37862 3.51973
178 2 -1.17883 5.27993 0.215162
247 1 4.33456 5.19618 2.74086
179 2 0.403919 6.00144 7.70944
249 2 4.67839 4.12146 3.05556
107 3 4.08322 5.83515 6.13607
204 2 5.73738 3.03813 2.58015
172 2 3.17923 0.198182 3.02926
3 4 0.0590187 2.88026 15.8346
24 4 5.84696 2.30975 10.6733
19 4 5.1042 3.08754 15.8316
20 4 3.39907 2.13186 8.74396
23 4 2.63596 2.72799 13.9202
28 4 4.32985 4.62523 12.1396
100 3 6.1093 0.907024 11.7972
61 1 2.06662 2.30349 10.0831
64 1 2.44785 0.972489 13.3394
83 3 -1.06651 3.14893 9.12739
86 3 -2.40543 6.91211 9.87894
97 3 3.91517 2.76963 14.8579
98 3 1.2487 3.09062 14.6284
99 3 4.65328 1.94004 9.70415
108 3 2.98836 3.82347 12.3519
264 1 -1.67742 2.5818 15.0921
190 2 -3.23098 7.08659 13.4371
148 2 0.291622 7.01295 10.9652
269 2 0.243363 2.57313 11.5138
284 2 -1.51058 3.27661 14.1033
181 2 0.513335 5.19589 9.53892
256 1 0.561421 6.94881 15.0544
233 2 -2.36244 4.994 12.9514
197 2 1.65648 1.26082 10.2965
198 2 1.28146 2.90804 9.46045
199 2 2.43291 2.92414 11.0351
267 1 -0.498432 1.67292 11.6567
208 2 2.21126 1.06256 12.2244
232 2 -2.76552 5.94307 11.3831
259 2 0.442133 5.89666 15.7986
260 2 1.174 6.73686 14.126
9 4 -3.99649 7.12318 9.23753