ITEM: TIMESTEP
0
ITEM: NUMBER OF ATOMS
295
ITEM: BOX BOUNDS xy xz yz pp pp pp
-8.4989799999999995e+00 1.5144700000000000e+01 -7.6974000000000000e+00
0.0000000000000000e+00 1.4189300000000001e+01 -8.0158000000000007e-01
0.0000000000000000e+00 1.6498000000000001e+01 5.8050000000000002e-01
ITEM: ATOMS id type x y z
6 4 0.816926 1.49834 5.67412
7 4 -0.175567 4.13679 1.96977
8 4 -0.468118 3.82698 7.86563
10 4 -1.95186 6.30262 5.82847
25 4 0.574276 6.2269 4.03516
27 4 2.97148 6.99526 5.78441
50 1 2.97878 1.04363 1.93381
51 1 2.50601 2.07766 5.16096
52 1 -1.5097 5.33934 1.42071
78 3 0.866957 0.572058 0.252676
79 3 -0.0190064 1.23171 4.40204
180 2 1.78594 4.64732 8.22788
81 3 -1.06068 3.00396 2.7187
82 3 0.638895 3.62002 0.563288
84 3 0.294478 2.71866 6.83681
85 3 -1.85792 4.76563 6.9725
96 3 3.06121 0.810321 7.94519
102 3 0.881893 4.84128 3.18883
103 3 -1.03847 6.2403 4.4872
104 3 3.27621 3.82438 7.96494
106 3 1.50125 6.46285 5.43331
172 2 2.99716 0.383361 2.93292
170 2 2.29681 1.99468 1.87473
171 2 4.06693 1.11336 1.36765
250 2 2.7418 4.90784 2.64576
173 2 2.37811 2.26066 4.02024
174 2 3.20659 1.20393 5.42872
175 2 2.7867 3.03577 5.71415
176 2 -1.3297 6.3308 1.95788
277 2 5.835 1.63643 1.70232
276 2 5.32953 0.372307 0.265145
274 1 6.03581 1.21158 0.620637
205 2 4.43588 2.26026 3.9029
26 4 4.42143 4.55776 7.15678
177 2 -2.66202 5.05186 1.5221
203 2 6.03939 1.21116 3.39431
204 2 5.7114 3.06129 2.69507
63 1 5.54346 2.33555 3.57734
178 2 -1.22172 5.41829 0.301137
247 1 3.90345 4.9326 2.5442
179 2 0.362583 6.00484 7.65035
249 2 4.54433 3.96085 2.93235
107 3 3.88326 5.87366 6.30021
105 3 5.28462 3.50851 6.20298
3 4 -0.0977391 2.92015 15.9463
9 4 -4.06752 7.09564 9.35973
19 4 5.032 3.1919 15.7865
20 4 3.34749 2.21737 8.82339
23 4 2.64062 2.65385 13.945
28 4 4.40038 4.5321 12.1508
100 3 6.04334 0.789432 11.3111
61 1 1.94936 2.25302 10.1365
64 1 2.44127 0.881661 13.3735
83 3 -0.839399 3.19184 9.33971
86 3 -2.41143 6.82206 9.87828
97 3 3.83981 2.64712 14.9621
98 3 1.08897 2.94202 14.8128
99 3 4.61906 2.23279 9.70434
108 3 3.00778 3.67202 12.4955
264 1 -1.72731 2.89194 15.1191
190 2 -3.61722 7.18011 13.3801
148 2 0.280048 6.5326 10.602
269 2 0.0331055 2.0258 12.052
284 2 -1.41272 3.04471 14.0082
181 2 0.30095 5.32238 9.41681
53 1 0.691696 5.18588 8.32131
257 3 2.61834 6.84338 16.366
197 2 1.91574 1.0854 10.3356
198 2 0.911474 2.66665 9.87118
199 2 2.42681 2.84311 11.0548
267 1 -0.862943 1.26425 11.9184
208 2 2.75723 0.92274 12.2765
206 2 1.37659 0.582599 13.6037
259 2 -0.00697012 6.10683 15.7212
260 2 0.43114 6.81203 13.9563
232 2 -3.09582 5.92661 11.4605
233 2 -2.77124 4.8628 13.1073
265 2 -2.38396 3.73638 15.5117
256 1 0.0764841 7.14129 14.9922
215 2 6.51437 0.412214 8.27353
1 4 -5.79154 13.3835 1.02913
4 4 -5.39306 13.0757 7.51547
12 4 -2.36214 9.35427 1.39397
15 4 -3.0531 9.01623 7.25195
16 4 -4.08403 11.1066 5.4111
30 4 1.59565 8.59962 2.30504
31 4 -1.25209 11.276 3.67983
216 2 -3.01401 13.6982 7.83199
56 1 -3.91081 8.58852 2.37736
157 2 1.38852 9.46684 6.51442
222 2 -0.895191 11.8559 0.436932
66 1 -0.969643 12.9583 2.92897
67 1 -1.89056 13.2927 7.80917
87 3 -6.63768 12.3663 2.32724
88 3 -3.10795 10.4101 0.469452
90 3 -1.96712 7.88779 6.75276
91 3 -5.30345 11.352 4.38388
92 3 -4.01283 9.52136 5.97783
93 3 -4.3607 12.1145 6.74013
111 3 0.915687 7.4516 3.10679
112 3 1.70519 8.24299 0.773362
113 3 -1.2869 9.95281 2.37047
114 3 -2.63111 11.3772 4.48984
115 3 -2.22604 10.2657 7.92805
116 3 0.0632837 11.1487 4.71765
155 2 0.431753 9.82436 2.38252
292 2 -1.44152 12.8033 6.66008
187 2 -3.96775 9.02232 3.39502
189 2 -0.648167 7.81529 0.678063
211 2 1.65326 8.47153 7.68546
212 2 -0.42057 12.7632 1.92558
80 3 -6.75489 13.3933 6.68118
214 2 -2.0116 13.2647 2.67392
287 2 -3.54219 7.54452 2.33049
188 2 -4.80581 8.80004 1.77825
213 2 -0.418569 13.6307 3.61112
57 1 -1.59386 8.13347 0.115391
280 3 -4.87773 12.4225 0.111693
11 4 -1.15734 7.58648 10.4063
14 4 -4.68831 11.9642 15.8478
17 4 -2.48314 9.45759 12.7013
32 4 -1.56191 11.5304 8.53913
34 4 -1.94573 12.1031 14.5844
288 2 -2.08696 9.31907 15.6315
55 1 0.52073 8.06319 9.54756
58 1 -3.65742 8.2297 13.6886
59 1 -3.34723 10.4547 11.3897
69 1 -0.975008 11.9937 16.1861
261 2 -0.79762 7.77494 14.9701
224 2 0.179938 9.59571 11.7843
94 3 -1.35759 8.51621 11.8737
95 3 -5.65784 10.9265 14.8154
117 3 -2.00192 10.4124 13.8958
118 3 -1.22368 13.1357 13.5344
119 3 -3.47187 12.6863 15.0307
120 3 -0.288066 11.3404 9.45872
89 3 -4.0455 8.44952 8.54908
154 2 2.14179 7.29516 10.2603
156 2 -2.83775 12.5035 9.31885
184 2 -0.705933 8.75893 8.76909
186 2 0.834121 9.00148 10.3301
191 2 -3.20091 8.4344 14.7874
192 2 -4.27192 9.68173 11.356
193 2 -2.88081 10.4975 10.3121
194 2 -3.69902 11.4511 11.7529
147 2 -5.99576 12.3216 8.93609
255 4 1.42765 7.86675 16.1189
221 2 -0.667712 10.9519 16.3863
258 2 1.3617 8.47308 14.4551
207 2 -4.5223 13.8499 14.0472
290 2 -4.60313 8.80811 13.4515
185 2 1.36542 7.77628 8.78119
70 1 1.10445 10.3242 11.7726
289 2 -3.13162 7.84822 16.4472
268 2 -8.16622 13.8589 11.8112
220 2 -0.158777 12.747 15.9297
236 2 11.2557 4.0526 0.709337
21 4 6.48875 3.08239 5.15145
127 3 12.315 0.839061 6.97725
36 4 9.11598 1.667 4.9791
252 2 7.03184 6.34533 0.590049
40 4 11.9015 1.95386 5.914
43 4 10.1928 2.53279 2.32147
54 1 11.5374 6.01063 5.08997
62 1 7.40763 4.66546 5.01739
248 1 6.00223 6.72149 0.926228
74 1 10.5398 4.39324 1.57565
251 2 4.36565 5.90957 2.94893
122 3 7.67507 1.81384 5.64791
125 3 12.385 1.56962 4.47455
126 3 10.3166 2.28914 5.88507
37 4 10.3508 0.365518 0.123331
133 3 9.06857 2.25411 3.42542
134 3 10.6454 1.48586 1.28959
226 2 9.48722 0.455828 8.01328
235 2 9.33414 4.31254 1.23856
162 2 12.6835 3.48831 6.2155
164 2 11.5167 3.5082 2.98224
202 2 7.09805 5.64795 5.72215
2 4 13.7623 1.55323 3.57849
286 2 11.1274 5.23603 5.82147
200 2 7.12786 4.80273 3.88115
201 2 8.46449 4.17387 5.21658
253 2 5.87447 6.74847 2.07054
161 2 9.0787 2.66329 7.67529
234 2 10.7731 5.43644 1.89058
135 3 5.75212 5.09952 8.2253
283 2 13.6017 0.907655 1.25257
246 4 4.58333 5.41781 0.702722
237 2 6.16815 6.88832 5.92862
262 1 13.6445 0.243791 2.14963
182 2 11.7218 5.59503 4.04074
101 3 5.29956 4.13091 0.129673
275 2 7.13722 1.0135 0.48458
281 2 10.67 5.91149 8.2346
183 2 10.9618 6.96937 5.09042
5 4 13.4299 1.90162 10.3892
71 1 9.8024 1.30779 8.82194
44 4 6.26167 6.47801 8.67796
39 4 8.83036 2.84273 9.39712
41 4 7.89826 2.38138 14.48
42 4 11.0083 3.68026 11.6228
129 3 8.41265 1.33914 15.5254
29 4 3.85192 7.07272 10.5547
72 1 9.22465 3.77283 14.4005
295 2 10.619 5.62281 12.8437
45 4 8.46721 6.60896 10.7782
138 3 7.64208 6.7396 9.49891
266 2 13.0562 1.80268 15.3562
124 3 7.37131 2.61307 9.85772
128 3 8.09167 1.60906 13.072
73 1 11.6323 5.22369 12.3179
130 3 6.46432 3.22161 15.0277
131 3 12.1665 2.85876 10.998
132 3 9.68549 3.93666 10.1771
227 2 9.731 0.765985 9.88812
76 1 5.90495 6.8054 14.2504
152 2 5.08316 5.11985 13.6059
242 2 4.85296 6.91131 13.6959
163 2 10.2249 2.794 12.9134
165 2 8.63523 4.91236 10.9543
123 3 13.1719 0.590171 9.39833
229 2 9.18421 4.30544 13.4209
230 2 10.2229 3.30629 14.65
231 2 8.88184 4.44868 15.249
241 2 6.62637 5.89598 13.977
110 3 4.05577 5.7234 11.273
240 2 5.78194 7.00087 15.3961
228 2 10.8945 1.74169 8.73781
137 3 9.95177 7.11028 10.5243
24 4 5.9387 2.37928 10.6473
285 2 13.524 1.36642 12.7081
109 3 5.62874 3.57498 11.7328
150 2 9.37155 8.46795 0.21558
38 4 5.33105 13.481 7.95152
46 4 3.50145 10.4568 3.38578
68 1 1.45953 12.5985 6.60155
75 1 6.64623 7.18718 6.93984
139 3 3.30956 8.88761 3.04319
140 3 2.74793 10.933 4.68236
158 2 1.57983 13.5815 4.86602
149 2 6.93414 11.3054 4.56354
151 2 3.60617 7.92771 4.49712
160 2 6.91489 13.2015 7.38108
166 2 3.27408 11.4146 1.96376
167 2 5.18211 10.5512 3.84979
278 1 3.54954 12.1387 0.159189
217 2 1.57958 12.0691 7.63494
218 2 0.442579 13.1681 6.475
219 2 2.36049 13.1632 6.33842
254 2 5.72863 7.65972 0.383305
263 2 5.02485 13.1773 2.38999
291 2 8.79535 10.3788 1.05132
209 2 3.21131 9.19327 6.57581
239 2 6.30159 8.28436 7.14037
294 2 4.37875 11.6462 0.664527
270 1 7.04091 9.93507 3.56977
271 2 6.65024 9.01396 4.10872
272 2 8.47789 9.56608 2.92235
273 2 6.44627 10.2568 2.66334
282 2 6.94182 13.3622 2.18643
159 2 2.11741 12.3788 1.11741
210 2 3.51895 7.9626 8.04279
195 2 7.32809 9.17155 0.627312
33 4 1.39212 10.942 5.623
13 4 8.56778 11.3237 3.50885
60 1 8.07486 9.94142 0.256164
141 3 4.69106 12.0543 8.04002
65 1 2.77394 8.31329 7.24266
238 2 7.82187 7.14766 6.87414
18 4 8.29416 9.95356 15.2406
225 2 1.33382 10.7609 12.7843
196 2 6.73416 11.3891 16.0758
47 4 3.90486 11.1525 9.12569
48 4 6.75635 8.06313 13.1195
49 4 5.41083 10.6373 11.772
168 2 3.71127 9.69168 8.3366
35 4 1.05074 11.8054 10.5762
77 1 5.24963 12.0507 13.023
121 3 0.749198 12.9568 11.5727
136 3 4.63043 7.31139 9.28207
245 2 5.73729 11.727 14.0293
142 3 2.48445 11.6645 9.66621
279 2 2.42425 12.0738 15.8171
144 3 7.5854 9.04496 14.141
145 3 4.69709 10.9551 10.4469
146 3 5.46297 9.09723 12.2403
243 2 4.03445 11.9515 13.0625
153 2 4.16311 8.3392 11.5794
244 2 5.64916 13.1544 12.596
169 2 6.85706 11.5984 11.9555
223 2 2.04361 9.82748 11.2395
22 4 -0.508282 13.8953 12.3289
293 2 3.53002 13.9876 15.7639
143 3 7.63515 7.24551 12.0203
ITEM: TIMESTEP
100
ITEM: NUMBER OF ATOMS
295
ITEM: BOX BOUNDS xy xz yz pp pp pp
-8.4989799999999995e+00 1.5144700000000000e+01 -7.6974000000000000e+00
0.0000000000000000e+00 1.4189300000000001e+01 -8.0158000000000007e-01
0.0000000000000000e+00 1.6498000000000001e+01 5.8050000000000002e-01
ITEM: ATOMS id type x y z
6 4 0.761114 1.53875 5.95542
7 4 -0.183898 4.10871 2.01421
8 4 -0.592824 3.8257 7.88513
10 4 -2.18055 6.24424 5.77903
25 4 0.590016 6.20706 4.11977
105 3 5.2005 3.37532 6.22949
50 1 3.18922 1.09153 1.76176
51 1 2.41155 2.02374 5.2273
52 1 -1.38115 5.41748 1.29983
78 3 1.06743 0.92447 0.0985003
79 3 -0.0214725 1.33738 4.69551
180 2 1.69111 4.74883 7.96455
81 3 -1.20714 3.10757 2.56811
82 3 0.405085 3.4095 0.635492
84 3 0.0684157 2.62799 6.90534
85 3 -1.89875 4.68783 6.94634
96 3 3.08393 0.830426 7.94213
102 3 1.05478 4.87062 3.09349
103 3 -1.01513 6.12909 4.59855
104 3 3.30923 3.83339 7.82454
106 3 1.50014 6.3371 5.51198
172 2 3.23763 0.715521 2.84463
170 2 2.54041 2.04423 1.67341
171 2 4.27157 1.12975 1.2457
250 2 2.93317 4.96016 2.63545
173 2 2.28821 2.01981 4.05389
174 2 3.07233 1.23118 5.6117
175 2 2.56312 3.05687 5.66227
176 2 -1.15167 6.43108 1.79385
277 2 6.06016 1.72727 1.60946
27 4 2.92341 6.94662 5.8485
274 1 6.23161 1.2956 0.525205
205 2 4.58933 2.47893 3.64474
26 4 4.59737 4.48575 7.16846
177 2 -2.55003 5.06642 1.4329
203 2 6.01452 1.29189 3.34294
276 2 5.60744 0.347916 0.246051
63 1 5.7123 2.3715 3.50841
178 2 -1.01852 5.42889 0.244755
247 1 4.10128 4.99942 2.57475
179 2 0.30758 5.89398 7.40398
249 2 4.62665 3.99936 2.96182
53 1 0.69015 5.13964 8.19439
257 3 3.53692 6.2186 0.0756727
3 4 -0.0530302 2.86092 15.8258
256 1 0.0592113 6.96329 15.0593
19 4 5.10894 3.16821 15.6713
20 4 3.43004 2.19652 8.77168
23 4 2.5572 2.66193 13.8833
28 4 4.48384 4.45949 12.2584
100 3 6.04647 0.759628 11.5107
61 1 2.04797 2.2329 10.0577
64 1 2.46645 0.878816 13.2499
83 3 -0.791923 3.12938 9.3813
86 3 -2.57448 6.86345 9.8183
97 3 3.8113 2.61451 14.8891
98 3 1.05095 3.22999 14.7199
99 3 4.8167 2.07362 9.49611
108 3 2.98429 3.63456 12.5087
264 1 -1.73143 2.68056 15.0175
190 2 -3.43544 7.0453 13.182
148 2 0.264521 6.60817 10.5539
269 2 0.123985 1.81577 11.6458
284 2 -1.44232 2.47741 13.9126
181 2 0.638282 5.39344 9.32714
233 2 -2.53566 4.84695 12.8185
265 2 -2.26949 3.70162 15.147
197 2 2.05391 1.13484 10.3829
198 2 1.0022 2.58523 9.7064
199 2 2.37008 2.93333 10.9473
267 1 -0.780111 1.16421 11.7025
208 2 2.74064 1.10365 12.1115
206 2 1.40222 0.572769 13.3254
259 2 -0.122297 6.02932 15.9744
260 2 0.417342 6.46072 14.1312
232 2 -3.10422 5.9265 11.3522
1 4 -5.72309 13.4351 1.02867
4 4 -5.321 13.1209 7.54763
12 4 -2.42952 9.39209 1.5076
15 4 -3.18919 8.96361 7.13449
16 4 -4.12624 11.2064 5.39669
30 4 1.54402 8.54312 2.30197
31 4 -1.31663 11.376 3.87879
216 2 -2.65518 13.8141 7.74986
56 1 -3.75904 8.54359 2.69667
157 2 1.33261 9.49026 6.35549
222 2 -1.06827 11.5587 0.6018
66 1 -1.10809 12.9955 2.88875
67 1 -1.6432 13.2617 7.82915
87 3 -6.64011 12.4101 2.27697
88 3 -3.20139 10.3999 0.597153
90 3 -2.20036 7.5783 6.53689
91 3 -5.46043 11.1858 4.49688
92 3 -3.97824 9.47961 5.90118
93 3 -4.31247 12.3659 6.52469
111 3 0.951573 7.36684 3.12718
112 3 1.81147 8.20477 0.723353
113 3 -1.13959 10.1436 2.55144
114 3 -2.69647 11.4767 4.64739
115 3 -2.20583 10.2368 7.87294
116 3 -0.0560953 11.1224 4.73918
155 2 0.458764 9.87696 2.36591
292 2 -1.35945 12.8432 6.73029
187 2 -3.83123 9.14078 3.62822
189 2 -0.765575 7.83695 0.745558
211 2 1.6045 8.32466 7.60262
212 2 -0.406146 12.9617 2.00654
80 3 -6.77317 13.3691 6.9068
214 2 -2.17341 13.2937 2.65435
287 2 -3.36633 7.51761 2.87792
188 2 -4.74377 8.50912 2.12195
213 2 -0.658206 13.5713 3.77643
57 1 -1.71735 8.18047 0.214838
280 3 -4.78835 12.4477 0.214874
89 3 -4.29939 8.39057 8.17186
289 2 -2.47532 7.35512 0.0649394
11 4 -1.35862 7.65683 10.3998
14 4 -4.67319 11.8881 15.9623
17 4 -2.4845 9.35532 12.7637
32 4 -1.63415 11.537 8.56935
34 4 -1.88514 12.0366 14.6751
288 2 -2.28662 9.35485 15.7667
55 1 0.548585 8.01464 9.73739
58 1 -3.57019 8.12099 13.6885
59 1 -3.65286 10.3523 11.4908
69 1 -1.03323 12.0243 16.3175
261 2 -0.83902 7.70232 14.7985
224 2 0.0426751 9.66726 11.6765
94 3 -1.50142 8.53083 11.7233
95 3 -5.49967 10.9119 14.926
117 3 -1.91434 10.3242 13.9352
118 3 -0.87208 12.8775 13.6241
119 3 -3.4297 12.7384 14.9115
120 3 -0.421817 11.3758 9.55268
215 2 -0.772923 13.8755 8.36775
220 2 -0.377253 12.9763 16.1643
156 2 -2.8288 12.6553 9.24814
184 2 -0.829805 8.73986 8.9364
186 2 0.984972 8.77945 10.4228
191 2 -3.22988 8.19469 14.8641
192 2 -4.57182 9.71079 11.6505
193 2 -3.28378 10.363 10.4214
194 2 -3.81709 11.3878 11.8701
147 2 -5.37247 12.1199 8.94454
255 4 1.42976 7.63319 16.1603
221 2 -0.447981 11.1013 16.3411
258 2 1.33856 8.26792 14.5073
207 2 -4.50238 13.7968 13.8649
290 2 -4.66728 8.53402 13.5612
185 2 1.20693 7.74903 8.87556
70 1 1.1366 10.3144 11.8518
154 2 2.27258 7.26091 10.3723
9 4 -4.2008 7.1396 9.20597
236 2 11.3304 4.08685 0.673133
21 4 6.48229 3.08593 5.27104
127 3 12.2657 0.86927 6.96824
36 4 9.12096 1.64814 4.94794
252 2 7.22468 6.0347 0.596638
40 4 11.9117 1.91867 5.79757
43 4 10.3399 2.62065 2.2319
54 1 11.2661 6.25348 5.086
62 1 7.40172 4.71036 4.86227
248 1 6.27247 6.63151 0.729706
74 1 10.6659 4.39521 1.48633
251 2 4.57535 5.95076 3.03695
122 3 7.59873 2.00296 5.72777
125 3 12.4549 1.57675 4.36353
126 3 10.371 2.16785 5.76364
37 4 10.4584 0.303062 0.311394
133 3 9.23143 2.15487 3.4417
134 3 10.9625 1.39349 1.41749
226 2 9.57016 0.489183 8.0217
235 2 9.189 3.89771 1.13386
162 2 12.5807 3.50316 6.29027
164 2 11.547 3.85151 2.91531
202 2 7.06947 5.68567 5.5451
2 4 13.7857 1.62766 3.46858
286 2 10.844 5.32127 5.68965
200 2 7.04498 4.78776 3.79047
201 2 8.53478 4.49898 4.87301
204 2 6.1312 3.03748 2.69938
161 2 9.11395 2.76155 7.66786
234 2 10.6409 5.51687 1.64087
238 2 7.86855 6.82297 6.71033
283 2 13.3858 0.834544 1.20399
246 4 4.77148 5.43773 0.815813
275 2 7.32422 1.08085 0.3195
262 1 13.6488 0.271669 2.14414
182 2 11.5354 5.97629 3.98357
101 3 5.33472 4.00489 0.189708
107 3 4.08702 5.99062 6.26428
237 2 6.16062 7.00284 5.90153
5 4 13.3044 1.97383 10.3487
71 1 9.80228 1.36337 8.76581
44 4 6.20171 6.74446 8.52617
39 4 8.81832 2.84593 9.42352
41 4 7.88724 2.43672 14.4898
42 4 10.9311 3.68276 11.4859
129 3 8.64519 1.41574 15.7368
29 4 3.94371 7.04164 10.5948
72 1 9.194 3.88274 14.4214
295 2 10.8277 5.64132 12.72
45 4 8.49585 6.76792 10.7372
138 3 7.42045 6.75697 9.46921
266 2 12.8324 1.83154 15.5035
124 3 7.36389 2.54429 9.86593
128 3 7.9411 1.73867 12.975
73 1 11.7068 5.20508 12.1631
130 3 6.49591 3.20869 14.8239
131 3 12.0231 2.64321 11.0147
132 3 9.83559 4.09791 10.1297
227 2 9.79865 0.928714 10.0211
76 1 5.76169 6.89203 14.0306
152 2 4.92451 5.15765 13.7866
242 2 4.78323 6.90332 13.4424
163 2 9.93016 3.02714 12.8069
165 2 8.56072 5.1063 10.9877
123 3 12.9597 0.755066 9.40248
229 2 8.81718 4.41397 13.5211
230 2 10.3166 3.76397 14.3735
231 2 8.90449 4.54686 15.2991
241 2 6.50339 5.98015 13.766
110 3 4.27317 5.72194 11.3802
240 2 5.59525 7.10287 15.2315
228 2 10.8229 1.67943 8.43312
281 2 10.5791 5.70998 8.41969
24 4 5.97383 2.3381 10.6063
285 2 13.9978 1.10613 12.6943
109 3 5.64527 3.46794 11.7447
135 3 5.71049 5.09661 8.28691
65 1 2.74591 8.3184 7.24314
38 4 5.21932 13.5112 8.07305
46 4 3.50856 10.3717 3.49758
68 1 1.58071 12.4885 6.75175
75 1 6.7953 7.29727 6.80999
139 3 3.21707 8.85935 3.14026
140 3 2.64321 11.0046 4.57955
158 2 1.524 13.6244 5.05149
149 2 6.90783 11.2924 4.5381
151 2 3.40897 7.75616 4.42294
160 2 6.8338 13.1759 7.57699
166 2 3.46935 11.4051 2.1593
167 2 5.21475 10.5037 3.85033
278 1 3.58066 12.0088 0.289717
217 2 1.37895 11.7375 7.70297
218 2 0.885611 13.4083 6.82016
219 2 2.70126 12.7986 6.5951
254 2 6.14282 7.52691 0.0749068
263 2 5.08106 13.2636 2.5632
291 2 8.67267 10.4929 0.838155
209 2 3.14357 9.16946 6.44305
239 2 6.89179 8.44385 6.98197
294 2 4.56719 11.867 0.849553
270 1 7.001 9.85201 3.35988
271 2 6.49729 8.97729 3.75715
272 2 8.42959 9.45631 2.66145
273 2 6.38408 10.2509 2.52097
282 2 7.07498 13.3023 2.08489
159 2 2.21025 12.231 1.11312
210 2 3.59012 7.95452 8.1465
195 2 8.17936 8.72379 0.93945
33 4 1.39724 11.0166 5.54823
13 4 8.44757 11.2404 3.50383
60 1 8.31081 9.62172 0.272039
141 3 4.43615 12.1617 8.11074
253 2 6.13471 6.97479 1.83328
183 2 10.6184 7.1973 5.18163
18 4 8.46595 9.81597 15.1704
225 2 1.14054 10.9279 12.7614
196 2 6.52921 10.5344 16.1176
47 4 3.66303 11.2637 9.15209
48 4 6.77101 8.15324 13.0352
49 4 5.28984 10.6904 11.856
168 2 3.50215 9.66482 8.46692
35 4 0.940841 11.7001 10.4596
77 1 5.54147 12.0785 13.1219
121 3 0.640355 13.055 11.3699
136 3 4.63155 7.47265 9.29667
245 2 6.05727 11.7546 14.0223
142 3 2.2586 11.76 9.64333
279 2 2.62325 11.8057 15.987
144 3 7.65739 9.03282 14.0709
145 3 4.6376 10.9924 10.4584
146 3 5.25285 9.23684 12.5008
243 2 4.31807 12.1396 13.33
153 2 4.15553 8.23768 11.7062
244 2 5.95119 13.0399 12.6316
169 2 6.89448 11.2679 11.9358
223 2 2.07404 9.72282 11.6329
22 4 -0.284034 13.9272 12.3182
293 2 3.32098 13.9319 15.7064
143 3 7.73984 7.35829 12.0381
268 2 6.89509 13.7227 11.3036
137 3 9.9491 7.38421 10.5369
150 2 8.77278 8.7154 16.4926
ITEM: TIMESTEP
200
ITEM: NUMBER OF ATOMS
295
ITEM: BOX BOUNDS xy xz yz pp pp pp
-8.4989799999999995e+00 1.5144700000000000e+01 -7.6974000000000000e+00
0.0000000000000000e+00 1.4189300000000001e+01 -8.0158000000000007e-01
0.0000000000000000e+00 1.6498000000000001e+01 5.8050000000000002e-01
ITEM: ATOMS id type x y z
6 4 0.749941 1.48206 5.94451
7 4 -0.157156 4.2053 1.86295
8 4 -0.60795 3.83608 7.84567
10 4 -2.2434 6.15139 5.76714
25 4 0.57876 6.09997 4.09192
105 3 5.28672 3.42506 6.23178
50 1 3.26723 0.883622 1.91695
51 1 2.38557 2.22962 5.47948
52 1 -1.44208 5.45485 1.31776
78 3 1.09905 0.811362 0.0718891
79 3 -0.0971379 1.16755 4.56036
180 2 1.7705 4.65176 8.14967
81 3 -1.09601 3.00268 2.78711
82 3 0.615398 3.60117 0.488487
84 3 0.0598795 2.71537 6.87979
85 3 -2.07868 4.72488 7.03246
96 3 3.11069 0.809342 8.02746
102 3 0.886785 4.79082 2.99518
103 3 -1.15269 6.00922 4.58587
104 3 3.35373 3.95227 7.9717
106 3 1.54941 6.09554 5.43603
172 2 3.25426 0.322062 2.94052
170 2 2.76215 1.89964 1.97362
171 2 4.38537 0.949201 1.51567
250 2 3.35375 5.21716 2.48044
173 2 2.48311 2.30413 4.37061
174 2 3.13369 1.54586 5.92952
175 2 2.25335 3.27414 6.02481
176 2 -1.064 6.33292 1.98883
277 2 5.97556 1.57993 1.68423
27 4 2.91187 6.86127 5.7498
274 1 6.16817 1.0731 0.609521
205 2 4.50511 2.41628 3.71066
26 4 4.53543 4.57102 7.06717
177 2 -2.56103 5.19857 1.50702
203 2 6.03466 1.34476 3.37029
276 2 5.52143 0.154589 0.369411
63 1 5.62001 2.41763 3.46538
178 2 -1.23163 5.54839 0.224362
247 1 4.4508 5.20566 2.60963
179 2 0.419548 5.99161 7.65074
249 2 4.81066 4.25067 3.02191
107 3 4.06642 5.74478 6.00153
257 3 3.61771 6.12938 0.0901786
3 4 -0.0194338 2.8165 15.7369
256 1 0.190665 6.83306 15.199
19 4 5.09398 3.09108 15.9101
20 4 3.35003 2.21344 8.82263
23 4 2.54252 2.7319 13.8209
28 4 4.40124 4.45315 12.1216
100 3 5.94231 0.833264 11.6212
61 1 1.93442 2.23069 10.0098
64 1 2.29839 0.933308 13.2731
83 3 -0.940297 3.16972 9.28386
86 3 -2.6361 6.8815 9.91815
97 3 3.85069 2.743 14.8704
98 3 0.981857 3.20543 14.5531
99 3 4.74437 2.06258 9.56241
108 3 2.9252 3.65089 12.452
264 1 -1.64952 2.59725 14.8605
190 2 -3.24742 6.96144 13.3931
148 2 0.0682827 6.5434 10.7428
269 2 0.222347 2.26344 11.6084
284 2 -1.60331 3.38791 14.0121
181 2 0.283604 5.32089 9.33587
233 2 -2.51379 4.82256 12.739
24 4 5.90852 2.23475 10.6424
197 2 1.77352 1.10049 10.1922
198 2 0.96005 2.66019 9.68526
199 2 2.26343 2.79548 11.0166
267 1 -0.523323 1.39553 11.6142
208 2 2.27102 1.05199 12.1105
206 2 1.34205 0.561608 13.8104
259 2 0.0306778 5.84386 15.73
260 2 0.670616 6.67561 14.1405
232 2 -3.09832 5.78478 11.1713
268 2 -0.0859553 0.429764 11.122
53 1 0.689004 5.10063 8.26449
285 2 -1.00518 1.2494 12.6629
261 2 -0.829814 7.2896 15.2092
1 4 -5.51779 13.3886 0.923932
4 4 -5.3181 13.0406 7.58826
12 4 -2.4707 9.32209 1.48965
15 4 -3.14891 8.92153 7.09296
16 4 -4.19388 11.1658 5.27895
30 4 1.52406 8.49994 2.43598
31 4 -1.34079 11.4012 3.83402
216 2 -2.57875 13.6144 7.66385
56 1 -3.44311 8.29509 2.73693
157 2 1.45887 9.60931 6.69547
222 2 -0.798975 11.9025 0.560719
66 1 -1.06134 13.0744 2.91959
67 1 -1.61698 13.0081 7.70768
87 3 -6.54552 12.376 2.00645
88 3 -3.2038 10.4004 0.633866
90 3 -2.17417 7.71692 6.54372
91 3 -5.61819 11.2957 4.3296
92 3 -4.03949 9.66454 5.85009
93 3 -4.49436 12.2287 6.50419
111 3 0.768363 7.48803 3.32207
112 3 1.62105 8.10368 0.814863
113 3 -1.15141 10.2381 2.67018
114 3 -2.86458 11.5635 4.37121
115 3 -2.40677 10.1612 7.91281
116 3 -0.113065 11.1853 4.83431
155 2 0.322133 9.72617 2.5574
292 2 -1.33063 12.4816 6.6343
187 2 -3.05956 8.52482 3.78438
189 2 -0.605339 7.80224 0.682794
211 2 1.69331 7.98398 7.53872
212 2 -0.683119 12.8213 1.86217
80 3 -6.80108 13.5066 7.14881
214 2 -2.25512 13.3414 2.95853
287 2 -3.4916 7.15479 2.56195
188 2 -4.46956 8.79377 2.5295
213 2 -0.383153 13.7042 3.60647
57 1 -1.57288 8.15565 0.220748
289 2 -2.39334 7.33308 0.226578
89 3 -4.21513 8.20876 8.00776
215 2 -0.79707 13.6672 8.09084
11 4 -1.35623 7.77529 10.4752
14 4 -4.57967 11.9677 15.7974
17 4 -2.7348 9.39787 12.9274
32 4 -1.63184 11.3631 8.60015
34 4 -1.79359 12.0663 14.5836
288 2 -2.25906 9.29874 15.699
55 1 0.523443 7.97922 9.77821
58 1 -3.63508 7.98704 13.8319
59 1 -3.91672 10.5585 12.02
69 1 -0.920039 11.9782 16.2861
280 3 -5.30065 13.2176 16.4395
224 2 0.128531 9.72028 11.8504
94 3 -1.67884 8.74899 11.6927
95 3 -5.54348 11.0075 14.94
117 3 -2.00412 10.2764 14.052
118 3 -0.867899 12.9458 13.6234
119 3 -3.32386 12.5909 14.8675
120 3 -0.406294 11.405 9.62629
154 2 2.32986 7.41639 10.4341
9 4 -4.27267 7.17381 9.21559
156 2 -2.89221 12.553 9.10122
184 2 -0.679462 8.79707 8.96698
186 2 1.01716 8.73076 10.4792
191 2 -3.29342 8.13083 14.9995
192 2 -4.82959 10.1504 12.6078
193 2 -3.92276 10.3073 10.9343
194 2 -3.5851 11.6317 12.3044
147 2 -5.58184 12.0752 8.90057
255 4 1.46715 7.57252 16.3436
221 2 -0.806472 10.8305 16.4707
258 2 1.5624 8.14527 14.7108
207 2 -4.39445 14.0688 13.5891
290 2 -4.6961 8.21742 13.681
185 2 1.23284 7.73097 8.89355
70 1 1.02522 10.3284 11.8804
236 2 11.3966 4.5687 0.65436
21 4 6.49403 3.30267 5.16384
127 3 12.3231 0.870026 6.85894
36 4 9.1468 1.69049 4.8567
252 2 7.41068 6.05396 0.317249
40 4 11.8212 2.02731 5.78519
43 4 10.4931 2.60361 2.25242
54 1 11.2396 5.84792 4.96974
62 1 7.29253 4.99634 4.9436
248 1 6.49702 6.54819 0.823728
74 1 10.7034 4.48595 1.59265
251 2 4.83379 6.11588 3.1398
122 3 7.63445 2.16423 5.42246
125 3 12.2995 1.59135 4.29828
126 3 10.239 2.32601 5.96935
37 4 10.5817 0.332536 0.192586
133 3 9.43745 2.38192 3.44599
134 3 11.1569 1.31786 1.21943
226 2 9.37078 0.566316 7.92739
235 2 9.54028 4.00924 1.2092
162 2 12.5105 3.56772 6.31139
164 2 11.8738 3.69631 2.79144
202 2 6.97319 5.87944 5.58789
2 4 13.8414 1.57153 3.54741
286 2 10.7872 4.91209 5.41199
200 2 7.02851 5.14775 3.86023
201 2 8.42585 4.6869 5.05973
204 2 5.87935 3.10652 2.55485
161 2 8.92774 2.83446 7.7217
234 2 10.561 5.50345 2.02571
135 3 5.84401 5.11036 8.04008
283 2 13.4321 0.638716 1.22481
246 4 4.94566 5.41051 0.738977
275 2 7.29167 0.906026 0.42582
262 1 13.7208 0.179238 2.22361
182 2 11.4931 5.75817 3.84759
101 3 5.51731 3.93213 0.202447
253 2 6.56103 6.46119 2.02753
183 2 10.6762 6.77375 5.24087
5 4 13.3977 1.9435 10.2736
71 1 9.81966 1.38341 8.71083
44 4 6.24687 6.66601 8.48683
39 4 8.8553 2.8584 9.41943
41 4 8.09084 2.45404 14.6279
42 4 10.8961 3.62622 11.6126
129 3 8.57577 1.42502 15.7783
29 4 4.00049 7.15064 10.6244
72 1 9.12089 4.02068 14.3876
295 2 10.7768 5.50816 12.8643
45 4 8.35733 6.81846 10.6657
138 3 7.56911 6.88468 9.35118
266 2 13.2913 1.56715 14.4479
124 3 7.37092 2.49003 9.89057
128 3 8.16156 1.67824 13.1488
73 1 11.7559 5.12526 12.1218
130 3 6.42291 3.13643 15.1076
131 3 12.1571 2.67702 11.1403
132 3 9.57164 3.98697 10.1878
227 2 9.92948 0.880667 9.85583
76 1 6.0811 6.66136 14.1375
152 2 5.1261 4.98006 13.561
242 2 4.99395 6.76269 13.6812
163 2 10.1268 2.98487 12.9779
165 2 8.77405 5.14854 10.9833
123 3 12.8328 0.734496 9.40405
229 2 8.97514 4.45327 13.3408
230 2 10.2437 3.88743 14.6847
231 2 8.589 4.62991 15.2241
241 2 6.75976 5.81512 13.7843
110 3 4.1428 5.76129 11.3085
240 2 5.97642 6.81214 15.3739
228 2 10.782 1.88011 8.43393
281 2 10.3775 5.70748 8.60709
109 3 5.44814 3.50124 11.4494
265 2 12.7527 2.91385 15.7496
65 1 2.80512 8.1551 7.216
38 4 5.13463 13.5234 8.01625
46 4 3.44178 10.3387 3.38687
68 1 1.39991 12.6348 6.54694
75 1 6.59642 7.53255 6.79075
139 3 3.26071 8.8156 3.0714
140 3 2.6542 10.8473 4.70615
158 2 1.43532 13.543 4.8494
149 2 6.71061 11.513 4.09385
151 2 3.29366 7.77433 4.37372
160 2 6.76376 13.1991 7.61877
166 2 3.25798 11.4228 2.10817
167 2 5.09999 10.7368 3.64651
278 1 3.72725 12.0267 0.223362
217 2 1.49368 12.0736 7.66821
218 2 0.552424 13.3501 6.48381
219 2 2.45552 13.1064 6.29105
238 2 7.72907 7.62682 6.7832
263 2 5.20072 13.1434 2.72289
291 2 8.69841 10.2469 0.849724
209 2 3.16769 9.08435 6.6997
239 2 5.99544 8.51495 7.08685
294 2 4.44022 12.0609 1.0782
270 1 6.83562 10.0143 3.14488
271 2 6.39542 9.16022 3.77541
272 2 8.21721 9.53948 2.74099
273 2 6.22519 10.1388 2.22446
282 2 7.01714 13.2125 2.09103
159 2 2.17639 12.3708 1.0245
210 2 3.52131 7.83018 8.05701
195 2 8.36766 8.29063 0.974333
33 4 1.40401 10.977 5.65915
13 4 8.41367 11.4046 3.26131
60 1 8.35936 9.23209 0.294479
141 3 4.47743 12.0912 8.17952
150 2 10.0453 8.2092 0.13109
254 2 6.27778 7.58395 0.424205
237 2 6.14139 7.1199 5.84867
18 4 8.62969 9.69532 15.2679
225 2 1.03412 11.0305 12.831
196 2 6.52431 9.88379 16.2393
47 4 3.66967 11.1848 9.20175
48 4 6.78973 8.13795 13.158
49 4 5.2825 10.721 11.892
168 2 3.3991 9.73401 8.33254
35 4 0.867546 11.7714 10.6186
77 1 5.7803 12.2704 12.8637
121 3 0.671133 13.3351 11.4837
136 3 4.74691 7.43005 9.36387
245 2 6.37564 12.0321 13.8494
142 3 2.24221 11.6824 9.76363
279 2 2.8618 11.636 16.217
144 3 7.75721 8.86003 14.2258
145 3 4.5593 10.8828 10.4992
146 3 5.29481 9.34572 12.7297
243 2 4.48771 12.3966 13.0999
153 2 4.49602 8.2412 11.8145
244 2 6.2071 13.2509 12.355
169 2 6.96025 11.3102 11.6973
223 2 2.04344 9.8208 11.627
22 4 -0.351647 13.9277 12.5619
293 2 3.41193 13.7066 15.4933
143 3 7.50553 7.52973 11.9138
137 3 9.78409 7.5895 10.3953
220 2 0.0414272 12.5716 16.0162
ITEM: TIMESTEP
300
ITEM: NUMBER OF ATOMS
295
ITEM: BOX BOUNDS xy xz yz pp pp pp
-8.4989799999999995e+00 1.5144700000000000e+01 -7.6974000000000000e+00
0.0000000000000000e+00 1.4189300000000001e+01 -8.0158000000000007e-01
0.0000000000000000e+00 1.6498000000000001e+01 5.8050000000000002e-01
ITEM: ATOMS id type x y z
6 4 0.708375 1.5438 5.9197
7 4 -0.0521181 3.98982 1.86281
8 4 -0.722291 3.94562 7.8354
10 4 -2.12881 6.22062 5.75804
25 4 0.436703 6.14534 4.16382
105 3 5.15502 3.30736 6.02967
50 1 3.02776 0.780906 2.11995
51 1 2.32573 2.20093 5.30196
52 1 -1.46438 5.14079 1.35996
247 1 4.40149 5.24916 2.70689
79 3 0.0469411 1.03334 4.58052
275 2 6.9077 0.707053 0.318804
81 3 -0.768929 2.71111 2.63302
82 3 0.503692 3.48703 0.461295
84 3 0.0422554 2.7901 6.8143
85 3 -1.90362 4.66998 7.12259
96 3 3.00601 0.882427 7.79342
102 3 0.825288 4.88083 2.9096
103 3 -1.11498 5.92474 4.5526
104 3 3.32462 3.81281 7.81779
106 3 1.47849 6.07372 5.60596
107 3 4.01911 5.8154 6.14904
170 2 2.43197 1.67773 2.40077
171 2 4.05333 0.963857 1.60913
250 2 3.37141 5.45325 2.93603
173 2 2.14317 2.14871 4.17201
174 2 3.25373 1.59606 5.70969
175 2 2.30131 3.31509 5.68836
176 2 -1.23282 6.0122 1.97497
277 2 5.7809 1.5474 1.71198
27 4 2.84007 6.80297 5.75101
274 1 5.83831 1.0931 0.593394
205 2 4.39102 2.33255 3.73372
26 4 4.5551 4.50376 7.06961
177 2 -2.54428 4.79996 1.3361
203 2 5.99857 1.30588 3.43287
276 2 4.96274 0.367909 0.301179
63 1 5.5325 2.41266 3.51209
178 2 -1.10501 5.30429 0.230748
172 2 3.21041 0.172196 3.00167
179 2 0.411809 6.05672 7.87646
249 2 4.7155 4.17763 3.03494
180 2 1.68101 4.64909 8.0591
204 2 5.70982 3.01801 2.53902
3 4 -0.0548249 2.94388 15.7811
256 1 0.332623 6.93611 15.1343
19 4 5.01384 3.11883 15.8521
20 4 3.38657 2.1166 8.68956
23 4 2.56426 2.74126 13.8959
28 4 4.29696 4.61725 12.1511
100 3 6.0636 0.866242 11.7431
61 1 2.04815 2.26029 10.0448
64 1 2.34496 0.979247 13.2674
83 3 -1.25704 3.21779 9.15066
86 3 -2.64169 6.95664 9.84988
97 3 3.84978 2.7372 14.867
98 3 1.16638 3.1827 14.6309
99 3 4.62179 1.89154 9.67661
108 3 2.96769 3.77628 12.4144
264 1 -1.70435 2.55573 14.9988
190 2 -3.48909 7.10959 13.4348
148 2 0.176543 6.90123 10.7885
269 2 0.17784 2.54693 11.5405
284 2 -1.62897 3.1869 14.0676
181 2 0.564813 4.89317 9.54078
233 2 -2.56091 4.84479 13.0187
24 4 5.80064 2.30214 10.6618
197 2 1.7706 1.2295 10.3838
198 2 1.21815 2.78332 9.46394
199 2 2.46613 2.90959 10.9162
267 1 -0.567468 1.68447 11.6325
208 2 1.99883 1.01466 12.2004
206 2 1.56865 0.503355 13.8932
259 2 0.196233 5.87764 15.865
260 2 0.925855 6.69025 14.194
232 2 -2.91932 5.85059 11.4427