ITEM: TIMESTEP
0
ITEM: NUMBER OF ATOMS
295
ITEM: BOX BOUNDS xy xz yz pp pp pp
-8.3339999999999996e+00 1.5144700000000000e+01 -7.6974000000000000e+00
0.0000000000000000e+00 1.4024320000000001e+01 -6.3660000000000005e-01
0.0000000000000000e+00 1.6498000000000001e+01 4.1552000000000000e-01
ITEM: ATOMS id type x y z
6 4 0.718812 1.51189 6.12331
7 4 -0.227476 3.61147 1.78734
8 4 -0.657526 3.84601 7.83357
10 4 -1.9787 6.37856 5.47624
25 4 0.730544 5.99698 3.81084
27 4 3.08832 6.27268 5.73281
50 1 2.58796 0.909614 2.16848
51 1 2.33723 2.21475 5.53671
52 1 -1.77402 4.6173 1.19039
204 2 5.30552 3.23284 2.63506
79 3 -0.0441258 0.984816 4.78767
276 2 5.16122 0.626624 0.515609
275 2 7.03371 0.78823 0.679726
82 3 0.603496 2.93562 0.564588
84 3 0.0360308 2.68104 6.92438
85 3 -1.99109 4.95737 6.77554
53 1 0.641528 5.06835 8.22352
102 3 0.706109 4.74483 2.70859
103 3 -0.824276 6.35823 4.24397
104 3 4.15902 3.32385 8.19683
106 3 1.6644 5.59261 5.22654
107 3 4.052 5.52341 6.68358
170 2 3.05442 0.376168 3.03538
203 2 5.13247 1.53076 3.5494
81 3 -0.888898 2.49444 2.76713
173 2 2.45968 1.67512 4.50454
174 2 3.20322 1.99027 6.22074
175 2 2.12746 3.36273 5.41006
176 2 -2.05366 5.1759 2.07328
274 1 6.04099 1.32739 0.847982
178 2 -1.21843 5.30387 0.365437
277 2 5.79185 1.81369 1.87919
205 2 4.15834 3.0322 4.12046
171 2 1.77275 1.61156 2.45882
249 2 4.63646 4.62409 3.03696
180 2 1.66779 4.55792 7.85059
250 2 3.30884 6.03989 2.6224
179 2 0.31742 5.99032 7.66285
63 1 5.12181 2.67053 3.63956
281 2 -3.04823 5.72386 7.80742
172 2 3.37246 1.45273 1.4615
78 3 0.809079 0.301561 0.0944487
182 2 -3.50309 6.23777 3.46041
54 1 -3.61276 6.28007 4.58746
3 4 0.0343818 2.35364 15.8606
267 1 -0.478169 1.83033 11.5586
96 3 2.9357 0.759647 8.28022
20 4 3.52525 2.06919 8.9224
23 4 2.51904 2.52939 13.9858
28 4 4.35283 4.3163 12.3563
285 2 -0.825214 2.38338 12.4556
61 1 2.02805 3.01022 9.80344
64 1 2.60083 0.837621 12.98
83 3 -1.20994 3.13142 9.13673
100 3 6.15981 0.379892 11.8991
97 3 3.82396 2.3956 15.0916
98 3 1.13545 2.73182 14.753
99 3 4.50992 1.51769 10.1451
108 3 2.93881 3.51196 12.7894
9 4 -3.54557 6.89057 8.97334
19 4 5.1275 3.02914 15.9752
148 2 0.372307 6.69607 10.8399
206 2 1.53526 0.55455 13.0365
269 2 0.48425 2.29631 11.0002
181 2 0.516139 5.21245 9.37239
266 2 -2.20005 3.68513 15.2697
24 4 5.76567 1.86208 11.1097
197 2 2.16111 2.88776 10.914
198 2 1.08895 2.59621 9.39309
199 2 2.26846 4.13268 9.47875
259 2 0.115388 6.49639 15.1251
208 2 2.99287 0.887815 11.8756
110 3 4.09585 5.57894 11.4343
268 2 -0.43117 0.697394 11.7428
154 2 2.11155 7.02863 10.4595
86 3 -2.28478 6.89314 10.0337
109 3 5.38621 3.26214 11.9225
264 1 -1.78002 2.62015 15.2218
257 3 2.7627 6.6494 16.4133
295 2 -3.10972 5.28016 11.593
265 2 -1.54446 2.27741 14.1527
1 4 -5.69583 13.1285 1.06892
4 4 -5.44381 13.0675 7.74719
12 4 -2.74424 9.17602 1.44547
15 4 -2.71236 8.95052 7.07251
16 4 -4.06901 11.1989 5.42777
30 4 1.50889 8.55553 2.11162
31 4 -1.33244 11.1749 3.79656
80 3 -6.83211 13.4229 7.18724
56 1 -4.24095 8.65044 2.46482
189 2 -0.790937 7.78365 0.588348
57 1 -1.97703 7.76997 0.468568
66 1 -1.08458 12.6965 2.63716
280 3 -4.47763 12.6179 0.219308
111 3 1.59019 7.32616 3.16328
88 3 -3.2158 10.3538 0.368242
90 3 -1.90367 7.75634 6.32253
91 3 -5.32625 11.1232 4.53388
92 3 -3.61379 9.80815 5.98845
93 3 -4.46699 12.3518 6.66465
188 2 -5.09028 9.39626 2.32252
112 3 1.2546 7.82937 0.702002
113 3 -1.46911 9.93453 2.74338
114 3 -2.66493 11.6812 4.52622
115 3 -1.6311 10.1811 7.91761
116 3 0.0194294 11.0501 4.62462
155 2 0.0272658 9.39391 2.32462
292 2 -1.86443 12.7178 6.97912
65 1 2.52625 8.01804 7.2834
157 2 1.63441 9.50454 6.43427
211 2 1.60479 7.34268 7.40789
214 2 0.0755875 12.8145 2.59656
213 2 -1.50905 12.5375 1.58798
289 2 -2.46181 6.95948 1.13685
87 3 -6.38266 11.7091 2.10819
187 2 -4.04339 8.46048 3.563
221 2 0.554758 10.2809 0.118075
222 2 -0.258229 11.8681 0.990741
67 1 -1.67802 12.8882 8.1521
212 2 -1.63683 13.5061 3.30459
89 3 -3.79481 8.30084 8.2231
183 2 -4.09167 7.26195 4.96111
287 2 -4.38343 7.6833 1.87655
69 1 0.28343 11.3858 0.0154085
11 4 -1.19831 7.69359 10.7683
224 2 0.384719 9.96482 12.1893
17 4 -2.31408 9.42257 13.1746
32 4 -1.59523 11.2712 9.04121
34 4 -1.36261 11.8232 14.9285
288 2 -3.05388 8.23388 15.86
55 1 0.625579 8.2172 9.82304
58 1 -3.75849 8.42744 14.0076
59 1 -3.35087 10.8434 12.2054
216 2 -2.60292 13.3357 8.72491
255 4 1.36275 7.36241 16.0943
185 2 1.30662 8.0993 8.9188
94 3 -1.5537 8.55816 12.0621
95 3 -5.4531 11.1561 14.9042
117 3 -1.44692 10.0001 14.4266
118 3 -0.450775 12.4863 13.7456
119 3 -3.00354 12.4224 15.1488
120 3 -0.117886 11.3404 9.90952
147 2 -5.68673 11.935 9.05557
290 2 -4.5473 8.39843 13.2041
156 2 -2.78618 10.9169 10.3167
184 2 -0.395444 8.82458 9.43668
186 2 1.03053 8.97101 10.6366
191 2 -4.02418 9.0417 14.8909
192 2 -4.08277 11.2019 12.9923
193 2 -3.91635 10.2369 11.401
194 2 -2.67607 11.7057 11.8428
258 2 1.97781 8.7191 14.3879
260 2 0.801078 7.46081 13.4693
190 2 -3.39238 7.39171 14.2423
256 1 0.901537 8.10033 14.4062
261 2 -0.0604532 8.94255 14.4397
14 4 -4.33991 11.9027 15.8714
215 2 -0.747512 13.4266 8.344
207 2 -4.39484 13.7365 13.6275
2 4 13.6961 1.40836 3.79732
21 4 6.61826 3.43168 4.74251
251 2 5.16749 6.41573 2.83146
36 4 9.2277 1.71847 4.76826
248 1 6.27488 6.75155 0.271896
40 4 11.7771 2.00986 6.10029
43 4 10.5288 2.93623 2.07312
235 2 8.71598 3.60208 0.453137
62 1 7.27441 5.02381 3.78168
228 2 8.51635 0.98721 7.96201
74 1 9.25334 4.0986 1.32717
105 3 5.825 3.83439 6.06042
122 3 7.82672 2.40254 4.87046
125 3 12.4483 1.71918 4.68508
126 3 10.1103 2.16712 6.06075
127 3 12.1534 0.928819 7.22961
133 3 9.94059 2.19477 3.35872
134 3 11.2287 1.81677 1.00009
234 2 8.47873 4.4104 2.19707
286 2 10.9888 5.32195 5.04807
162 2 12.3683 3.63314 6.37794
164 2 11.8562 3.98408 2.34179
200 2 8.4401 4.99089 3.96502
246 4 4.84368 5.57113 0.581405
37 4 10.5735 0.483948 0.218291
236 2 9.99538 4.97871 1.05567
201 2 6.79562 5.80255 4.41766
202 2 6.85411 4.8187 2.78139
151 2 4.0925 6.56063 4.3383
161 2 7.54368 3.82963 8.07776
283 2 13.4975 0.172973 1.83692
26 4 5.03223 4.39359 7.38098
177 2 12.5674 3.98742 0.772731
247 1 4.43887 5.68844 2.56727
101 3 5.42436 4.1309 0.178585
152 2 5.09377 5.03011 13.7571
241 2 6.8954 5.76299 13.4027
227 2 10.154 1.74827 8.58998
39 4 8.22837 2.80779 9.28047
41 4 8.03617 2.18926 14.7937
42 4 10.6539 3.4334 11.5719
45 4 8.8147 6.5765 10.4682
29 4 3.73444 6.81084 10.6031
72 1 9.40096 3.65721 14.8528
73 1 11.2805 4.90801 12.3869
284 2 12.7458 1.83945 15.7106
242 2 5.34116 6.82717 12.9114
252 2 6.56654 6.66382 16.3202
124 3 7.02927 2.26879 10.219
128 3 8.13372 1.42642 13.3032
129 3 8.52686 1.15253 16.0864
130 3 6.5776 2.91011 15.2772
131 3 11.9715 2.72476 11.0077
132 3 9.2538 3.66637 10.2829
71 1 9.15848 1.26206 8.85257
44 4 6.37539 6.73502 8.6924
135 3 6.44388 5.07179 8.32844
137 3 10.2488 6.48251 9.67784
163 2 10.111 2.93299 13.1166
165 2 8.31446 4.96912 10.7577
233 2 10.3178 5.55527 12.3907
229 2 9.00218 4.28995 14.0328
230 2 10.4213 3.21896 14.7716
231 2 9.21487 4.03862 15.9512
232 2 11.7098 4.83403 13.389
5 4 13.2562 2.06606 10.3375
76 1 6.27881 6.67671 13.5745
240 2 6.01071 6.87089 14.7778
226 2 9.01881 0.559689 9.82987
136 3 4.57539 7.03973 9.36208
13 4 8.50094 11.24 3.65055
263 2 4.24261 13.41 2.97755
46 4 3.60417 10.4611 3.11641
68 1 1.67146 12.3847 6.45384
75 1 6.376 7.73051 7.034
139 3 2.72928 9.69254 2.02981
140 3 2.80084 10.8617 4.42288
238 2 7.38046 8.16089 7.04813
149 2 7.23588 12.2585 4.43029
210 2 3.42177 7.75671 7.85362
160 2 6.70902 13.3471 7.53873
166 2 4.47044 11.7511 2.38688
167 2 5.00005 9.52394 3.46109
209 2 2.88768 8.15869 5.9881
217 2 2.70917 12.755 6.025
218 2 1.84443 11.8831 7.52242
159 2 2.81056 12.5814 1.2047
141 3 4.40231 12.0574 7.94373
294 2 4.74569 12.3772 0.288292
38 4 5.13351 13.4395 8.19185
158 2 1.36766 13.636 4.91499
262 1 5.37215 13.4326 2.91517
219 2 0.808739 13.1244 6.45861
270 1 6.5926 10.593 3.9488
271 2 5.87633 10.3549 4.79202
272 2 7.66474 9.47544 3.81236
273 2 6.14732 10.8041 2.89575
282 2 5.85468 12.3946 3.35883
33 4 1.50926 10.8843 5.34532
239 2 5.57773 8.54245 7.16374
291 2 8.06486 10.953 0.733387
150 2 8.95602 9.16119 0.158438
168 2 3.39288 9.55216 8.04409
253 2 6.43027 6.98884 1.431
237 2 6.10644 6.96806 6.25054
18 4 8.34789 10.3021 15.0366
293 2 3.72312 13.8277 15.1526
245 2 6.14263 11.6595 12.5712
47 4 3.87533 10.9425 9.05207
48 4 7.43299 7.95984 12.7811
49 4 6.24674 10.1479 10.918
244 2 7.85284 12.1961 11.6879
225 2 1.78817 10.9675 13.0866
77 1 6.76671 11.926 11.5262
121 3 1.13969 13.1223 11.4296
60 1 6.99127 10.9077 16.2075
35 4 1.3077 11.6122 10.7401
142 3 2.60537 11.4114 9.82173
143 3 8.87704 7.31431 11.9949
144 3 8.0035 9.08714 14.0453
145 3 5.0435 10.4724 9.99369
146 3 6.39803 8.94245 11.8683
278 1 3.31107 13.0337 16.1057
153 2 3.94244 8.1417 11.584
279 2 2.85065 12.1045 15.6552
169 2 7.73438 10.8534 10.2453
223 2 2.23307 9.44628 11.8964
196 2 6.72101 11.7372 15.2097
243 2 6.23109 12.7832 10.8913
220 2 0.562243 12.4934 16.1349
70 1 1.50794 10.2919 12.1618
254 2 5.37413 8.1071 16.1694
195 2 6.09315 10.2217 16.4026
22 4 -0.165029 13.6488 12.7276
138 3 7.6846 7.12874 9.52021
123 3 5.33738 13.845 9.74278
ITEM: TIMESTEP
100
ITEM: NUMBER OF ATOMS
295
ITEM: BOX BOUNDS xy xz yz pp pp pp
-8.3339999999999996e+00 1.5144700000000000e+01 -7.6974000000000000e+00
0.0000000000000000e+00 1.4024320000000001e+01 -6.3660000000000005e-01
0.0000000000000000e+00 1.6498000000000001e+01 4.1552000000000000e-01
ITEM: ATOMS id type x y z
6 4 0.667877 1.51536 6.06185
7 4 -0.218969 3.75235 2.03275
8 4 -0.741262 3.87613 7.8494
10 4 -1.81616 6.42016 5.63058
25 4 0.73666 6.1034 3.84669
27 4 3.14592 6.31386 5.71023
50 1 2.64471 0.835599 2.29358
51 1 2.18495 2.40482 5.34103
52 1 -1.82544 4.61469 1.436
204 2 4.93563 3.19439 2.77867
79 3 -0.201277 0.89517 4.79587
276 2 5.18608 0.71716 0.595934
54 1 -3.32633 6.47527 4.51289
82 3 0.449275 3.20859 0.583598
84 3 0.109171 2.77985 6.86748
85 3 -2.08385 4.9834 6.81888
182 2 -3.00322 6.65921 3.41693
102 3 0.726825 4.98214 2.76614
103 3 -0.664211 6.45095 4.4841
104 3 4.30767 3.06856 7.91405
106 3 1.76643 5.68689 5.34793
107 3 3.9855 5.57801 6.76438
170 2 3.24582 0.208545 3.04757
203 2 5.57714 1.61239 3.69242
81 3 -0.81705 2.49638 2.92072
173 2 2.11934 1.88064 4.26526
174 2 3.14182 2.18066 5.90861
175 2 1.99224 3.50667 5.28397
176 2 -2.42346 5.23059 2.27509
274 1 6.07117 1.41603 0.921384
178 2 -1.29878 5.35399 0.658083
277 2 5.86723 1.87938 1.96445
205 2 4.09941 2.56485 4.39659
171 2 1.59987 1.20033 2.68971
249 2 4.41428 4.55472 2.99491
180 2 1.36806 4.9528 7.77256
250 2 3.18762 6.00959 2.33099
247 1 4.30002 5.59432 2.47649
63 1 5.09364 2.6732 3.77639
281 2 -3.21077 5.4864 7.90043
172 2 3.28084 1.65647 1.75139
78 3 0.800294 0.360487 0.0627925
96 3 3.04195 0.692613 8.12523
3 4 -0.116012 2.44314 15.9046
267 1 -0.421579 1.86792 11.5316
265 2 -1.4282 2.49446 13.9263
20 4 3.64428 1.99269 8.88587
23 4 2.70706 2.57656 14.0828
28 4 4.38314 4.36177 12.289
285 2 -0.643391 2.40635 12.4956
61 1 2.16304 2.90384 9.81148
64 1 2.82943 0.912787 13.1507
83 3 -1.31062 3.08779 9.11904
53 1 0.40192 5.15918 8.48307
97 3 3.96712 2.60453 15.0629
98 3 1.01188 2.54917 14.6674
99 3 4.41656 1.45999 10.3006
108 3 2.94795 3.79475 12.909
9 4 -3.57593 6.74433 8.96818
19 4 5.30047 3.09904 16.0341
148 2 0.446364 6.77029 10.7236
206 2 1.72806 0.625154 13.4141
269 2 0.561073 2.23078 11.0192
181 2 0.576356 4.79376 9.55559
179 2 0.0232615 6.21403 8.31456
24 4 5.75738 1.83504 11.0858
197 2 2.25792 2.72164 10.923
198 2 1.2655 2.4454 9.28891
199 2 2.42004 3.91321 9.53069
259 2 0.394144 6.31201 14.9077
208 2 2.95313 1.23108 12.0814
110 3 3.92173 5.31587 11.1356
268 2 -0.478837 0.707332 11.6642
295 2 -2.68525 5.00076 11.7693
86 3 -2.3786 6.74861 9.91849
109 3 5.40685 3.15104 12.0531
257 3 2.79284 6.72496 16.3336
190 2 -3.29196 7.13715 14.2063
1 4 -5.65083 13.249 0.991702
4 4 -5.45065 12.9988 7.59753
12 4 -2.77939 9.17148 1.46209
15 4 -2.81757 8.99196 7.20647
16 4 -4.07546 11.1571 5.52134
30 4 1.34871 8.49368 2.10229
31 4 -1.32924 11.2434 3.89253
80 3 -6.89612 13.4031 7.02925
56 1 -4.29227 8.83849 2.5226
189 2 -0.916605 7.73288 0.613296
57 1 -2.03935 7.80331 0.421191
66 1 -1.16986 12.5984 2.55939
280 3 -4.38177 12.7538 0.13102
111 3 1.6133 7.48427 3.34116
88 3 -3.29611 10.3949 0.34343
90 3 -1.77816 7.80369 6.3289
91 3 -5.35419 11.1718 4.39094
92 3 -3.91804 9.68273 6.18632
93 3 -4.42776 12.2405 6.64208
188 2 -5.21139 9.25644 2.00068
112 3 1.19648 7.63447 0.668557
113 3 -1.55179 9.97195 2.82704
114 3 -2.58068 11.6198 4.76321
115 3 -1.84432 10.0728 7.97235
116 3 0.118035 11.0912 4.73483
155 2 -0.136113 9.3435 2.4451
292 2 -1.3559 12.7123 7.35032
65 1 2.54545 8.02291 7.17483
157 2 1.69257 9.70173 6.66877
211 2 1.70048 7.31395 7.32504
214 2 -0.0516899 12.607 2.4198
213 2 -1.87926 12.498 1.69152
69 1 0.191898 11.1622 0.00671685
87 3 -6.4724 11.8707 1.9701
187 2 -4.21589 9.16848 3.62945
289 2 -2.62658 6.96813 0.954659
222 2 -0.415766 11.6068 0.973684
183 2 -3.88514 7.37414 4.98197
212 2 -1.53318 13.4565 3.29001
89 3 -3.67576 8.12378 8.20183
287 2 -4.18918 7.64796 2.37627
11 4 -1.20813 7.63816 10.6504
224 2 0.400297 9.63419 12.0532
17 4 -2.45426 9.28424 13.1362
32 4 -1.61414 11.0946 9.15092
34 4 -1.3072 11.7314 14.888
288 2 -3.00213 8.2557 15.7707
55 1 0.57772 8.26455 9.73592
58 1 -3.81279 8.10295 13.8878
59 1 -3.25427 10.9327 12.3508
216 2 -2.82578 12.9555 8.60186
255 4 1.3388 7.299 15.9849
185 2 1.27988 8.17761 8.78786
94 3 -1.58055 8.42004 12.0021
95 3 -5.5224 11.2107 14.714
117 3 -1.50021 9.85624 14.3067
118 3 -0.313509 12.4614 13.872
119 3 -2.90645 12.33 15.1437
120 3 -0.100192 11.2764 9.89031
147 2 -5.76965 12.0067 8.90775
290 2 -4.57886 8.03137 13.038
156 2 -2.75557 10.8078 10.4617
184 2 -0.504431 8.73865 9.30858
186 2 0.960735 8.96438 10.5906
191 2 -4.18057 8.74562 14.7786
192 2 -3.90057 11.2647 13.2451
193 2 -3.89465 10.5122 11.511
194 2 -2.51686 11.6966 12.0592
258 2 1.95045 8.75488 14.2667
260 2 0.931634 7.33679 13.4763
207 2 -4.09088 13.8025 13.5924
256 1 0.94355 8.09165 14.3237
261 2 -0.0575033 8.75047 14.3422
14 4 -4.3458 11.9486 15.8359
215 2 -1.00569 13.5212 9.10826
244 2 -7.07983 12.1304 11.2585
100 3 -1.54594 13.8676 11.8806
67 1 -1.66822 12.8196 8.45806
154 2 2.2484 7.20906 10.004
70 1 1.40763 10.2515 12.0675
221 2 -0.276486 10.3842 16.4307
2 4 13.7372 1.30332 3.82447
21 4 6.63582 3.34876 4.83731
251 2 5.17955 6.51816 2.67559
36 4 9.19129 1.73844 4.70984
101 3 5.36858 4.28676 0.332885
40 4 11.7425 2.05727 6.07537
43 4 10.6679 2.92507 2.14183
235 2 8.73937 3.46738 0.521887
62 1 7.54877 4.87558 3.92981
228 2 8.86792 0.905558 8.05724
74 1 9.28202 4.00011 1.35568
105 3 5.86284 3.96867 6.04175
122 3 7.63935 2.05729 5.06924
125 3 12.4508 1.7129 4.6908
126 3 10.1293 2.31948 5.95894
127 3 12.2338 1.09143 7.2081
133 3 9.79847 2.32764 3.38583
134 3 11.0818 1.82976 0.897549
234 2 8.57091 4.29954 2.26574
286 2 11.2727 5.45298 4.65153
162 2 12.2069 3.62397 6.59057
164 2 12.09 3.7437 2.69174
200 2 8.61913 4.58772 3.84331
246 4 4.79903 5.75014 0.595409
37 4 10.4676 0.508814 0.25765
236 2 10.0317 4.81942 0.977766
201 2 7.25548 5.66507 4.74171
202 2 7.02889 5.13182 2.88035
151 2 4.01064 6.52527 4.18961
252 2 7.15554 6.33139 0.314741
275 2 7.09639 0.963024 0.843172
26 4 5.09988 4.39567 7.31999
177 2 12.6659 3.82104 0.867153
152 2 5.09044 5.26451 13.5675
241 2 6.849 5.83241 13.422
227 2 10.4267 1.60119 8.99291
39 4 8.33462 2.81128 9.32537
41 4 7.92291 2.16431 14.7738
42 4 10.7376 3.47466 11.6181
45 4 8.71794 6.50929 10.3857
29 4 3.83794 6.77247 10.5261
72 1 9.37501 3.45229 14.8797
73 1 11.2909 5.12053 12.2182
284 2 12.9582 1.26485 15.1803
242 2 5.42133 7.01607 12.9573
266 2 12.7295 3.11247 15.4533
124 3 7.02511 2.16059 10.1522
128 3 8.07914 1.44792 13.2891
129 3 8.41417 0.953476 16.0714
130 3 6.64222 3.11405 15.0853
131 3 11.9351 2.54513 11.1589
132 3 9.38811 3.56035 10.2686
71 1 9.32302 1.24468 9.05915
44 4 6.3088 6.84174 8.68264
135 3 6.26557 4.90123 8.30924
137 3 10.1058 6.53297 9.66448
163 2 10.1289 2.91021 13.1141
165 2 8.41923 4.88028 10.7121
233 2 10.7819 6.06331 11.9436
229 2 9.25252 4.21166 14.0852
230 2 10.3809 2.88229 14.8498
231 2 9.14977 3.93219 16.009
232 2 11.2548 4.89111 13.4162
5 4 13.3073 1.98075 10.2708
76 1 6.31307 6.8016 13.6396
240 2 6.11325 7.04057 14.8123
226 2 9.24714 0.478706 9.97448
264 1 13.4062 2.24033 15.0306
123 3 13.048 0.449558 9.65594
161 2 7.66336 4.01276 8.36821
13 4 8.46446 11.2193 3.49205
263 2 4.32264 13.5046 2.72369
46 4 3.43674 10.4652 3.11111
68 1 1.65698 12.5817 6.38031
75 1 6.57384 7.96498 7.11098
139 3 2.62807 9.51135 2.0436
140 3 2.64645 11.0556 4.29207
238 2 7.56835 8.43872 7.30255
149 2 6.98844 12.1753 4.49207
210 2 3.38548 7.86921 7.88911
160 2 6.73829 13.367 7.61038
166 2 4.21965 11.8358 2.40958
167 2 4.85056 9.67712 3.60038
209 2 2.92931 8.24389 6.02354
217 2 2.46081 13.2635 6.0033
218 2 1.99558 12.054 7.43227
159 2 3.02032 12.6689 1.27149
141 3 4.44621 12.1361 8.14455
294 2 4.96792 12.5939 0.335184
38 4 5.13348 13.5356 8.11295
158 2 1.37484 13.6714 4.67863
262 1 5.44443 13.3528 2.70338
219 2 0.689936 13.1552 6.55611
270 1 6.66662 10.6287 3.90298
271 2 6.26433 9.89119 4.66667
272 2 7.99482 9.4403 3.35348
273 2 6.10537 10.6242 2.96732
282 2 5.79704 12.3426 3.14753
33 4 1.5468 10.9662 5.44038
239 2 5.59932 8.66378 7.16501
291 2 8.03423 10.9049 0.720098
150 2 9.2774 9.10134 0.343603
168 2 3.45724 9.61725 7.88793
253 2 6.24111 7.72244 1.19789
237 2 6.615 7.26824 6.29172
248 1 6.25204 7.02258 0.300047
283 2 5.94294 13.6219 1.75684
18 4 8.52738 10.0974 15.1576
22 4 -0.144355 13.64 12.6412
245 2 6.62648 11.8607 12.4489
47 4 3.91273 10.8748 8.99893
48 4 7.462 8.13502 12.8486
49 4 6.19296 10.2539 10.8671
138 3 7.56835 7.17222 9.54837
225 2 1.50332 10.967 12.9901
77 1 6.95969 12.0278 11.286
121 3 1.17459 13.1503 11.4167
60 1 7.13744 10.6474 16.2912
35 4 1.24843 11.6344 10.6901
142 3 2.5355 11.3296 9.74767
143 3 8.61919 7.24409 11.9528
144 3 8.00753 9.01091 14.0863
145 3 5.02342 10.2495 9.8729
146 3 6.52349 9.10377 11.8219
278 1 3.42085 13.2395 16.1065
153 2 4.11279 7.86589 11.7844
279 2 2.84346 12.2926 15.7784
169 2 7.71044 10.721 10.0802
223 2 2.31972 9.63892 11.9366
196 2 6.69967 11.4243 15.3625
243 2 6.40457 12.8 10.6588
220 2 0.48336 12.1829 16.2945
293 2 3.71205 13.9803 15.1806
254 2 5.41745 8.04599 15.8581
136 3 4.84673 7.11803 9.3386
195 2 6.37255 9.89139 16.4945
ITEM: TIMESTEP
200
ITEM: NUMBER OF ATOMS
295
ITEM: BOX BOUNDS xy xz yz pp pp pp
-8.3339999999999996e+00 1.5144700000000000e+01 -7.6974000000000000e+00
0.0000000000000000e+00 1.4024320000000001e+01 -6.3660000000000005e-01
0.0000000000000000e+00 1.6498000000000001e+01 4.1552000000000000e-01
ITEM: ATOMS id type x y z
6 4 0.626363 1.58448 5.93963
7 4 -0.207437 3.90009 2.01906
8 4 -0.825278 4.00839 7.84603
10 4 -1.89666 6.52559 5.6566
25 4 0.869321 5.94833 4.08473
27 4 3.26706 6.22328 5.86679
50 1 2.66923 0.932376 2.2657
51 1 2.29927 2.17275 5.2521
52 1 -1.79097 4.85736 1.40665
204 2 4.67355 3.1209 2.39831
79 3 -0.119752 0.864703 4.64006
276 2 5.54586 0.7022 0.450149
54 1 -3.41489 6.55011 4.59393
82 3 0.304673 3.26677 0.641499
84 3 -0.109161 2.78469 6.83824
85 3 -2.24837 5.06997 6.94043
182 2 -3.13835 6.56572 3.50029
102 3 0.774694 4.77276 2.96467
103 3 -0.611821 6.22088 4.66516
104 3 4.45048 3.02556 7.99641
106 3 1.97223 5.56785 5.33585
107 3 4.10913 5.41995 6.84219
170 2 2.65399 0.33378 3.25727
203 2 5.45451 1.71432 3.34871
81 3 -0.943019 2.65414 2.77345
173 2 2.4518 1.73962 4.12949
174 2 2.94116 1.64624 6.10256
175 2 2.11607 3.33289 5.30373
176 2 -2.33608 5.38214 2.27114
274 1 6.19944 1.54232 0.787983
178 2 -1.24352 5.63348 0.827964
277 2 5.85022 1.96833 1.8345
205 2 3.93177 2.68445 4.15876
171 2 1.82615 1.76147 2.11468
249 2 4.72805 4.62537 2.84839
180 2 1.31644 4.79561 7.91272
250 2 3.34307 5.91087 2.76348
78 3 0.900605 0.567403 0.226147
63 1 4.90787 2.73738 3.41116
179 2 0.112467 6.29518 8.24802
172 2 3.67828 1.30187 1.97267
3 4 -0.0962143 2.34073 15.9286
267 1 -0.381547 1.9649 11.4638
207 2 3.97341 0.35941 13.7655
20 4 3.636 1.98802 8.89296
23 4 2.6905 2.55254 14.1329
28 4 4.35418 4.36972 12.2009
285 2 -0.630023 2.44188 12.4459
61 1 2.19331 3.03818 9.738
64 1 3.01759 0.801169 13.397
83 3 -1.45703 3.22072 9.10663
53 1 0.3544 5.23573 8.52308
97 3 3.85658 2.69101 15.317
98 3 1.23889 2.78603 14.7755
99 3 4.59809 1.39323 10.1028
108 3 2.95185 3.7344 12.9056
9 4 -3.59904 6.61285 9.05231
19 4 5.10528 3.2474 16.005
148 2 0.388668 6.5793 10.9695
257 3 2.77668 6.68637 16.3199
269 2 0.544979 2.38874 10.9025
181 2 0.484627 5.18478 9.5786
100 3 6.04838 0.51522 12.1274
24 4 5.74199 1.81998 11.1225
197 2 2.14682 2.75326 10.7919
198 2 1.30785 2.83497 9.1248
199 2 2.6435 4.08054 9.53875
259 2 0.198104 6.48837 15.1188
208 2 3.07543 0.884635 12.2707
110 3 4.17155 5.28346 10.9746
268 2 -0.310279 0.839086 11.5877
295 2 -2.58864 5.09809 11.8489
86 3 -2.29223 6.4159 9.84928
109 3 5.22294 3.14304 11.9679
154 2 2.10055 6.65448 10.045
265 2 -1.90388 2.90027 14.3845
96 3 2.89445 0.747137 8.26131
1 4 -5.62337 13.333 0.94232
4 4 -5.44053 13.0365 7.57871
12 4 -2.8562 9.31556 1.61588
15 4 -2.88445 8.95446 7.20598
16 4 -4.10253 11.1178 5.4805
30 4 1.42211 8.51246 2.19759
31 4 -1.42343 11.1911 3.81667
80 3 -6.84889 13.5839 7.01486
56 1 -4.49209 8.67118 2.42199
189 2 -1.02845 8.05211 0.653516
57 1 -2.16081 7.96213 0.491839
66 1 -1.17975 12.6526 2.61639
280 3 -4.29776 12.8597 0.0661258
111 3 1.46397 7.39597 3.41899
88 3 -3.29073 10.4892 0.551217
90 3 -1.76034 7.9618 6.4352
91 3 -5.38351 11.0308 4.31078
92 3 -3.9014 9.5176 6.08033
93 3 -4.50668 12.2703 6.5565
188 2 -5.33042 9.36873 2.09711
112 3 1.11934 7.86104 0.756395
113 3 -1.44769 9.93791 2.87876
114 3 -2.7844 11.4482 4.64505
115 3 -2.07661 10.1637 8.18764
116 3 0.0709864 11.178 4.73512
155 2 -0.0161933 9.28317 2.57205
292 2 -2.13972 12.6945 7.50265
65 1 2.62549 8.22047 7.14873
157 2 1.52211 9.68242 6.65539
211 2 1.47904 7.98298 6.93498
214 2 -0.0250057 12.7022 2.64429
213 2 -1.54664 12.453 1.5506
221 2 0.126869 9.88517 0.102034
87 3 -6.384 11.9089 1.87044
187 2 -4.20687 8.83295 3.51252
289 2 -2.69413 7.07471 1.06403
222 2 -0.466973 11.5257 0.944817
183 2 -4.03625 7.41621 4.9321
212 2 -1.70976 13.5147 3.1739
69 1 0.0365218 11.0364 0.0293147
210 2 3.00381 7.67884 8.05105
89 3 -3.60895 8.04697 8.24814
11 4 -1.17644 7.45665 10.5415
224 2 0.493034 9.82688 12.2715
17 4 -2.42517 9.20193 13.0187
32 4 -1.64713 11.1923 9.2667
34 4 -1.36011 11.5844 14.8286
288 2 -3.07443 8.31399 15.8414
55 1 0.742534 8.04466 9.83258
58 1 -3.63455 8.04381 13.9392
59 1 -3.57221 10.738 12.3513
216 2 -2.81163 13.1016 9.26549
255 4 1.29952 7.45745 16.1351
185 2 1.55987 7.98833 9.01215
94 3 -1.77748 8.43132 11.7038
95 3 -5.38367 11.3109 14.8331
117 3 -1.46648 9.75239 14.1433
118 3 -0.434277 12.5185 13.7702
119 3 -2.81966 12.2738 14.9747
120 3 -0.195729 11.1016 9.93604
147 2 -5.77617 11.9766 8.74756
290 2 -4.34258 7.53441 13.2425
156 2 -2.76968 10.8187 10.5682
184 2 -0.266966 8.48878 9.22265
186 2 1.04658 8.8567 10.5939
191 2 -4.18349 8.74752 14.6788
192 2 -4.27035 10.8606 13.2301
193 2 -4.07132 10.3949 11.4272
194 2 -2.91684 11.6422 12.1838
258 2 1.91596 8.86997 14.3941
260 2 0.946937 7.3547 13.5976
206 2 -5.52872 13.8635 13.7781
256 1 0.983674 8.13639 14.4171
261 2 -0.00644846 8.74838 14.3676
14 4 -4.2332 11.9349 15.9
215 2 -1.05911 13.7061 8.65517
190 2 -2.85993 7.32092 14.3457
67 1 -1.87245 12.8904 8.56664
2 4 13.7663 1.29925 3.72995
21 4 6.56774 3.26243 4.58256
251 2 5.17201 6.52776 3.03545
36 4 9.16527 1.69411 4.68558
101 3 5.58472 4.37794 0.1242
40 4 11.7292 2.04714 6.113
43 4 10.5972 2.90606 2.10466
235 2 8.80586 3.89648 0.561066
62 1 7.6459 4.74044 3.94819
228 2 9.18692 1.23987 7.99847
74 1 9.48612 4.21059 1.39886
105 3 5.92969 3.73723 5.92055
122 3 7.56189 2.02685 4.70332
125 3 12.4445 1.61227 4.72223
126 3 10.0737 2.11382 6.02652
127 3 12.0712 1.00042 7.23211
133 3 9.79475 2.3711 3.39189
134 3 10.7505 1.53625 1.08156
234 2 8.79218 4.5031 2.35466
286 2 11.2759 5.50523 4.94945
162 2 12.307 3.59021 6.49264
164 2 12.1649 3.64732 2.3731
200 2 8.75708 4.51817 3.93562
246 4 4.85329 5.82599 0.675014
37 4 10.3135 0.310421 0.230293
236 2 10.3755 5.02587 1.21233
201 2 7.40459 5.55754 4.70709
202 2 7.22673 4.87899 2.95713
151 2 4.2038 6.44933 4.41071
135 3 6.41176 4.95856 8.1249
275 2 7.25609 1.21163 0.761183
26 4 5.24146 4.28103 7.27217
177 2 12.7374 4.19012 0.766085
281 2 11.5549 5.38782 7.87069
247 1 4.49315 5.70879 2.58694
161 2 7.76122 3.78523 8.09324
283 2 13.4906 0.120074 1.70522
152 2 5.33618 5.29925 13.2778
241 2 6.89199 5.97659 13.7023
227 2 10.582 1.61667 9.36827
39 4 8.39209 2.8097 9.40217
41 4 7.9439 2.14841 14.7474
42 4 10.6792 3.43556 11.7324
45 4 8.72287 6.5078 10.5336
29 4 3.78115 6.67716 10.5146
72 1 9.4736 3.3028 15.0101
73 1 11.4837 4.99908 12.2068
284 2 13.2775 1.07914 14.5549
242 2 5.4441 6.99546 13.081
266 2 12.6803 2.08834 16.0267
124 3 7.10807 2.26326 10.2261
128 3 8.13647 1.48496 13.2247
129 3 8.31529 0.996652 15.9049
130 3 6.62471 3.0044 15.2056
131 3 11.902 2.59274 11.2061
132 3 9.30425 3.71485 10.3651
71 1 9.50268 1.30452 9.16778
44 4 6.26259 6.78134 8.58732
138 3 7.50463 6.95748 9.56957
137 3 10.1552 6.53067 9.88021
163 2 10.0434 2.70658 13.1875
165 2 8.38782 4.91604 10.9425
233 2 10.8694 5.88358 11.8018
229 2 9.16528 4.01319 14.1217
230 2 10.5419 2.79372 14.8735
231 2 9.26612 3.83574 16.0824
232 2 11.2976 4.8377 13.3922
5 4 13.2647 2.09211 10.3204
76 1 6.32973 6.91963 13.7754
123 3 13.0184 0.559149 9.61474
226 2 9.12335 0.547308 9.94765
264 1 13.403 2.00261 15.0992
13 4 8.54635 11.2437 3.34462
263 2 4.27695 13.4072 2.86094
46 4 3.43254 10.501 3.13132
68 1 1.69595 12.6607 6.43581
75 1 6.41386 7.86115 7.05211
139 3 2.5039 9.67572 2.09707
140 3 2.6887 11.0564 4.40166
238 2 7.33356 8.53343 7.3356
149 2 7.19933 11.993 4.43417
287 2 10.4341 7.61788 2.1897
160 2 6.80899 13.4812 7.46808
166 2 4.38291 11.7456 2.35232
167 2 4.89321 9.79327 3.5211
209 2 3.31765 8.07974 6.14065
217 2 2.77079 13.0793 6.116
218 2 1.74214 12.1304 7.49906
159 2 2.73762 12.3163 1.00147
141 3 4.59352 12.1607 7.90998
294 2 4.91979 13.1028 0.252604
38 4 5.18337 13.5971 8.06742
158 2 1.62006 13.6019 4.64759
262 1 5.42751 13.3425 2.74581
219 2 0.83279 13.3948 6.33331
270 1 6.76191 10.4631 3.52436
271 2 6.36334 10.0639 4.48726
272 2 7.86984 9.35793 3.05419
273 2 6.05493 10.6341 2.5892
282 2 5.93339 12.2728 3.13657
33 4 1.49572 11.0938 5.46249
239 2 5.43605 8.47479 7.09955
291 2 8.22158 10.5048 0.78312
150 2 9.51972 8.80634 0.115666
168 2 3.16837 9.87171 7.75363
253 2 6.23192 7.40489 1.5512
237 2 6.49325 7.15474 6.16699
248 1 6.14075 7.22602 0.37381
195 2 7.31562 8.85343 0.126914
18 4 8.66698 10.0735 15.0604
22 4 -0.0460947 13.6962 12.6394
245 2 6.68119 11.919 12.2367
47 4 3.88175 11.1211 8.90322
48 4 7.57338 8.11352 12.9016
49 4 6.24835 10.2049 10.699
244 2 8.01651 12.0961 10.7599
225 2 1.70848 11.0015 13.0185
77 1 6.88926 11.9788 11.0404
121 3 1.01332 13.0161 11.3557
60 1 7.3016 10.2966 16.3732
35 4 1.2964 11.5935 10.7469
142 3 2.55496 11.4239 9.81475
143 3 8.65121 7.31511 11.972
144 3 8.44721 8.96175 13.9349
145 3 4.9865 10.4174 9.80455
146 3 6.6625 9.2228 11.8232
278 1 3.42977 13.2717 16.0936
153 2 3.3561 7.78212 11.7176
279 2 3.15218 12.1875 16.0268
169 2 7.74408 10.6529 9.90128
223 2 2.31787 9.51501 11.8211
196 2 6.75409 11.0177 15.4323
243 2 6.23321 12.811 10.5784
220 2 0.363493 12.0663 16.2814
136 3 4.60899 7.37474 9.38374
254 2 4.89357 8.43394 16.3347
293 2 3.49084 13.7635 15.0645
252 2 6.52039 7.50029 16.3551
70 1 1.46526 10.2786 12.1181
240 2 6.01848 7.20377 14.8715
ITEM: TIMESTEP
300
ITEM: NUMBER OF ATOMS
295
ITEM: BOX BOUNDS xy xz yz pp pp pp
-8.3339999999999996e+00 1.5144700000000000e+01 -7.6974000000000000e+00
0.0000000000000000e+00 1.4024320000000001e+01 -6.3660000000000005e-01
0.0000000000000000e+00 1.6498000000000001e+01 4.1552000000000000e-01
ITEM: ATOMS id type x y z
6 4 0.673275 1.59237 5.91874
7 4 -0.283069 3.72101 1.9938
8 4 -0.848795 3.90939 7.71002
10 4 -1.92621 6.45911 5.65754
25 4 0.876355 5.93408 4.04774
27 4 3.3114 6.23152 5.8116
50 1 2.91501 0.819092 2.43791
51 1 2.26097 2.34193 5.23652
52 1 -1.67921 5.00265 1.64845
204 2 4.61225 3.19596 2.47466
79 3 -0.0894246 1.07635 4.60682
276 2 5.40992 0.873377 0.378746
54 1 -3.45334 6.64431 4.65846
82 3 0.447879 3.24692 0.538344
84 3 -0.0368971 2.74639 6.77054
85 3 -2.33702 4.99855 6.94053
182 2 -3.11445 6.44907 3.58088
102 3 0.66772 4.52365 2.99072
103 3 -0.601474 6.08714 4.69501
104 3 4.44597 3.06507 8.10496
106 3 1.91628 5.57978 5.35948
107 3 4.19711 5.45675 6.80233
53 1 0.381281 5.17609 8.15534
203 2 5.32026 1.67721 3.3414
81 3 -1.14354 2.50567 2.60902
173 2 2.57217 1.75315 4.16968
174 2 2.94228 2.04254 6.10858
175 2 2.27952 3.49879 5.1942
176 2 -2.22943 5.06554 2.59364
274 1 6.21947 1.70187 0.763964
178 2 -1.11059 5.93832 1.32908
277 2 5.87252 2.12485 1.79233
205 2 3.98466 2.68532 4.13152
171 2 2.24763 1.76411 2.35069
249 2 4.77105 4.59547 2.97326
180 2 1.24088 4.8443 7.43811
250 2 3.59982 6.02232 2.79494
78 3 1.07066 0.592056 0.164885
63 1 4.89247 2.71066 3.43739
179 2 -0.093881 6.11516 7.73301
172 2 4.00817 1.06666 2.51456
96 3 2.88499 0.833862 8.12878
257 3 3.45344 6.32684 0.20052
177 2 -2.34213 4.58494 0.775331
3 4 0.025392 2.3914 15.9478
267 1 -0.417998 2.14641 11.3944
207 2 3.91281 0.612338 13.911
20 4 3.63804 2.02257 8.97862
23 4 2.57879 2.73796 14.1005
28 4 4.45411 4.39632 12.3263
285 2 -0.59334 2.6639 12.4141
61 1 2.20462 3.17599 9.70545
64 1 2.82539 0.947245 13.5337
83 3 -1.38676 3.28419 9.11482
190 2 -2.8252 7.09835 14.2643
97 3 3.92813 2.95058 15.2277
98 3 1.03919 2.70729 14.6595
99 3 4.45644 1.56417 10.3011
108 3 2.95606 3.86555 12.8612
9 4 -3.63901 6.62993 8.97973
206 2 2.00311 0.355344 13.9711
148 2 0.371314 6.59092 10.6905
265 2 -2.11862 3.16572 14.5987
269 2 0.551741 2.59295 10.8143
181 2 0.731151 5.21244 9.22735
100 3 6.14305 0.394701 11.9914
24 4 5.77242 1.93437 11.1501
197 2 2.27334 3.18411 10.8196
198 2 1.26559 2.74989 9.28569
199 2 2.56138 4.18254 9.25721
259 2 0.196277 6.68181 15.3325
208 2 2.75211 1.00618 12.449
110 3 3.9648 5.3337 11.1842
268 2 -0.310661 0.962636 11.4404
295 2 -2.45842 4.8733 12.4183
86 3 -2.20885 6.52644 9.78655