ITEM: TIMESTEP
0
ITEM: NUMBER OF ATOMS
295
ITEM: BOX BOUNDS xy xz yz pp pp pp
-8.4173399999999994e+00 1.5296146999999999e+01 -7.7743739999999999e+00
0.0000000000000000e+00 1.4189300000000001e+01 -6.4296600000000004e-01
0.0000000000000000e+00 1.6498000000000001e+01 5.8050000000000002e-01
ITEM: ATOMS id type x y z
6 4 0.882404 1.49834 5.67412
7 4 -0.157428 4.13679 1.96977
8 4 -0.393357 3.82698 7.86563
10 4 -1.91251 6.30262 5.82847
25 4 0.620774 6.2269 4.03516
27 4 3.05962 6.99526 5.78441
50 1 3.0281 1.04363 1.93381
51 1 2.5832 2.07766 5.16096
52 1 -1.51045 5.33934 1.42071
78 3 0.878179 0.572058 0.252676
79 3 0.0252641 1.23171 4.40204
180 2 1.8869 4.64732 8.22788
81 3 -1.04383 3.00396 2.7187
82 3 0.650973 3.62002 0.563288
84 3 0.366475 2.71866 6.83681
85 3 -1.80608 4.76563 6.9725
96 3 3.17207 0.810321 7.94519
102 3 0.922919 4.84128 3.18883
103 3 -1.00353 6.2403 4.4872
104 3 3.38942 3.82438 7.96494
106 3 1.57114 6.46285 5.43331
172 2 3.05676 0.383361 2.93292
170 2 2.33872 1.99468 1.87473
171 2 4.12141 1.11336 1.36765
250 2 2.79594 4.90784 2.64576
173 2 2.44249 2.26066 4.02024
174 2 3.29349 1.20393 5.42872
175 2 2.87228 3.03577 5.71415
176 2 -1.32322 6.3308 1.95788
277 2 5.91054 1.63643 1.70232
276 2 5.38551 0.372307 0.265145
274 1 6.10244 1.21158 0.620637
205 2 4.51965 2.26026 3.9029
26 4 4.53793 4.55776 7.15678
177 2 -2.67327 5.05186 1.5221
203 2 6.13407 1.21116 3.39431
204 2 5.79573 3.06129 2.69507
63 1 5.63503 2.33555 3.57734
178 2 -1.2309 5.41829 0.301137
247 1 3.96818 4.9326 2.5442
179 2 0.443478 6.00484 7.65035
249 2 4.61939 3.96085 2.93235
107 3 3.98572 5.87366 6.30021
105 3 5.40011 3.50851 6.20298
3 4 0.0623407 2.92015 15.9463
9 4 -4.01366 7.09564 9.35973
19 4 5.24176 3.1919 15.7865
20 4 3.47008 2.21737 8.82339
23 4 2.80787 2.65385 13.945
28 4 4.5671 4.5321 12.1508
100 3 6.21801 0.789432 11.3111
61 1 2.07123 2.25302 10.1365
64 1 2.60076 0.881661 13.3735
83 3 -0.753462 3.19184 9.33971
86 3 -2.33577 6.82206 9.87828
97 3 4.02933 2.64712 14.9621
98 3 1.24946 2.94202 14.8128
99 3 4.76326 2.23279 9.70434
108 3 3.16407 3.67202 12.4955
264 1 -1.59188 2.89194 15.1191
190 2 -3.51825 7.18011 13.3801
148 2 0.389929 6.5326 10.602
269 2 0.155161 2.0258 12.052
284 2 -1.28536 3.04471 14.0082
181 2 0.399069 5.32238 9.41681
53 1 0.782658 5.18588 8.32131
257 3 2.80982 6.84338 16.366
197 2 2.03929 1.0854 10.3356
198 2 1.02029 2.66665 9.87118
199 2 2.56273 2.84311 11.0548
267 1 -0.751197 1.26425 11.9184
208 2 2.90879 0.92274 12.2765
206 2 1.52775 0.582599 13.6037
259 2 0.151745 6.10683 15.7212
260 2 0.57641 6.81203 13.9563
232 2 -3.01103 5.92661 11.4605
233 2 -2.66657 4.8628 13.1073
265 2 -2.25113 3.73638 15.5117
256 1 0.228671 7.14129 14.9922
215 2 6.66308 0.412214 8.27353
1 4 -5.83906 13.3835 1.02913
4 4 -5.37108 13.0757 7.51547
12 4 -2.37168 9.35427 1.39397
15 4 -3.01038 9.01623 7.25195
16 4 -4.07022 11.1066 5.4111
30 4 1.63488 8.59962 2.30504
31 4 -1.22744 11.276 3.67983
216 2 -2.96504 13.6982 7.83199
56 1 -3.92591 8.58852 2.37736
157 2 1.4682 9.46684 6.51442
222 2 -0.89973 11.8559 0.436932
66 1 -0.949757 12.9583 2.92897
67 1 -1.8306 13.2927 7.80917
87 3 -6.68055 12.3663 2.32724
88 3 -3.13428 10.4101 0.469452
90 3 -1.91859 7.88779 6.75276
91 3 -5.31221 11.352 4.38388
92 3 -3.99258 9.52136 5.97783
93 3 -4.33623 12.1145 6.74013
111 3 0.956222 7.4516 3.10679
112 3 1.73005 8.24299 0.773362
113 3 -1.27583 9.95281 2.37047
114 3 -2.61207 11.3772 4.48984
115 3 -2.16823 10.2657 7.92805
116 3 0.111565 11.1487 4.71765
155 2 0.460134 9.82436 2.38252
292 2 -1.38867 12.8033 6.66008
187 2 -3.97314 9.02232 3.39502
189 2 -0.6478 7.81529 0.678063
211 2 1.74741 8.47153 7.68546
212 2 -0.405328 12.7632 1.92558
80 3 -6.75496 13.3933 6.68118
214 2 -2.00471 13.2647 2.67392
287 2 -3.55408 7.54452 2.33049
188 2 -4.83591 8.80004 1.77825
213 2 -0.386282 13.6307 3.61112
57 1 -1.60863 8.13347 0.115391
280 3 -4.92538 12.4225 0.111693
11 4 -1.06381 7.58648 10.4063
14 4 -4.57513 11.9642 15.8478
17 4 -2.37968 9.45759 12.7013
32 4 -1.49128 11.5304 8.53913
34 4 -1.81789 12.1031 14.5844
288 2 -1.94995 9.31907 15.6315
55 1 0.622368 8.06319 9.54756
58 1 -3.55574 8.2297 13.6886
59 1 -3.26566 10.4547 11.3897
69 1 -0.821279 11.9937 16.1861
261 2 -0.654398 7.77494 14.9701
224 2 0.300759 9.59571 11.7843
94 3 -1.25124 8.51621 11.8737
95 3 -5.56478 10.9265 14.8154
117 3 -1.88159 10.4124 13.8958
118 3 -1.09922 13.1357 13.5344
119 3 -3.35478 12.6863 15.0307
120 3 -0.195414 11.3404 9.45872
89 3 -3.99961 8.44952 8.54908
154 2 2.26684 7.29516 10.2603
156 2 -2.77201 12.5035 9.31885
184 2 -0.624424 8.75893 8.76909
186 2 0.946796 9.00148 10.3301
191 2 -3.08356 8.4344 14.7874
192 2 -4.19994 9.68173 11.356
193 2 -2.80546 10.4975 10.3121
194 2 -3.61731 11.4511 11.7529
147 2 -5.96546 12.3216 8.93609
255 4 1.60473 7.86675 16.1189
221 2 -0.508887 10.9519 16.3863
258 2 1.52131 8.47308 14.4551
207 2 -4.42564 13.8499 14.0472
290 2 -4.5133 8.80811 13.4515
185 2 1.46777 7.77628 8.78119
70 1 1.2344 10.3242 11.7726
289 2 -2.99681 7.84822 16.4472
268 2 -8.12859 13.8589 11.8112
220 2 0.000524828 12.747 15.9297
236 2 11.3754 4.0526 0.709337
21 4 6.60566 3.08239 5.15145
127 3 12.5086 0.839061 6.97725
36 4 9.25743 1.667 4.9791
252 2 7.10812 6.34533 0.590049
40 4 12.0802 1.95386 5.914
43 4 10.3181 2.53279 2.32147
54 1 11.7042 6.01063 5.08997
62 1 7.53238 4.66546 5.01739
248 1 6.0716 6.72149 0.926228
74 1 10.6611 4.39324 1.57565
251 2 4.43909 5.90957 2.94893
122 3 7.80886 1.81384 5.64791
125 3 12.554 1.56962 4.47455
126 3 10.4792 2.28914 5.88507
37 4 10.4556 0.365518 0.123331
133 3 9.19385 2.25411 3.42542
134 3 10.7649 1.48586 1.28959
226 2 9.66303 0.455828 8.01328
235 2 9.43999 4.31254 1.23856
162 2 12.8731 3.48831 6.2155
164 2 11.662 3.5082 2.98224
202 2 7.22683 5.64795 5.72215
2 4 13.936 1.55323 3.57849
286 2 11.2974 5.23603 5.82147
200 2 7.23834 4.80273 3.88115
201 2 8.60182 4.17387 5.21658
253 2 5.95413 6.74847 2.07054
161 2 9.247 2.66329 7.67529
234 2 10.8999 5.43644 1.89058
135 3 5.89271 5.09952 8.2253
283 2 13.7503 0.907655 1.25257
246 4 4.63626 5.41781 0.702722
237 2 6.28971 6.88832 5.92862
262 1 13.8027 0.243791 2.14963
182 2 11.8798 5.59503 4.04074
101 3 5.35387 4.13091 0.129673
275 2 7.21349 1.0135 0.48458
281 2 10.8599 5.91149 8.2346
183 2 11.1228 6.96937 5.09042
5 4 13.6691 1.90162 10.3892
71 1 9.98953 1.30779 8.82194
44 4 6.41194 6.47801 8.67796
39 4 9.01357 2.84273 9.39712
41 4 8.12349 2.38138 14.48
42 4 11.2358 3.68026 11.6228
129 3 8.65359 1.33914 15.5254
29 4 3.99704 7.07272 10.5547
72 1 9.46234 3.77283 14.4005
295 2 10.8549 5.62281 12.8437
45 4 8.66075 6.60896 10.7782
138 3 7.81444 6.7396 9.49891
266 2 13.3418 1.80268 15.3562
124 3 7.54459 2.61307 9.85772
128 3 8.30461 1.60906 13.072
73 1 11.873 5.22369 12.3179
130 3 6.68074 3.22161 15.0277
131 3 12.3992 2.85876 10.998
132 3 9.88513 3.93666 10.1771
227 2 9.92818 0.765985 9.88812
76 1 6.10793 6.8054 14.2504
152 2 5.27141 5.11985 13.6059
242 2 5.03982 6.91131 13.6959
163 2 10.4576 2.794 12.9134
165 2 8.83222 4.91236 10.9543
123 3 13.3985 0.590171 9.39833
229 2 9.4116 4.30544 13.4209
230 2 10.4731 3.30629 14.65
231 2 9.12467 4.44868 15.249
241 2 6.8338 5.89598 13.977
110 3 4.21019 5.7234 11.273
240 2 5.99526 7.00087 15.3961
228 2 11.0917 1.74169 8.73781
137 3 10.1576 7.11028 10.5243
24 4 6.10562 2.37928 10.6473
285 2 13.7876 1.36642 12.7081
109 3 5.80353 3.57498 11.7328
150 2 9.46744 8.46795 0.21558
38 4 5.46468 13.481 7.95152
46 4 3.57066 10.4568 3.38578
68 1 1.5408 12.5985 6.60155
75 1 6.78278 7.18718 6.93984
139 3 3.37339 8.88761 3.04319
140 3 2.8227 10.933 4.68236
158 2 1.64478 13.5815 4.86602
149 2 7.04957 11.3054 4.56354
151 2 3.68765 7.92771 4.49712
160 2 7.05859 13.2015 7.38108
166 2 3.32665 11.4146 1.96376
167 2 5.27282 10.5512 3.84979
278 1 3.58664 12.1387 0.159189
217 2 1.67249 12.0691 7.63494
218 2 0.512402 13.1681 6.475
219 2 2.44811 13.1632 6.33842
254 2 5.78979 7.65972 0.383305
263 2 5.09924 13.1773 2.38999
291 2 8.89392 10.3788 1.05132
209 2 3.30984 9.19327 6.57581
239 2 6.43672 8.28436 7.14037
294 2 4.42925 11.6462 0.664527
270 1 7.14738 9.93507 3.56977
271 2 6.75824 9.01396 4.10872
272 2 8.59218 9.56608 2.92235
273 2 6.53763 10.2568 2.66334
282 2 7.03332 13.3622 2.18643
159 2 2.14987 12.3788 1.11741
210 2 3.63538 7.9626 8.04279
195 2 7.40771 9.17155 0.627312
33 4 1.46283 10.942 5.623
13 4 8.6889 11.3237 3.50885
60 1 8.1582 9.94142 0.256164
141 3 4.81918 12.0543 8.04002
65 1 2.87484 8.31329 7.24266
238 2 7.96952 7.14766 6.87414
18 4 8.53103 9.95356 15.2406
225 2 1.47628 10.7609 12.7843
196 2 6.96386 11.3891 16.0758
47 4 4.03607 11.1525 9.12569
48 4 6.95642 8.06313 13.1195
49 4 5.58383 10.6373 11.772
168 2 3.83258 9.69168 8.3366
35 4 1.16807 11.8054 10.5762
77 1 5.43366 12.0507 13.023
121 3 0.873575 12.9568 11.5727
136 3 4.77049 7.31139 9.28207
245 2 5.93636 11.727 14.0293
142 3 2.60692 11.6645 9.66621
279 2 2.60824 12.0738 15.8171
144 3 7.80408 9.04496 14.141
145 3 4.84957 10.9551 10.4469
146 3 5.64122 9.09723 12.2403
243 2 4.20673 11.9515 13.0625
153 2 4.32169 8.3392 11.5794
244 2 5.83287 13.1544 12.596
169 2 7.04638 11.5984 11.9555
223 2 2.17757 9.82748 11.2395
22 4 -0.388844 13.8953 12.3289
293 2 3.72454 13.9876 15.7639
143 3 7.83291 7.24551 12.0203
ITEM: TIMESTEP
100
ITEM: NUMBER OF ATOMS
295
ITEM: BOX BOUNDS xy xz yz pp pp pp
-8.4173399999999994e+00 1.5296146999999999e+01 -7.7743739999999999e+00
0.0000000000000000e+00 1.4189300000000001e+01 -6.4296600000000004e-01
0.0000000000000000e+00 1.6498000000000001e+01 5.8050000000000002e-01
ITEM: ATOMS id type x y z
6 4 0.819648 1.54224 5.96231
7 4 -0.162267 4.10931 2.02436
8 4 -0.532554 3.79522 7.88421
10 4 -2.12578 6.23791 5.78733
25 4 0.658533 6.19449 4.1304
105 3 5.34101 3.39091 6.2435
50 1 3.21822 1.10708 1.75074
51 1 2.46824 2.02617 5.22228
52 1 -1.35264 5.43183 1.33652
78 3 1.103 0.918433 0.114083
79 3 0.013849 1.33495 4.71379
180 2 1.82047 4.74993 7.9557
81 3 -1.17473 3.10857 2.60034
82 3 0.401119 3.42217 0.644486
84 3 0.134056 2.61719 6.91369
85 3 -1.83874 4.68572 6.93952
96 3 3.20048 0.83446 7.93825
102 3 1.12705 4.86833 3.07663
103 3 -0.94922 6.12902 4.63077
104 3 3.4394 3.84985 7.83737
106 3 1.57382 6.33289 5.51972
172 2 3.2629 0.736163 2.81053
170 2 2.60799 2.04765 1.67197
171 2 4.28727 1.12465 1.24419
250 2 2.97466 4.91859 2.62782
173 2 2.25505 2.04088 4.02586
174 2 3.13653 1.20849 5.55434
175 2 2.64142 3.04853 5.66754
176 2 -1.10124 6.4256 1.82619
277 2 6.08737 1.73104 1.59445
27 4 3.00521 6.94598 5.85481
274 1 6.25242 1.28936 0.516872
205 2 4.72262 2.4899 3.64434
26 4 4.71064 4.50113 7.16209
177 2 -2.51799 5.09663 1.46947
203 2 6.12005 1.31027 3.34284
276 2 5.61017 0.367704 0.233538
63 1 5.79967 2.39922 3.49045
178 2 -1.01272 5.45879 0.283246
247 1 4.15722 4.97142 2.5722
179 2 0.421258 5.84897 7.41029
249 2 4.69561 4.00711 2.96493
53 1 0.796525 5.09647 8.18709
257 3 3.58109 6.20601 0.09473
3 4 0.13855 2.85686 15.8369
233 2 -2.49716 4.82754 12.7778
19 4 5.31047 3.18213 15.664
20 4 3.60526 2.18031 8.74966
23 4 2.73705 2.66268 13.9041
28 4 4.64714 4.46292 12.2407
100 3 6.23332 0.774484 11.5145
61 1 2.28418 2.28545 10.088
64 1 2.66362 0.877038 13.2698
83 3 -0.861431 3.11887 9.37745
86 3 -2.50224 6.87309 9.83417
97 3 4.01549 2.6303 14.8925
98 3 1.23943 3.22418 14.7332
99 3 4.9842 2.05592 9.49847
108 3 3.16605 3.62872 12.5534
264 1 -1.5482 2.66273 15.0316
190 2 -3.32541 7.03442 13.1936
148 2 0.33939 6.70992 10.5081
269 2 0.229 1.84984 11.6544
284 2 -1.25456 2.43678 13.927
181 2 0.719826 5.34756 9.3097
256 1 0.243738 6.95569 15.0836
265 2 -2.09424 3.69807 15.1445
197 2 2.01971 1.21303 10.4039
198 2 1.43217 2.76783 9.56369
199 2 2.6018 2.91799 11.0052
267 1 -0.689313 1.1712 11.6732
208 2 2.95086 1.08399 12.13
206 2 1.5823 0.59497 13.3545
259 2 0.0530188 6.00241 15.992
260 2 0.610191 6.45962 14.1572
232 2 -3.01943 5.9472 11.3469
1 4 -5.76622 13.4253 1.02459
4 4 -5.30793 13.1301 7.54542
12 4 -2.44276 9.39834 1.49251
15 4 -3.13775 8.974 7.14841
16 4 -4.13036 11.1835 5.38801
30 4 1.56828 8.5371 2.303
31 4 -1.27823 11.3702 3.89101
216 2 -2.61461 13.7591 7.75635
56 1 -3.76052 8.54889 2.69813
157 2 1.41881 9.4603 6.33593
222 2 -1.10095 11.578 0.63313
66 1 -1.0788 13.0022 2.94118
67 1 -1.59102 13.251 7.82692
87 3 -6.63024 12.4136 2.31553
88 3 -3.22186 10.4063 0.588167
90 3 -2.18904 7.56902 6.53461
91 3 -5.44807 11.1485 4.49785
92 3 -3.95939 9.5191 5.90768
93 3 -4.33863 12.3709 6.49806
111 3 0.98793 7.36759 3.13942
112 3 1.85357 8.19959 0.723661
113 3 -1.09838 10.1718 2.56173
114 3 -2.67003 11.4628 4.63826
115 3 -2.14552 10.2316 7.88916
116 3 0.0203098 11.0885 4.76112
155 2 0.475867 9.86775 2.38745
292 2 -1.30036 12.843 6.74681
187 2 -3.82906 9.16863 3.61052
189 2 -0.773165 7.86882 0.750943
211 2 1.69669 8.35241 7.58067
212 2 -0.407513 12.9759 2.0436
80 3 -6.77467 13.3825 6.9305
214 2 -2.15766 13.3238 2.74858
287 2 -3.34139 7.5312 2.89133
188 2 -4.75181 8.48145 2.12108
213 2 -0.609834 13.5674 3.8289
57 1 -1.72153 8.20652 0.196195
280 3 -4.84326 12.4394 0.218795
89 3 -4.24822 8.40668 8.17873
289 2 -2.49012 7.37441 0.073336
11 4 -1.28557 7.6672 10.3939
14 4 -4.56289 11.8674 15.9644
17 4 -2.37335 9.34127 12.7714
32 4 -1.55101 11.5235 8.57523
34 4 -1.78742 12.0473 14.6473
288 2 -2.13623 9.38257 15.7343
55 1 0.679034 7.96641 9.75567
58 1 -3.45218 8.09609 13.7027
59 1 -3.55429 10.36 11.4916
69 1 -0.930793 12.0364 16.3146
261 2 -0.639993 7.69219 14.8345
224 2 0.147792 9.65559 11.6734
94 3 -1.42235 8.53815 11.7177
95 3 -5.38627 10.8871 14.9276
117 3 -1.81072 10.325 13.9298
118 3 -0.784839 12.893 13.6229
119 3 -3.30133 12.7202 14.9051
120 3 -0.309185 11.3735 9.54331
215 2 -0.750296 13.8891 8.3657
220 2 -0.223246 12.9865 16.1596
156 2 -2.73533 12.6363 9.27064
184 2 -0.685918 8.74072 8.95829
186 2 1.12001 8.722 10.469
191 2 -3.07778 8.19379 14.8597
192 2 -4.43454 9.68042 11.6821
193 2 -3.22639 10.3933 10.404
194 2 -3.74084 11.3838 11.8952
147 2 -5.31391 12.1219 8.93343
255 4 1.63136 7.6298 16.1773
221 2 -0.327381 11.0373 16.3338
258 2 1.52269 8.23382 14.5265
207 2 -4.40755 13.8037 13.895
290 2 -4.52485 8.5385 13.5761
185 2 1.35945 7.73819 8.93225
70 1 1.23881 10.3155 11.8293
154 2 2.42722 7.28578 10.3721
9 4 -4.16192 7.15434 9.20248
236 2 11.4565 4.11737 0.64125
21 4 6.62996 3.08506 5.27772
127 3 12.4461 0.863523 6.97038
36 4 9.2596 1.65275 4.97272
252 2 7.23904 6.00338 0.574231
40 4 12.0827 1.91383 5.80429
43 4 10.4739 2.61826 2.23059
54 1 11.4835 6.23233 5.07816
62 1 7.51133 4.70539 4.84633
248 1 6.30257 6.62327 0.709797
74 1 10.8463 4.40518 1.49672
251 2 4.60259 5.92057 3.02929
122 3 7.7598 2.0151 5.72744
125 3 12.6347 1.56731 4.37548
126 3 10.5298 2.16653 5.78005
37 4 10.5576 0.29602 0.302885
133 3 9.39172 2.17123 3.46615
134 3 11.0691 1.39423 1.3927
226 2 9.70048 0.469597 8.00356
235 2 9.32556 3.91661 1.18154
162 2 12.7897 3.51469 6.24707
164 2 11.7285 3.81535 2.88629
202 2 7.18454 5.67003 5.51624
2 4 13.9809 1.62691 3.50334
286 2 11.0772 5.30365 5.69013
200 2 7.15752 4.73048 3.75131
201 2 8.65294 4.52419 4.84517
238 2 7.99134 6.80159 6.68327
161 2 9.29759 2.80276 7.69021
234 2 10.8187 5.51254 1.68503
204 2 6.19657 3.04788 2.70059
283 2 13.6087 0.844865 1.24353
246 4 4.80348 5.42838 0.811317
275 2 7.30725 1.07716 0.294903
262 1 13.8549 0.260946 2.17283
182 2 11.7696 5.97686 3.99244
101 3 5.37124 4.00845 0.172474
107 3 4.16139 5.97432 6.27063
5 4 13.543 1.99708 10.3045
71 1 9.9574 1.34383 8.76408
44 4 6.33564 6.72222 8.53651
39 4 9.01111 2.85846 9.44359
41 4 8.10177 2.42481 14.5064
42 4 11.1326 3.68284 11.4815
129 3 8.87774 1.41469 15.738
29 4 4.10879 7.04093 10.5801
72 1 9.39098 3.87139 14.4208
295 2 11.0602 5.68471 12.6764
45 4 8.66454 6.7724 10.7135
138 3 7.57403 6.72751 9.4857
266 2 13.1587 1.81407 15.5465
124 3 7.53716 2.57474 9.86816
128 3 8.1428 1.7431 12.9774
73 1 11.9143 5.22065 12.1182
130 3 6.69943 3.17733 14.8334
131 3 12.2313 2.64504 11.0102
132 3 10.0236 4.0716 10.1394
227 2 9.96231 0.895623 9.97207
76 1 5.95325 6.91136 14.0069
152 2 5.12408 5.16728 13.7685
242 2 4.99323 6.93281 13.4154
163 2 10.1591 3.01893 12.7988
165 2 8.77143 5.13734 10.9652
123 3 13.1871 0.761795 9.38341
229 2 8.99087 4.35954 13.4974
230 2 10.5122 3.79969 14.3731
231 2 9.06048 4.52805 15.2988
241 2 6.69825 6.00361 13.7509
110 3 4.43277 5.71886 11.349
240 2 5.79408 7.1146 15.2074
228 2 10.9601 1.64195 8.41513
281 2 10.8041 5.7251 8.41196
109 3 5.79645 3.46268 11.7248
285 2 14.209 1.13112 12.6706
135 3 5.83169 5.10646 8.29769
24 4 6.13775 2.34683 10.6123
237 2 6.31985 7.04134 5.87954
38 4 5.35408 13.5151 8.06047
46 4 3.56285 10.3668 3.48299
68 1 1.66664 12.4788 6.75279
75 1 6.92661 7.27453 6.80886
139 3 3.20534 8.86718 3.12352
140 3 2.69837 11.0176 4.56303
158 2 1.55681 13.6126 5.06502
149 2 7.04769 11.3228 4.54556
151 2 3.47668 7.74882 4.43104
160 2 6.9754 13.1842 7.56308
166 2 3.52483 11.3839 2.15137
167 2 5.26134 10.4445 3.83774
278 1 3.60594 12.0187 0.279309
217 2 1.45162 11.7145 7.6835
218 2 0.982904 13.3955 6.86116
219 2 2.77151 12.7976 6.62508
254 2 6.18714 7.51155 0.0339211
263 2 5.21499 13.2412 2.56299
291 2 8.78093 10.5053 0.836418
209 2 3.18891 9.1778 6.46113
239 2 7.0451 8.4072 7.03358
294 2 4.60557 11.9193 0.80594
270 1 7.10998 9.9201 3.37335
271 2 6.55704 9.07078 3.7625
272 2 8.47664 9.45784 2.70812
273 2 6.50758 10.3737 2.55539
282 2 7.19553 13.3248 2.11491
159 2 2.2664 12.175 1.14578
210 2 3.6967 7.99994 8.11843
195 2 8.26662 8.74884 0.942656
33 4 1.46327 11.0085 5.53125
13 4 8.59723 11.2564 3.52134
60 1 8.41131 9.63943 0.269531
141 3 4.57592 12.1672 8.11893
253 2 6.1615 6.98533 1.82924
183 2 10.8877 7.19032 5.20776
65 1 2.83119 8.33014 7.23784
18 4 8.70156 9.8169 15.1634
225 2 1.23288 10.9364 12.7442
196 2 6.7837 10.5852 16.1036
47 4 3.78747 11.2665 9.14291
48 4 6.98836 8.16891 13.0328
49 4 5.45246 10.6868 11.8325
168 2 3.64034 9.70943 8.44371
35 4 1.04717 11.7017 10.4399
77 1 5.72285 12.0735 13.0919
121 3 0.733849 13.0534 11.3515
136 3 4.76887 7.47808 9.27704
245 2 6.25559 11.7278 13.9649
142 3 2.37588 11.7575 9.64115
279 2 2.82069 11.8096 15.9825
144 3 7.88251 9.03871 14.0655
145 3 4.73703 10.9659 10.4599
146 3 5.47679 9.26037 12.4904
243 2 4.50335 12.1213 13.3236
153 2 4.3825 8.2126 11.6974
244 2 6.13207 13.0428 12.597
169 2 7.06378 11.3104 11.8521
223 2 2.17524 9.71953 11.6058
22 4 -0.173518 13.9341 12.3144
293 2 3.49941 13.9951 15.7194
143 3 7.93359 7.38195 12.0132
268 2 7.0655 13.7432 11.2875
137 3 10.1283 7.40346 10.4816
150 2 8.98496 8.71093 16.4741
ITEM: TIMESTEP
200
ITEM: NUMBER OF ATOMS
295
ITEM: BOX BOUNDS xy xz yz pp pp pp
-8.4173399999999994e+00 1.5296146999999999e+01 -7.7743739999999999e+00
0.0000000000000000e+00 1.4189300000000001e+01 -6.4296600000000004e-01
0.0000000000000000e+00 1.6498000000000001e+01 5.8050000000000002e-01
ITEM: ATOMS id type x y z
6 4 0.779577 1.47725 5.98957
7 4 -0.116591 4.19381 1.89266
8 4 -0.623917 3.819 7.90938
10 4 -2.17782 6.1292 5.7559
25 4 0.67219 6.0804 4.09716
105 3 5.44231 3.44014 6.21791
50 1 3.31958 0.916371 1.92233
51 1 2.43578 2.23784 5.49328
52 1 -1.37017 5.45278 1.36539
78 3 1.12646 0.802414 0.103946
79 3 -0.0555509 1.17294 4.63491
180 2 1.89415 4.52075 8.14402
81 3 -1.02195 3.00248 2.8414
82 3 0.617305 3.57686 0.524705
84 3 0.111357 2.68894 6.93779
85 3 -2.05251 4.75424 6.98062
96 3 3.26988 0.744017 7.99413
102 3 1.01251 4.78264 3.06193
103 3 -1.07632 5.9731 4.60144
104 3 3.47844 3.92442 7.9105
106 3 1.64857 6.12381 5.48253
172 2 3.31323 0.363408 2.94528
170 2 2.78502 1.9251 1.96757
171 2 4.45261 1.00481 1.52262
250 2 3.34096 5.10531 2.32506
173 2 2.47367 2.29126 4.36299
174 2 3.25162 1.60242 5.95069
175 2 2.26765 3.28144 6.03629
176 2 -0.996012 6.31132 1.99147
277 2 6.07608 1.57539 1.68297
27 4 3.02851 6.84678 5.7311
274 1 6.24916 1.07195 0.644194
205 2 4.62678 2.38422 3.75118
26 4 4.68045 4.55845 7.08278
177 2 -2.52301 5.16292 1.5763
203 2 6.15712 1.33949 3.4096
276 2 5.61752 0.0989665 0.439957
63 1 5.75152 2.40405 3.4988
178 2 -1.19635 5.58235 0.241755
247 1 4.49792 5.16992 2.61705
179 2 0.490067 5.96274 7.84335
249 2 4.91386 4.18845 3.00701
107 3 4.21225 5.72931 5.97845
257 3 3.6406 6.11124 0.105609
3 4 0.174937 2.79589 15.7769
233 2 -2.46146 4.76799 12.6578
19 4 5.29031 3.07698 15.9316
20 4 3.62265 2.17295 8.76579
23 4 2.75075 2.73679 13.8596
28 4 4.58246 4.49285 12.1316
100 3 6.12807 0.857517 11.6319
61 1 2.21755 2.36259 9.99848
64 1 2.50932 0.969355 13.2465
83 3 -1.12298 3.15861 9.22354
86 3 -2.62594 6.93471 9.88801
97 3 4.05152 2.71377 14.8911
98 3 1.199 3.1906 14.6236
99 3 5.01541 2.01991 9.47479
108 3 3.12564 3.70468 12.4873
264 1 -1.44361 2.56725 14.8654
190 2 -3.1156 6.96994 13.5019
148 2 0.129296 6.39255 10.6945
269 2 0.358314 2.33867 11.4323
284 2 -1.37146 3.35068 14.0144
181 2 0.430825 5.07086 9.53472
256 1 0.398435 6.80741 15.2047
24 4 6.10834 2.24407 10.6443
197 2 1.82549 1.26388 10.0736
198 2 1.44016 3.02898 9.54218
199 2 2.57275 2.86497 11.0185
267 1 -0.395909 1.4667 11.425
208 2 2.43429 1.00658 12.11
206 2 1.56415 0.692429 13.8079
259 2 0.235272 5.76309 15.7489
260 2 0.86532 6.65612 14.147
232 2 -3.14885 5.75416 11.1499
53 1 0.771224 4.99691 8.36494
268 2 0.0742814 0.52141 11.0296
285 2 -0.888253 1.39306 12.4238
261 2 -0.650463 7.23333 15.226
1 4 -5.53751 13.3981 0.934809
4 4 -5.28903 13.0267 7.56473
12 4 -2.41452 9.33903 1.48539
15 4 -3.08557 8.93583 7.12115
16 4 -4.15969 11.1767 5.28764
30 4 1.53099 8.49792 2.42888
31 4 -1.31039 11.4379 3.89675
216 2 -2.60565 13.5718 7.7278
56 1 -3.44829 8.29748 2.70866
157 2 1.51046 9.5252 6.57285
222 2 -0.883811 12.0212 0.4927
66 1 -0.998832 13.0792 2.98485
67 1 -1.61479 12.9898 7.71695
87 3 -6.54845 12.4043 2.04714
88 3 -3.24738 10.3851 0.661948
90 3 -2.12896 7.70992 6.53288
91 3 -5.6157 11.309 4.32315
92 3 -3.99588 9.67144 5.90117
93 3 -4.49 12.252 6.47112
111 3 0.813258 7.44223 3.31313
112 3 1.62647 8.11464 0.810072
113 3 -1.06275 10.1643 2.53274
114 3 -2.81556 11.5197 4.40404
115 3 -2.30896 10.1476 7.93062
116 3 -0.0794285 11.2068 4.87257
155 2 0.50337 9.88173 2.51383
292 2 -1.37999 12.5345 6.61721
187 2 -3.02818 8.43678 3.71129
189 2 -0.589739 7.85001 0.572302
211 2 1.8839 8.16201 7.43985
212 2 -0.494875 12.9567 1.93697
80 3 -6.80892 13.5049 7.2126
214 2 -2.15588 13.3591 2.87292
287 2 -3.36962 7.19714 2.40575
188 2 -4.51819 8.65843 2.66087
213 2 -0.403081 13.6577 3.77724
57 1 -1.58213 8.19265 0.183389
289 2 -2.35574 7.34315 0.238909
89 3 -4.19455 8.26118 8.02556
215 2 -0.784357 13.6511 8.09474
221 2 -0.0913386 10.3793 0.00788128
11 4 -1.29702 7.73653 10.45
14 4 -4.4602 11.9442 15.7796
17 4 -2.64032 9.40513 12.9334
32 4 -1.53027 11.3388 8.6042
34 4 -1.69081 12.0979 14.567
288 2 -2.1618 9.32481 15.6707
55 1 0.640026 7.78715 9.90574
58 1 -3.53081 7.9603 13.8333
59 1 -3.83748 10.561 12.0458
69 1 -0.838681 12.0509 16.2764
9 4 -4.2398 7.18075 9.19039
224 2 0.130252 9.72473 11.8386
94 3 -1.57256 8.77744 11.6402
95 3 -5.40565 10.9659 14.9305
117 3 -1.90682 10.2507 14.0943
118 3 -0.790199 12.9281 13.6087
119 3 -3.2311 12.5755 14.8325
120 3 -0.281014 11.4017 9.59166
70 1 1.10569 10.3063 11.8346
280 3 -5.20653 13.212 16.4471
156 2 -2.80546 12.4838 9.15235
184 2 -0.553003 8.57507 8.9226
186 2 0.99366 8.62845 10.6315
191 2 -3.29157 8.16699 14.9905
192 2 -4.75866 10.1704 12.6845
193 2 -3.87279 10.2739 10.9722
194 2 -3.47985 11.6182 12.3038
147 2 -5.52332 12.0547 8.85762
255 4 1.65352 7.57113 16.3632
154 2 2.50101 7.56462 10.5844
258 2 1.74844 8.13362 14.7524
207 2 -4.29644 14.0472 13.5281
290 2 -4.62417 8.10036 13.6026
185 2 1.47975 7.59858 9.16368
236 2 11.5492 4.50083 0.706037
21 4 6.65242 3.31098 5.14399
127 3 12.5079 0.84791 6.85477
36 4 9.31373 1.71147 4.89141
252 2 7.44055 6.06389 0.321833
40 4 12.0157 2.00192 5.7853
43 4 10.6508 2.61525 2.24161
54 1 11.4761 5.80302 4.91869
62 1 7.45174 5.00984 4.8944
248 1 6.51516 6.56613 0.803763
74 1 10.9166 4.43336 1.66345
251 2 4.75834 6.10253 3.14311
122 3 7.80709 2.18774 5.41319
125 3 12.4705 1.58149 4.30482
126 3 10.3837 2.32964 6.01799
37 4 10.6223 0.355962 0.200836
133 3 9.65341 2.3809 3.47007
134 3 11.2823 1.35441 1.21094
226 2 9.53573 0.65522 7.91996
235 2 9.43053 3.92797 1.22029
162 2 12.6583 3.57825 6.25889
164 2 12.062 3.6451 2.83882
202 2 7.18675 5.91484 5.56858
2 4 14.0365 1.58667 3.57985
286 2 11.0932 4.86856 5.43908
200 2 7.08535 5.16724 3.79931
201 2 8.58567 4.69802 4.9355
135 3 5.93548 5.09883 8.02956
161 2 9.08424 2.86477 7.63776
234 2 10.81 5.44981 2.10331
204 2 6.0114 3.0534 2.58358
283 2 13.5658 0.64052 1.26221
246 4 4.96687 5.3821 0.752634
275 2 7.39117 0.933591 0.413428
262 1 13.932 0.207007 2.26517
253 2 6.51034 6.47454 2.003
101 3 5.56672 3.92068 0.205549
182 2 11.7318 5.67306 3.76981
183 2 10.9038 6.76291 5.18074
5 4 13.5212 1.94774 10.2385
71 1 10.035 1.42015 8.71758
44 4 6.35285 6.68625 8.50144
39 4 9.0094 2.84691 9.42496
41 4 8.28782 2.43205 14.6158
42 4 11.031 3.62753 11.6336
129 3 8.77788 1.41835 15.7818
29 4 4.1602 7.141 10.6274
72 1 9.27851 4.04115 14.3897
295 2 11.0334 5.51654 12.8554
45 4 8.52514 6.83183 10.6323
138 3 7.66339 6.87155 9.34518
266 2 13.7338 1.52714 14.4457
124 3 7.54094 2.50132 9.91871
128 3 8.36985 1.65187 13.1451
73 1 11.9354 5.14141 12.0915
130 3 6.61464 3.12383 15.1167
131 3 12.2633 2.62947 11.2007
132 3 9.75814 3.99601 10.2086
227 2 10.0812 0.88316 9.87172
76 1 6.31386 6.69269 14.1214
152 2 5.35683 5.04208 13.5251
242 2 5.22039 6.76028 13.6211
163 2 10.2674 3.03811 13.01
165 2 8.90981 5.21709 11.0063
123 3 12.9833 0.718451 9.37378
229 2 9.20387 4.51684 13.3492
230 2 10.3296 3.89089 14.766
231 2 8.67361 4.61409 15.1983
241 2 6.98873 5.85571 13.7447
110 3 4.31172 5.77855 11.309
240 2 6.16723 6.83895 15.3726
228 2 11.0046 1.9259 8.4442
281 2 10.5793 5.7315 8.55214
109 3 5.57583 3.5041 11.4478
265 2 13.1183 2.84056 15.6944
238 2 7.87513 7.56528 6.757
38 4 5.26581 13.5046 8.00639
46 4 3.4645 10.3644 3.35158
68 1 1.43626 12.6286 6.5499
75 1 6.73802 7.52161 6.79228
139 3 3.2507 8.84283 3.06981
140 3 2.68353 10.9122 4.65458
158 2 1.54304 13.5565 4.86565
149 2 6.85664 11.5144 4.1137
151 2 3.33856 7.72759 4.30464
160 2 6.88599 13.1856 7.61418
166 2 3.26758 11.3825 1.99067
167 2 5.11328 10.6902 3.5766
278 1 3.79524 12.0464 0.176964
217 2 1.58193 12.0071 7.66912
218 2 0.573922 13.3336 6.51831
219 2 2.49675 13.0844 6.30479
65 1 2.96536 8.20992 7.16302
263 2 5.34872 13.1178 2.77851
291 2 8.84744 10.2842 0.866832
209 2 3.27647 9.03595 6.38056
239 2 6.19502 8.5776 7.05998
294 2 4.46579 12.1296 1.06814
270 1 6.92526 10.0627 3.18784
271 2 6.43111 9.17627 3.75107
272 2 8.33783 9.55196 2.72448
273 2 6.3117 10.2424 2.29412
282 2 7.17462 13.2441 2.12117
159 2 2.28043 12.3574 0.911801
210 2 3.68731 7.85785 7.97366
195 2 8.38674 8.35141 0.981431
33 4 1.46246 10.9995 5.63908
13 4 8.54674 11.3857 3.27588
60 1 8.45108 9.28818 0.295232
141 3 4.57746 12.0734 8.17584
150 2 10.1109 8.19685 0.142978
254 2 6.27633 7.57601 0.383873
237 2 6.25123 7.11961 5.8553
18 4 8.87675 9.68199 15.2734
168 2 3.49138 9.69869 8.3524
196 2 6.78456 10.0239 16.2329
47 4 3.7599 11.1939 9.20178
48 4 7.01377 8.16511 13.1323
49 4 5.42375 10.7774 11.8447
137 3 9.94578 7.56971 10.3715
35 4 0.962546 11.77 10.589
77 1 5.98924 12.357 12.7111
121 3 0.745358 13.2983 11.4542
136 3 4.85287 7.42393 9.32308
245 2 6.64346 12.1212 13.6818
142 3 2.3312 11.7288 9.74186
279 2 3.11557 11.5976 16.2646
144 3 7.98057 8.86979 14.2276
145 3 4.65845 10.9138 10.4877
146 3 5.50528 9.36842 12.6705
243 2 4.71055 12.4889 13.0106
153 2 4.72926 8.25664 11.8176
244 2 6.40414 13.3097 12.2071
169 2 7.10098 11.3531 11.5234
223 2 2.08451 9.71525 11.6355
22 4 -0.254367 13.9133 12.5463
293 2 3.47148 13.601 15.6604
143 3 7.73937 7.5223 11.9222
225 2 1.1758 10.9985 12.7903
220 2 0.16386 12.6439 15.9882
ITEM: TIMESTEP
300
ITEM: NUMBER OF ATOMS
295
ITEM: BOX BOUNDS xy xz yz pp pp pp
-8.4173399999999994e+00 1.5296146999999999e+01 -7.7743739999999999e+00
0.0000000000000000e+00 1.4189300000000001e+01 -6.4296600000000004e-01
0.0000000000000000e+00 1.6498000000000001e+01 5.8050000000000002e-01
ITEM: ATOMS id type x y z
6 4 0.73788 1.50102 6.00625
7 4 -0.0272836 3.96324 1.91165
8 4 -0.62637 3.85973 7.89027
10 4 -2.11465 6.11667 5.8516
25 4 0.557574 6.12502 4.12047
105 3 5.37766 3.31818 6.08102
50 1 3.12495 0.716517 2.0953
51 1 2.311 2.22891 5.371
52 1 -1.41104 5.15725 1.41733
172 2 3.24312 0.140011 3.06468
79 3 0.0569084 1.00905 4.70245
257 3 3.83061 6.30637 0.0392973
81 3 -0.732878 2.67719 2.66838
82 3 0.589038 3.49992 0.480622
84 3 0.0533817 2.79295 6.94128
85 3 -2.00498 4.91992 6.87642
96 3 3.1349 0.832582 7.84225
102 3 1.00061 4.9243 3.03962
103 3 -1.01018 5.8753 4.50904
104 3 3.44966 3.81935 7.72509
106 3 1.60673 6.09554 5.62564
275 2 7.09275 0.754395 0.289177
170 2 2.48149 1.64536 2.26026
171 2 4.19943 0.904551 1.60508
250 2 3.32188 5.40352 2.62167
173 2 2.16688 2.21319 4.20867
174 2 3.28918 1.61703 5.72035
175 2 2.31204 3.27468 5.74599
176 2 -1.19476 6.07603 1.95946
277 2 5.87767 1.45271 1.77558
27 4 2.97827 6.82692 5.67921
274 1 5.9622 1.05997 0.633241
205 2 4.55779 2.49385 3.76282
26 4 4.6861 4.48839 7.01103
177 2 -2.47191 4.84976 1.45831
203 2 6.11957 1.29171 3.45807
276 2 5.14287 0.216298 0.345234
63 1 5.6654 2.42765 3.51652
178 2 -1.11785 5.20982 0.285452
247 1 4.47178 5.2859 2.75594
179 2 0.420048 5.89643 7.95299
249 2 4.78675 4.26732 3.10432
107 3 4.16954 5.79638 6.05147
180 2 1.87121 4.52387 8.02711
204 2 5.84313 3.0355 2.5533
3 4 0.163833 2.91351 15.7971
233 2 -2.30633 4.72663 12.8481
19 4 5.21036 3.04173 15.8718
20 4 3.56838 2.13485 8.68344
23 4 2.76716 2.73192 13.9655
28 4 4.48704 4.65122 12.1366
100 3 6.22406 0.872954 11.7269
61 1 2.28148 2.33064 10.0395
64 1 2.52075 1.03865 13.2008
83 3 -1.3365 3.18825 9.13662
86 3 -2.60429 6.99893 9.89937
97 3 4.04222 2.64614 14.9247
98 3 1.41618 3.16105 14.6809
99 3 4.85073 1.89388 9.58288
108 3 3.1293 3.83606 12.3963
264 1 -1.49615 2.52869 14.9778
190 2 -3.01482 7.06207 13.8001
148 2 0.154969 6.74772 11.0795
269 2 0.270718 2.56328 11.4914
284 2 -1.52259 3.39016 14.1915
181 2 0.718689 4.75777 9.58041
256 1 0.485179 6.90234 15.1656
24 4 5.98624 2.28139 10.6322
197 2 1.89851 1.30939 10.3583
198 2 1.50089 2.95703 9.47422
199 2 2.66245 2.9641 11.0007
267 1 -0.471916 1.70416 11.4544
208 2 2.29785 1.06312 12.1001
206 2 1.5766 0.719483 13.7931
259 2 0.319761 5.85172 15.9257
260 2 1.09039 6.64678 14.226
232 2 -2.89254 5.84393 11.4058