ITEM: TIMESTEP
0
ITEM: NUMBER OF ATOMS
295
ITEM: BOX BOUNDS xy xz yz pp pp pp
-8.3339999999999996e+00 1.5144700000000000e+01 -7.6974000000000000e+00
0.0000000000000000e+00 1.4189300000000001e+01 -6.3660000000000005e-01
0.0000000000000000e+00 1.6662980000000001e+01 5.8050000000000002e-01
ITEM: ATOMS id type x y z
6 4 0.873668 1.49834 5.73086
7 4 -0.155869 4.13679 1.98947
8 4 -0.389462 3.82698 7.94428
10 4 -1.89357 6.30262 5.88676
25 4 0.614628 6.2269 4.07551
27 4 3.02932 6.99526 5.84225
50 1 2.99812 1.04363 1.95315
51 1 2.55762 2.07766 5.21257
52 1 -1.49549 5.33934 1.43491
78 3 0.869484 0.572058 0.255202
79 3 0.025014 1.23171 4.44606
180 2 1.86822 4.64732 8.31016
81 3 -1.03349 3.00396 2.74589
82 3 0.644528 3.62002 0.56892
84 3 0.362846 2.71866 6.90518
85 3 -1.7882 4.76563 7.04222
96 3 3.14067 0.810321 8.02465
102 3 0.913781 4.84128 3.22072
103 3 -0.993598 6.2403 4.53207
104 3 3.35586 3.82438 8.04459
106 3 1.55559 6.46285 5.48764
172 2 3.02649 0.383361 2.96224
170 2 2.31556 1.99468 1.89348
171 2 4.08061 1.11336 1.38133
250 2 2.76826 4.90784 2.67221
173 2 2.41831 2.26066 4.06044
174 2 3.26088 1.20393 5.48301
175 2 2.84384 3.03577 5.77129
176 2 -1.31012 6.3308 1.97746
277 2 5.85202 1.63643 1.71934
276 2 5.33218 0.372307 0.267797
274 1 6.04202 1.21158 0.626844
205 2 4.4749 2.26026 3.94193
26 4 4.493 4.55776 7.22835
177 2 -2.6468 5.05186 1.53732
203 2 6.07334 1.21116 3.42825
204 2 5.73835 3.06129 2.72202
63 1 5.57924 2.33555 3.61311
178 2 -1.21871 5.41829 0.304149
247 1 3.9289 4.9326 2.56965
179 2 0.439087 6.00484 7.72686
249 2 4.57365 3.96085 2.96168
107 3 3.94626 5.87366 6.36322
105 3 5.34665 3.50851 6.26501
3 4 0.0617235 2.92015 16.1057
9 4 -3.97392 7.09564 9.45333
19 4 5.18987 3.1919 15.9444
20 4 3.43572 2.21737 8.91163
23 4 2.78007 2.65385 14.0844
28 4 4.52189 4.5321 12.2724
100 3 6.15645 0.789432 11.4243
61 1 2.05072 2.25302 10.2379
64 1 2.57501 0.881661 13.5072
83 3 -0.746002 3.19184 9.4331
86 3 -2.31265 6.82206 9.97706
97 3 3.98944 2.64712 15.1117
98 3 1.23709 2.94202 14.9609
99 3 4.7161 2.23279 9.80138
108 3 3.13274 3.67202 12.6205
264 1 -1.57612 2.89194 15.2703
190 2 -3.48341 7.18011 13.5139
148 2 0.386068 6.5326 10.708
269 2 0.153625 2.0258 12.1725
284 2 -1.27264 3.04471 14.1483
181 2 0.395118 5.32238 9.51098
53 1 0.774909 5.18588 8.40453
257 3 2.782 6.84338 16.5297
197 2 2.0191 1.0854 10.4389
198 2 1.01019 2.66665 9.9699
199 2 2.53736 2.84311 11.1654
267 1 -0.74376 1.26425 12.0375
208 2 2.87999 0.92274 12.3992
206 2 1.51262 0.582599 13.7397
259 2 0.150242 6.10683 15.8785
260 2 0.570703 6.81203 14.0959
232 2 -2.98122 5.92661 11.5751
233 2 -2.64017 4.8628 13.2383
265 2 -2.22885 3.73638 15.6668
256 1 0.226406 7.14129 15.1422
215 2 6.59711 0.412214 8.35627
1 4 -5.78125 13.3835 1.03942
4 4 -5.3179 13.0757 7.59062
12 4 -2.3482 9.35427 1.40791
15 4 -2.98058 9.01623 7.32447
16 4 -4.02992 11.1066 5.46521
30 4 1.6187 8.59962 2.32809
31 4 -1.21529 11.276 3.71663
216 2 -2.93569 13.6982 7.91031
56 1 -3.88704 8.58852 2.40114
157 2 1.45366 9.46684 6.57956
222 2 -0.890821 11.8559 0.441302
66 1 -0.940353 12.9583 2.95826
67 1 -1.81247 13.2927 7.88727
87 3 -6.6144 12.3663 2.35051
88 3 -3.10325 10.4101 0.474147
90 3 -1.8996 7.88779 6.82029
91 3 -5.25961 11.352 4.42772
92 3 -3.95305 9.52136 6.0376
93 3 -4.2933 12.1145 6.80753
111 3 0.946755 7.4516 3.13785
112 3 1.71292 8.24299 0.781095
113 3 -1.2632 9.95281 2.39418
114 3 -2.58621 11.3772 4.53473
115 3 -2.14676 10.2657 8.00733
116 3 0.11046 11.1487 4.76483
155 2 0.455578 9.82436 2.40635
292 2 -1.37492 12.8033 6.72668
187 2 -3.9338 9.02232 3.42897
189 2 -0.641386 7.81529 0.684844
211 2 1.73011 8.47153 7.76231
212 2 -0.401314 12.7632 1.94483
80 3 -6.68808 13.3933 6.74799
214 2 -1.98486 13.2647 2.70066
287 2 -3.51889 7.54452 2.35379
188 2 -4.78803 8.80004 1.79603
213 2 -0.382458 13.6307 3.64723
57 1 -1.59271 8.13347 0.116545
280 3 -4.87661 12.4225 0.11281
11 4 -1.05327 7.58648 10.5104
14 4 -4.52983 11.9642 16.0063
17 4 -2.35612 9.45759 12.8283
32 4 -1.47651 11.5304 8.62452
34 4 -1.79989 12.1031 14.7303
288 2 -1.93064 9.31907 15.7878
55 1 0.616206 8.06319 9.64303
58 1 -3.52053 8.2297 13.8255
59 1 -3.23333 10.4547 11.5036
69 1 -0.813147 11.9937 16.348
261 2 -0.647919 7.77494 15.1198
224 2 0.297781 9.59571 11.9022
94 3 -1.23885 8.51621 11.9924
95 3 -5.50968 10.9265 14.9636
117 3 -1.86296 10.4124 14.0348
118 3 -1.08834 13.1357 13.6697
119 3 -3.32157 12.6863 15.181
120 3 -0.193479 11.3404 9.55331
89 3 -3.96001 8.44952 8.63457
154 2 2.24439 7.29516 10.3629
156 2 -2.74456 12.5035 9.41204
184 2 -0.618242 8.75893 8.85678
186 2 0.937422 9.00148 10.4334
191 2 -3.05303 8.4344 14.9353
192 2 -4.15836 9.68173 11.4695
193 2 -2.77769 10.4975 10.4152
194 2 -3.58149 11.4511 11.8704
147 2 -5.9064 12.3216 9.02545
255 4 1.58884 7.86675 16.2801
221 2 -0.503849 10.9519 16.5502
258 2 1.50625 8.47308 14.5996
207 2 -4.38182 13.8499 14.1877
290 2 -4.46861 8.80811 13.586
185 2 1.45323 7.77628 8.869
70 1 1.22218 10.3242 11.8903
289 2 -2.96714 7.84822 16.6117
268 2 -8.04811 13.8589 11.9293
220 2 0.000519631 12.747 16.089
236 2 11.2628 4.0526 0.71643
21 4 6.54026 3.08239 5.20297
127 3 12.3848 0.839061 7.04703
36 4 9.16577 1.667 5.02889
252 2 7.03774 6.34533 0.59595
40 4 11.9606 1.95386 5.97314
43 4 10.216 2.53279 2.34469
54 1 11.5883 6.01063 5.14087
62 1 7.45781 4.66546 5.06757
248 1 6.01149 6.72149 0.93549
74 1 10.5556 4.39324 1.59141
251 2 4.39514 5.90957 2.97841
122 3 7.73155 1.81384 5.70439
125 3 12.4297 1.56962 4.5193
126 3 10.3755 2.28914 5.94392
37 4 10.3521 0.365518 0.124565
133 3 9.10282 2.25411 3.45967
134 3 10.6583 1.48586 1.30249
226 2 9.56736 0.455828 8.09341
235 2 9.34653 4.31254 1.25095
162 2 12.7456 3.48831 6.27765
164 2 11.5465 3.5082 3.01206
202 2 7.15528 5.64795 5.77937
2 4 13.798 1.55323 3.61428
286 2 11.1856 5.23603 5.87968
200 2 7.16667 4.80273 3.91996
201 2 8.51666 4.17387 5.26874
253 2 5.89517 6.74847 2.09124
161 2 9.15545 2.66329 7.75204
234 2 10.792 5.43644 1.90949
135 3 5.83437 5.09952 8.30755
283 2 13.6142 0.907655 1.2651
246 4 4.59036 5.41781 0.709749
237 2 6.22743 6.88832 5.98791
262 1 13.666 0.243791 2.17112
182 2 11.7622 5.59503 4.08115
101 3 5.30086 4.13091 0.130969
275 2 7.14207 1.0135 0.489426
281 2 10.7523 5.91149 8.31694
183 2 11.0127 6.96937 5.14132
5 4 13.5338 1.90162 10.4931
71 1 9.89062 1.30779 8.91016
44 4 6.34845 6.47801 8.76474
39 4 8.92433 2.84273 9.49109
41 4 8.04306 2.38138 14.6248
42 4 11.1246 3.68026 11.739
129 3 8.56791 1.33914 15.6806
29 4 3.95747 7.07272 10.6603
72 1 9.36865 3.77283 14.5445
295 2 10.7474 5.62281 12.9722
45 4 8.575 6.60896 10.886
138 3 7.73707 6.7396 9.5939
266 2 13.2097 1.80268 15.5098
124 3 7.46989 2.61307 9.9563
128 3 8.22239 1.60906 13.2027
73 1 11.7555 5.22369 12.4411
130 3 6.6146 3.22161 15.1779
131 3 12.2765 2.85876 11.108
132 3 9.78726 3.93666 10.2789
227 2 9.82988 0.765985 9.987
76 1 6.04745 6.8054 14.3929
152 2 5.21922 5.11985 13.742
242 2 4.98992 6.91131 13.8329
163 2 10.3541 2.794 13.0425
165 2 8.74477 4.91236 11.0638
123 3 13.2658 0.590171 9.49232
229 2 9.31842 4.30544 13.5551
230 2 10.3694 3.30629 14.7965
231 2 9.03432 4.44868 15.4015
241 2 6.76614 5.89598 14.1167
110 3 4.1685 5.7234 11.3857
240 2 5.9359 7.00087 15.55
228 2 10.9819 1.74169 8.82518
137 3 10.057 7.11028 10.6295
24 4 6.04517 2.37928 10.7537
285 2 13.651 1.36642 12.8352
109 3 5.74607 3.57498 11.8501
150 2 9.3737 8.46795 0.217736
38 4 5.41057 13.481 8.03103
46 4 3.53531 10.4568 3.41964
68 1 1.52554 12.5985 6.66757
75 1 6.71562 7.18718 7.00924
139 3 3.33999 8.88761 3.07362
140 3 2.79476 10.933 4.72918
158 2 1.62849 13.5815 4.91468
149 2 6.97977 11.3054 4.60917
151 2 3.65114 7.92771 4.54209
160 2 6.9887 13.2015 7.45489
166 2 3.29371 11.4146 1.9834
167 2 5.22061 10.5512 3.88829
278 1 3.55113 12.1387 0.160781
217 2 1.65593 12.0691 7.71129
218 2 0.507329 13.1681 6.53975
219 2 2.42387 13.1632 6.4018
254 2 5.73246 7.65972 0.387138
263 2 5.04875 13.1773 2.41389
291 2 8.80586 10.3788 1.06183
209 2 3.27707 9.19327 6.64157
239 2 6.37299 8.28436 7.21177
294 2 4.38539 11.6462 0.671173
270 1 7.07661 9.93507 3.60547
271 2 6.69133 9.01396 4.1498
272 2 8.50711 9.56608 2.95157
273 2 6.4729 10.2568 2.68998
282 2 6.96368 13.3622 2.2083
159 2 2.12858 12.3788 1.12858
210 2 3.59938 7.9626 8.12322
195 2 7.33436 9.17155 0.633585
33 4 1.44835 10.942 5.67923
13 4 8.60287 11.3237 3.54394
60 1 8.07742 9.94142 0.258726
141 3 4.77146 12.0543 8.12042
65 1 2.84637 8.31329 7.31509
238 2 7.89062 7.14766 6.94288
18 4 8.44656 9.95356 15.393
225 2 1.46166 10.7609 12.9121
196 2 6.89491 11.3891 16.2365
47 4 3.99611 11.1525 9.21695
48 4 6.88754 8.06313 13.2507
49 4 5.52854 10.6373 11.8897
168 2 3.79464 9.69168 8.41996
35 4 1.15651 11.8054 10.6819
77 1 5.37986 12.0507 13.1532
121 3 0.864926 12.9568 11.6885
136 3 4.72325 7.31139 9.37489
245 2 5.87758 11.727 14.1696
142 3 2.58111 11.6645 9.76287
279 2 2.58242 12.0738 15.9753
144 3 7.72681 9.04496 14.2824
145 3 4.80155 10.9551 10.5514
146 3 5.58537 9.09723 12.3627
243 2 4.16508 11.9515 13.1931
153 2 4.2789 8.3392 11.6952
244 2 5.77512 13.1544 12.7219
169 2 6.97661 11.5984 12.0751
223 2 2.15601 9.82748 11.3519
22 4 -0.384994 13.8953 12.4521
293 2 3.68766 13.9876 15.9215
143 3 7.75535 7.24551 12.1405
ITEM: TIMESTEP
100
ITEM: NUMBER OF ATOMS
295
ITEM: BOX BOUNDS xy xz yz pp pp pp
-8.3339999999999996e+00 1.5144700000000000e+01 -7.6974000000000000e+00
0.0000000000000000e+00 1.4189300000000001e+01 -6.3660000000000005e-01
0.0000000000000000e+00 1.6662980000000001e+01 5.8050000000000002e-01
ITEM: ATOMS id type x y z
6 4 0.822628 1.54992 6.01562
7 4 -0.151191 4.10985 2.0431
8 4 -0.527718 3.79957 7.96562
10 4 -2.10644 6.24332 5.84441
25 4 0.642444 6.20411 4.18521
105 3 5.26612 3.38235 6.28863
50 1 3.17511 1.11327 1.77111
51 1 2.48032 2.01379 5.29856
52 1 -1.34569 5.44004 1.36342
78 3 1.06446 0.91979 0.117074
79 3 0.0313938 1.34652 4.75849
180 2 1.78129 4.75138 8.03329
81 3 -1.16594 3.1146 2.62614
82 3 0.406474 3.42792 0.669669
84 3 0.121322 2.62453 6.98588
85 3 -1.83893 4.69332 7.00467
96 3 3.16664 0.829226 8.04731
102 3 1.10689 4.8597 3.11178
103 3 -0.94322 6.12537 4.66854
104 3 3.39785 3.83181 7.92636
106 3 1.5598 6.36166 5.55489
172 2 3.2167 0.733649 2.83556
170 2 2.52453 2.03165 1.68928
171 2 4.2574 1.1815 1.27613
250 2 2.96805 4.95306 2.63913
173 2 2.28726 2.06945 4.11509
174 2 3.15656 1.19266 5.61824
175 2 2.63352 3.03187 5.79191
176 2 -1.11166 6.43071 1.83987
277 2 6.08116 1.76563 1.60008
276 2 5.58157 0.376012 0.258296
274 1 6.23789 1.31144 0.523117
205 2 4.66758 2.51154 3.63673
26 4 4.66243 4.4905 7.23601
177 2 -2.4782 5.09962 1.50045
203 2 6.08251 1.30935 3.38256
257 3 3.54054 6.20453 0.105201
63 1 5.78162 2.40345 3.52164
178 2 -1.0137 5.47013 0.310471
247 1 4.13753 4.99787 2.58134
179 2 0.385256 5.85949 7.45387
249 2 4.66693 4.05153 2.95706
53 1 0.776949 5.12129 8.24849
27 4 2.98255 6.95681 5.91711
3 4 0.125167 2.85526 16.0059
256 1 0.221845 6.98094 15.246
19 4 5.26255 3.18774 15.8279
20 4 3.55291 2.19435 8.86282
23 4 2.71138 2.66208 14.0352
28 4 4.59728 4.45665 12.3567
100 3 6.15602 0.775746 11.6463
61 1 2.21052 2.27421 10.1763
64 1 2.6339 0.871297 13.425
83 3 -0.783803 3.12797 9.45456
86 3 -2.48669 6.88845 9.90597
97 3 3.9751 2.62616 15.0457
98 3 1.21869 3.22151 14.8852
99 3 4.9286 2.06025 9.60171
108 3 3.12552 3.62739 12.6564
264 1 -1.56851 2.66444 15.2098
190 2 -3.30313 7.02517 13.3356
148 2 0.330181 6.66734 10.5576
269 2 0.259724 1.83991 11.7004
284 2 -1.28142 2.40089 14.1147
181 2 0.696028 5.39058 9.35629
233 2 -2.42778 4.85981 12.9205
265 2 -2.12424 3.69304 15.2729
197 2 2.15647 1.19366 10.4914
198 2 1.21822 2.63263 9.76993
199 2 2.51578 2.9484 11.0815
267 1 -0.667658 1.16216 11.7495
208 2 2.92018 1.07122 12.2849
206 2 1.54213 0.607134 13.5185
259 2 0.0368782 6.04715 16.1642
260 2 0.595666 6.47784 14.3348
232 2 -3.01635 5.91098 11.4716
1 4 -5.72502 13.4269 1.03909
4 4 -5.24934 13.132 7.60155
12 4 -2.42273 9.40279 1.50131
15 4 -3.10636 8.96135 7.21201
16 4 -4.08995 11.1886 5.45331
30 4 1.56787 8.52089 2.33293
31 4 -1.26896 11.3669 3.91864
216 2 -2.56995 13.7944 7.82952
56 1 -3.75173 8.56672 2.70322
157 2 1.39779 9.45032 6.34213
222 2 -1.04084 11.5252 0.615108
66 1 -1.08738 12.9999 2.96569
67 1 -1.55793 13.2555 7.9163
87 3 -6.57987 12.408 2.32365
88 3 -3.18541 10.4044 0.591228
90 3 -2.15507 7.57335 6.59007
91 3 -5.40967 11.1747 4.56324
92 3 -3.93447 9.51211 5.98465
93 3 -4.25907 12.3835 6.56138
111 3 0.973213 7.35066 3.17094
112 3 1.83407 8.18861 0.742226
113 3 -1.11113 10.1677 2.56297
114 3 -2.64877 11.4574 4.675
115 3 -2.12285 10.2273 7.95039
116 3 0.00463018 11.0821 4.79725
155 2 0.463303 9.84346 2.41148
292 2 -1.26176 12.8661 6.79003
187 2 -3.85815 9.18877 3.60666
189 2 -0.779559 7.83536 0.744253
211 2 1.6857 8.3481 7.70942
212 2 -0.449067 12.9739 2.05355
80 3 -6.71465 13.3737 6.97369
214 2 -2.13645 13.3702 2.82006
287 2 -3.31031 7.54118 2.9148
188 2 -4.7195 8.48952 2.08901
289 2 -2.50586 7.36829 0.0713286
57 1 -1.72174 8.18464 0.205347
280 3 -4.79801 12.4463 0.226253
213 2 -0.55368 13.558 3.82227
89 3 -4.21926 8.39291 8.24964
11 4 -1.26994 7.67443 10.511
14 4 -4.51205 11.8745 16.1318
17 4 -2.34599 9.34064 12.9048
32 4 -1.54968 11.5222 8.66863
34 4 -1.75772 12.0475 14.7742
288 2 -2.11995 9.35999 15.938
55 1 0.674038 8.01347 9.81614
58 1 -3.41244 8.10741 13.8531
59 1 -3.51202 10.36 11.6364
69 1 -0.88289 12.0204 16.4401
261 2 -0.658461 7.72794 14.9867
224 2 0.168116 9.71238 11.7808
94 3 -1.38563 8.53046 11.8333
95 3 -5.34318 10.8991 15.0987
117 3 -1.77766 10.3431 14.0449
118 3 -0.754631 12.8899 13.7465
119 3 -3.26504 12.7212 15.0648
120 3 -0.3316 11.3752 9.65778
154 2 2.34727 7.28921 10.4832
220 2 -0.192945 12.981 16.3082
156 2 -2.73007 12.6192 9.31477
184 2 -0.668551 8.77954 9.05334
186 2 1.10854 8.8131 10.5166
191 2 -3.04574 8.20817 15.0204
192 2 -4.39114 9.64709 11.7797
193 2 -3.15378 10.4493 10.565
194 2 -3.74144 11.3644 12.0748
147 2 -5.27976 12.0863 8.96538
255 4 1.60964 7.63302 16.3516
221 2 -0.281524 11.0801 16.4215
258 2 1.50835 8.25339 14.6893
207 2 -4.38133 13.8075 14.046
290 2 -4.49299 8.549 13.7266
185 2 1.39616 7.79405 8.98745
70 1 1.22283 10.3295 11.9502
9 4 -4.10376 7.1489 9.29508
215 2 -0.692313 13.8439 8.46396
236 2 11.314 4.11039 0.675657
21 4 6.54081 3.08657 5.31464
127 3 12.3153 0.857244 7.04962
36 4 9.17507 1.64295 5.01721
252 2 7.21955 6.05132 0.536802
40 4 11.973 1.91136 5.86516
43 4 10.3417 2.61643 2.2625
54 1 11.336 6.24013 5.1507
62 1 7.44802 4.71431 4.91235
248 1 6.27504 6.6161 0.679612
74 1 10.6892 4.39134 1.51792
251 2 4.59447 5.94137 3.06897
122 3 7.66239 2.00407 5.74897
125 3 12.5118 1.55346 4.42474
126 3 10.4273 2.17112 5.83446
37 4 10.4598 0.305045 0.291812
133 3 9.31302 2.14062 3.51106
134 3 10.95 1.39048 1.4266
226 2 9.74576 0.451838 8.08387
235 2 9.16932 3.87605 1.19358
162 2 12.6704 3.54195 6.31229
164 2 11.5799 3.8757 2.9333
202 2 7.13981 5.66639 5.61886
2 4 13.8337 1.63195 3.54443
286 2 10.9218 5.31854 5.74247
200 2 7.07624 4.80789 3.85634
201 2 8.57329 4.48754 4.91666
238 2 7.94753 6.78877 6.80506
161 2 9.2294 2.78509 7.77532
234 2 10.6431 5.50557 1.68604
204 2 6.20196 3.06507 2.71315
283 2 13.418 0.820663 1.28215
246 4 4.78121 5.42671 0.802275
275 2 7.29487 1.07505 0.320146
262 1 13.6992 0.262979 2.2244
182 2 11.6053 5.98047 4.04535
101 3 5.31913 3.9998 0.172114
107 3 4.11702 5.96233 6.36475
5 4 13.403 1.98467 10.4064
71 1 9.91696 1.37133 8.87222
44 4 6.27937 6.72058 8.62823
39 4 8.93224 2.86933 9.53795
41 4 8.0333 2.41236 14.656
42 4 11.0369 3.68577 11.5879
129 3 8.81657 1.42649 15.8745
29 4 4.05859 7.03219 10.6782
72 1 9.33588 3.86597 14.5506
295 2 10.9617 5.69735 12.8312
45 4 8.57136 6.78329 10.8304
138 3 7.49557 6.73816 9.59049
266 2 12.9988 1.85368 15.7451
124 3 7.47023 2.55611 9.97694
128 3 8.07316 1.73068 13.1138
73 1 11.7965 5.22399 12.2763
130 3 6.64159 3.19131 14.9881
131 3 12.1232 2.64141 11.1224
132 3 9.94083 4.08567 10.2447
227 2 9.83374 0.907701 10.0573
76 1 5.87934 6.89654 14.1303
152 2 5.05776 5.13621 13.9213
242 2 4.90385 6.92348 13.5593
163 2 10.0516 3.03599 12.8997
165 2 8.68283 5.12995 11.0757
123 3 13.0286 0.777325 9.46892
229 2 8.91577 4.36564 13.6385
230 2 10.4636 3.77704 14.4617
231 2 9.05124 4.55027 15.4268
241 2 6.61851 5.98167 13.8789
110 3 4.38245 5.708 11.4537
240 2 5.73177 7.09266 15.3291
228 2 10.9451 1.70289 8.60867
281 2 10.7049 5.70639 8.53639
109 3 5.75558 3.47051 11.8475
285 2 14.0804 1.1463 12.7497
135 3 5.79463 5.09646 8.36266
24 4 6.07986 2.33878 10.72
65 1 2.80878 8.3258 7.30547
38 4 5.28937 13.5216 8.15491
46 4 3.52648 10.3812 3.50502
68 1 1.67412 12.4938 6.81663
75 1 6.89185 7.28815 6.90513
139 3 3.1747 8.88104 3.13271
140 3 2.69719 10.9997 4.63553
158 2 1.55472 13.5866 5.12756
149 2 6.95189 11.2845 4.55573
151 2 3.48431 7.7617 4.49463
160 2 6.91805 13.1942 7.64682
166 2 3.48662 11.4649 2.20769
167 2 5.24129 10.429 3.81931
278 1 3.54062 12.0001 0.313316
217 2 1.48852 11.6721 7.74108
218 2 0.909012 13.3566 6.86179
219 2 2.77267 12.8377 6.62667
254 2 6.15408 7.51696 0.0728248
263 2 5.14069 13.2553 2.62725
291 2 8.65717 10.4943 0.802709
209 2 3.16457 9.16327 6.57411
239 2 7.03674 8.4008 7.15613
294 2 4.53675 12.068 0.872782
270 1 7.0611 9.84913 3.38362
271 2 6.53124 8.98811 3.7892
272 2 8.46311 9.46918 2.7069
273 2 6.46181 10.2575 2.55392
282 2 7.08478 13.3188 2.15297
159 2 2.20825 12.1805 1.09027
210 2 3.67864 7.98561 8.20258
195 2 8.17645 8.72211 0.941656
33 4 1.44611 10.9875 5.58052
13 4 8.51272 11.2523 3.54977
60 1 8.29938 9.60926 0.257282
141 3 4.52448 12.1646 8.22078
253 2 6.16766 6.95237 1.79201
183 2 10.7174 7.19999 5.27564
237 2 6.32397 7.11183 5.94759
18 4 8.61253 9.81075 15.3122
225 2 1.21782 10.9659 12.8606
196 2 6.66716 10.5084 16.2758
47 4 3.74603 11.2525 9.24471
48 4 6.90719 8.17389 13.1647
49 4 5.39843 10.6851 11.939
168 2 3.57542 9.69207 8.57664
35 4 1.02674 11.7099 10.5482
77 1 5.65913 12.0793 13.1841
121 3 0.741345 13.0648 11.4707
136 3 4.71389 7.46099 9.36496
245 2 6.1621 11.7519 14.0865
142 3 2.34609 11.7649 9.73341
279 2 2.87949 11.7539 16.2067
144 3 7.80495 9.03855 14.203
145 3 4.70607 10.952 10.5489
146 3 5.40052 9.25932 12.6189
243 2 4.42578 12.1609 13.3748
153 2 4.33909 8.2108 11.806
244 2 6.08319 13.0299 12.6951
169 2 7.02387 11.2924 11.9771
223 2 2.15289 9.76542 11.7517
22 4 -0.167744 13.9295 12.444
293 2 3.50103 13.9561 15.8812
143 3 7.84005 7.38151 12.1324
268 2 6.98997 13.7279 11.3686
137 3 10.0236 7.40503 10.5898
150 2 8.90947 8.70924 16.6209
ITEM: TIMESTEP
200
ITEM: NUMBER OF ATOMS
295
ITEM: BOX BOUNDS xy xz yz pp pp pp
-8.3339999999999996e+00 1.5144700000000000e+01 -7.6974000000000000e+00
0.0000000000000000e+00 1.4189300000000001e+01 -6.3660000000000005e-01
0.0000000000000000e+00 1.6662980000000001e+01 5.8050000000000002e-01
ITEM: ATOMS id type x y z
6 4 0.812144 1.49622 6.03491
7 4 -0.0916244 4.18868 1.94537
8 4 -0.579527 3.85242 7.92938
10 4 -2.18236 6.13865 5.82614
25 4 0.670446 6.10265 4.15438
105 3 5.31214 3.44379 6.25093
50 1 3.26696 0.93668 1.93598
51 1 2.47764 2.23615 5.59692
52 1 -1.3587 5.46154 1.43689
78 3 1.07532 0.809133 0.126419
79 3 -0.0130495 1.2005 4.65353
180 2 1.89568 4.59457 8.19303
81 3 -1.04192 2.97579 2.87797
82 3 0.614629 3.60521 0.566331
84 3 0.146838 2.72288 6.98743
85 3 -2.05334 4.748 7.07526
96 3 3.17945 0.75382 8.14331
102 3 0.980822 4.76066 3.06963
103 3 -1.08495 5.96642 4.67173
104 3 3.47005 3.93692 8.03238
106 3 1.644 6.17136 5.4593
172 2 3.26859 0.396853 2.97044
170 2 2.74613 1.94125 1.99958
171 2 4.41472 1.02958 1.53272
250 2 3.38103 5.2227 2.38166
173 2 2.4462 2.23672 4.42719
174 2 3.3158 1.5891 6.0513
175 2 2.28202 3.27386 6.11999
176 2 -0.996174 6.32627 2.07417
277 2 6.03634 1.60172 1.70266
276 2 5.58463 0.172558 0.430654
274 1 6.20219 1.09344 0.635107
205 2 4.55502 2.46944 3.70747
26 4 4.63046 4.56295 7.15143
177 2 -2.50846 5.17686 1.6495
203 2 6.08897 1.4059 3.42356
257 3 3.62116 6.11912 0.0922968
63 1 5.69442 2.45409 3.48526
178 2 -1.20347 5.63034 0.326583
247 1 4.50859 5.23577 2.61553
179 2 0.546487 5.99166 7.77577
249 2 4.89064 4.29017 3.05415
107 3 4.11747 5.78723 6.09483
27 4 2.99648 6.89268 5.79183
3 4 0.137133 2.79813 15.9672
256 1 0.365894 6.82843 15.3881
19 4 5.26407 3.07609 16.0752
20 4 3.55406 2.16619 8.88027
23 4 2.70634 2.72702 13.9918
28 4 4.49486 4.49174 12.2126
100 3 6.05475 0.869761 11.7607
61 1 2.17138 2.33401 10.1444
64 1 2.47642 0.937817 13.434
83 3 -1.05337 3.22829 9.30048
86 3 -2.54458 6.93895 10.0038
97 3 4.02263 2.73363 15.0212
98 3 1.14359 3.17411 14.7762
99 3 4.93424 2.01957 9.61795
108 3 3.0844 3.64473 12.6439
264 1 -1.50491 2.60635 15.0878
190 2 -2.96431 7.00792 13.5642
148 2 0.190234 6.59988 10.6142
269 2 0.397941 2.27468 11.5908
284 2 -1.49677 3.28291 14.166
181 2 0.417574 5.24195 9.48569
233 2 -2.4185 4.7869 12.7888
24 4 6.04843 2.24809 10.7628
197 2 1.84677 1.19659 10.1656
198 2 1.36779 2.96133 9.70034
199 2 2.51637 2.82751 11.1692
267 1 -0.406443 1.41636 11.549
208 2 2.38326 0.964957 12.3132
206 2 1.53739 0.667512 13.9978
259 2 0.219122 5.83663 15.8714
260 2 0.816537 6.69279 14.3143
232 2 -3.01541 5.84143 11.2364
268 2 0.0157484 0.480468 10.9774
285 2 -0.786331 1.20895 12.5827
261 2 -0.662595 7.28661 15.4334
53 1 0.788984 5.06552 8.33756
1 4 -5.50491 13.3953 0.9497
4 4 -5.23234 13.0266 7.63784
12 4 -2.42979 9.34931 1.51672
15 4 -3.06602 8.93541 7.17762
16 4 -4.12856 11.1982 5.35489
30 4 1.50731 8.48181 2.45974
31 4 -1.29003 11.4128 3.89008
89 3 -4.13168 8.19673 8.07449
56 1 -3.47665 8.33328 2.73707
157 2 1.45916 9.50682 6.61157
222 2 -0.739026 11.9078 0.479442
66 1 -1.04195 13.1097 3.0253
67 1 -1.52736 12.9931 7.78036
87 3 -6.48521 12.3905 2.07801
88 3 -3.20398 10.3854 0.635914
90 3 -2.0958 7.72835 6.58557
91 3 -5.58552 11.2905 4.38284
92 3 -4.00427 9.69969 5.99875
93 3 -4.37755 12.3116 6.51351
111 3 0.783328 7.43828 3.34044
112 3 1.61363 8.09225 0.851042
113 3 -1.08315 10.216 2.61405
114 3 -2.78995 11.4674 4.41841
115 3 -2.31167 10.1429 7.99118
116 3 -0.00758846 11.2094 4.9396
155 2 0.489437 9.86441 2.51598
292 2 -1.10062 12.4046 6.72015
187 2 -3.17668 8.57115 3.75244
189 2 -0.715283 7.76252 0.809733
211 2 1.69744 8.10671 7.59851
212 2 -0.646976 12.9142 1.94623
80 3 -6.7407 13.4914 7.24425
214 2 -2.15497 13.4028 3.03709
287 2 -3.39064 7.20329 2.54164
188 2 -4.52204 8.71533 2.50164
289 2 -2.44105 7.32659 0.180505
57 1 -1.61039 8.11475 0.251553
216 2 -2.47671 13.5777 7.58196
213 2 -0.371179 13.6197 3.75179
215 2 -0.777553 13.6955 8.18765
11 4 -1.25649 7.71777 10.5696
14 4 -4.40697 11.9587 15.9437
17 4 -2.61731 9.40224 13.0594
32 4 -1.53603 11.332 8.69375
34 4 -1.64288 12.0875 14.6905
288 2 -2.0414 9.29382 15.946
55 1 0.643995 8.06354 9.81019
58 1 -3.41853 7.96649 13.9926
59 1 -3.83828 10.5397 12.1744
69 1 -0.745049 11.9926 16.3771
280 3 -5.14999 13.2246 16.6282
224 2 0.185065 9.76274 12.0047
94 3 -1.5102 8.73177 11.8061
95 3 -5.38813 10.9843 15.1149
117 3 -1.8339 10.3029 14.1454
118 3 -0.766854 12.9462 13.7315
119 3 -3.19959 12.5681 14.9996
120 3 -0.336474 11.4073 9.74233
154 2 2.37258 7.47863 10.5394
9 4 -4.20659 7.19178 9.28738
156 2 -2.79638 12.5562 9.15149
184 2 -0.565525 8.64165 9.07452
186 2 0.936695 8.92232 10.6379
191 2 -3.02275 8.14912 15.1274
192 2 -4.75167 10.1172 12.7777
193 2 -3.91137 10.3152 11.0992
194 2 -3.51223 11.5867 12.4607
147 2 -5.45736 12.012 8.89351
255 4 1.63288 7.57229 16.5472
221 2 -0.608489 10.8702 16.5675
258 2 1.69341 8.18947 14.95
207 2 -4.24173 14.0298 13.6963
290 2 -4.54306 8.04612 13.8719
185 2 1.48022 7.91497 9.02623
70 1 1.10749 10.3519 11.9966
236 2 11.2697 4.55385 0.731348
21 4 6.56342 3.3277 5.20696
127 3 12.3747 0.827383 6.90301
36 4 9.20526 1.69094 4.94194
252 2 7.43055 6.02623 0.250758
40 4 11.8797 1.99545 5.85822
43 4 10.4895 2.60301 2.23645
54 1 11.2971 5.86488 5.00965
62 1 7.38094 4.99793 4.98348
248 1 6.51116 6.54974 0.760055
74 1 10.784 4.40575 1.74944
251 2 4.83642 6.20701 3.12382
122 3 7.68016 2.17095 5.48184
125 3 12.377 1.60176 4.38316
126 3 10.2489 2.32411 6.06565
37 4 10.6202 0.332959 0.171699
133 3 9.5353 2.34928 3.52344
134 3 11.1356 1.35746 1.21907
226 2 9.54774 0.547609 8.00833
235 2 9.27109 3.69307 1.17862
162 2 12.5267 3.56045 6.38699
164 2 11.9559 3.74636 2.81972
202 2 7.07943 5.89349 5.67271
2 4 13.894 1.59241 3.64012
286 2 10.9174 4.94233 5.51809
200 2 7.09403 5.13298 3.88764
201 2 8.50657 4.66209 5.09765
135 3 5.93324 5.04105 8.06762
161 2 9.02466 2.83792 7.79347
234 2 10.3899 5.36139 2.15952
204 2 6.00282 3.12118 2.57354
283 2 13.4082 0.590651 1.33439
246 4 4.95678 5.39588 0.724867
275 2 7.32994 0.921375 0.444788
262 1 13.7685 0.18654 2.3487
182 2 11.4942 5.74665 3.87416
101 3 5.53434 3.91551 0.175572
253 2 6.58289 6.5065 1.91759
183 2 10.697 6.79127 5.26056
5 4 13.419 1.93499 10.3287
71 1 9.90859 1.40466 8.74846
44 4 6.31001 6.62877 8.57555
39 4 8.95279 2.83378 9.52821
41 4 8.2533 2.45726 14.7498
42 4 10.9708 3.65259 11.7265
129 3 8.72912 1.40977 15.9024
29 4 4.07543 7.12193 10.693
72 1 9.2533 4.03682 14.525
295 2 10.9537 5.54365 12.9595
45 4 8.44516 6.83818 10.747
138 3 7.58874 6.8392 9.47483
266 2 13.5002 1.51447 14.8147
124 3 7.48637 2.48814 10.0376
128 3 8.30679 1.67485 13.2783
73 1 11.8264 5.15797 12.2091
130 3 6.58965 3.13269 15.2548
131 3 12.2253 2.65976 11.2752
132 3 9.7133 3.96283 10.2807
227 2 9.99475 0.898087 9.91888
76 1 6.24278 6.68268 14.2126
152 2 5.28903 5.03944 13.5834
242 2 5.12955 6.76304 13.732
163 2 10.1892 3.04154 13.0975
165 2 8.79609 5.23045 11.1639
123 3 12.838 0.736419 9.44409
229 2 9.18321 4.54753 13.5042
230 2 10.331 3.79646 14.8489
231 2 8.72212 4.62352 15.3835
241 2 6.91402 5.83259 13.7947
110 3 4.2063 5.78544 11.4001
240 2 6.13497 6.81202 15.4677
228 2 10.8983 1.91758 8.5294
281 2 10.4338 5.73967 8.68766
109 3 5.53817 3.51781 11.5517
265 2 12.9284 3.01208 15.963
238 2 7.83513 7.55123 6.91402
38 4 5.19229 13.5047 8.09022
46 4 3.43372 10.3465 3.43499
68 1 1.41302 12.6217 6.63381
75 1 6.7124 7.51376 6.89786
139 3 3.21558 8.84363 3.12586
140 3 2.72148 10.8648 4.79082
158 2 1.51573 13.5279 4.90088
149 2 6.76342 11.4964 4.07615
151 2 3.39711 7.8387 4.42058
160 2 6.84675 13.2017 7.72802
166 2 3.25862 11.4329 2.13464
167 2 5.11188 10.7027 3.65219
278 1 3.64909 12.041 0.277499
217 2 1.55726 12.0065 7.73521
218 2 0.577948 13.3801 6.62267
219 2 2.46123 12.9935 6.34459
65 1 2.84905 8.15738 7.29628
263 2 5.24746 13.1301 2.88179
291 2 8.6656 10.2211 0.798387
209 2 3.23522 9.03969 6.7124
239 2 6.19673 8.57442 7.19978
294 2 4.4892 11.9939 1.03447
270 1 6.8845 9.97238 3.14762
271 2 6.44608 9.09681 3.74767
272 2 8.20995 9.51748 2.73146
273 2 6.25184 10.0937 2.22708
282 2 7.05937 13.2426 2.206
159 2 2.24497 12.4341 1.16308
210 2 3.60982 7.66899 8.0566
195 2 8.31811 8.27883 0.963297
33 4 1.46498 10.9523 5.71391
13 4 8.47343 11.3805 3.28572
60 1 8.30506 9.19397 0.26118
141 3 4.53821 12.0624 8.25794
150 2 10.0065 8.16111 0.107573
254 2 6.27191 7.57352 0.287925
237 2 6.25144 7.20038 5.95032
18 4 8.77074 9.67301 15.4215
225 2 1.24106 11.0516 12.9213
196 2 6.64299 9.85289 16.401
47 4 3.72199 11.1772 9.28639
48 4 6.91226 8.18324 13.2487
49 4 5.35879 10.7538 11.9419
137 3 9.85094 7.61109 10.4493
35 4 0.942786 11.7825 10.707
77 1 5.89102 12.319 12.8298
121 3 0.752061 13.3239 11.545
136 3 4.8251 7.34811 9.40988
245 2 6.46612 12.1152 13.8411
142 3 2.2979 11.6919 9.84276
279 2 2.89674 11.7451 16.3086
144 3 7.87943 8.87887 14.3556
145 3 4.63458 10.8844 10.5639
146 3 5.38921 9.3146 12.786
243 2 4.58336 12.4927 13.0967
153 2 4.61024 8.24628 11.9082
244 2 6.34729 13.2626 12.2967
169 2 7.04477 11.3365 11.6897
223 2 2.06442 9.79362 11.6822
22 4 -0.244768 13.9325 12.6691
293 2 3.76533 13.7971 15.9131
143 3 7.64605 7.54702 12.0393
220 2 0.228766 12.5933 16.1184
168 2 3.41766 9.71656 8.40084
ITEM: TIMESTEP
300
ITEM: NUMBER OF ATOMS
295
ITEM: BOX BOUNDS xy xz yz pp pp pp
-8.3339999999999996e+00 1.5144700000000000e+01 -7.6974000000000000e+00
0.0000000000000000e+00 1.4189300000000001e+01 -6.3660000000000005e-01
0.0000000000000000e+00 1.6662980000000001e+01 5.8050000000000002e-01
ITEM: ATOMS id type x y z
6 4 0.771705 1.54732 6.06724
7 4 -0.0106703 3.99926 1.9641
8 4 -0.622348 3.88193 7.92406
10 4 -2.09713 6.15383 5.91156
25 4 0.558116 6.13899 4.17304
105 3 5.2002 3.31264 6.05311
50 1 3.09757 0.789983 2.15481
51 1 2.37086 2.25655 5.4614
52 1 -1.32005 5.13479 1.36737
275 2 6.9862 0.640951 0.408045
79 3 0.0983477 1.0561 4.75168
180 2 1.87412 4.60189 8.14784
81 3 -0.724195 2.71328 2.71002
82 3 0.624108 3.44943 0.560667
84 3 0.0693822 2.82631 6.97071
85 3 -2.023 4.93211 6.95862
96 3 3.01172 0.827468 7.99472
102 3 0.960193 4.91013 3.06015
103 3 -1.04648 5.83489 4.59396
104 3 3.41483 3.79631 7.81131
106 3 1.57044 6.10199 5.66257
172 2 3.22822 0.199447 3.08132
170 2 2.58 1.75153 2.38864
171 2 4.20076 0.951573 1.6245
250 2 3.33163 5.55962 2.78801
173 2 2.1993 2.07221 4.31208
174 2 3.32753 1.70346 5.9021
175 2 2.42063 3.38335 5.68771
176 2 -1.01155 6.08297 1.87109
277 2 5.82569 1.46226 1.72634
276 2 5.01473 0.431447 0.256405
274 1 5.93012 1.07769 0.604252
205 2 4.52697 2.50235 3.73565
26 4 4.62338 4.49409 7.06394
177 2 -2.51485 4.9155 1.51605
203 2 6.05847 1.31351 3.46218
257 3 3.83522 6.31991 0.00458149
63 1 5.62541 2.47151 3.47174
178 2 -1.05304 5.07072 0.233662
27 4 2.94537 6.81301 5.75219
179 2 0.371257 5.9714 7.89506
249 2 4.7934 4.23321 3.07036
107 3 4.10375 5.80307 6.20112
3 4 0.125651 2.92967 16.0217
256 1 0.480473 6.91178 15.2992
19 4 5.19717 3.06504 16.0175
20 4 3.49364 2.12635 8.80484
23 4 2.75133 2.74212 14.0739
28 4 4.34629 4.64755 12.2562
100 3 6.16084 0.957812 11.8923
61 1 2.20918 2.40983 10.1387
64 1 2.48307 1.00294 13.3581
83 3 -1.19788 3.19562 9.18557
86 3 -2.45226 6.97431 9.97597
97 3 4.01664 2.65063 15.0696
98 3 1.26521 3.18869 14.9003
99 3 4.8101 1.84514 9.66944
108 3 3.08055 3.70774 12.682
264 1 -1.56708 2.63225 15.215
190 2 -3.177 6.97573 13.6688
148 2 0.277714 7.01419 10.9246
269 2 0.332086 2.4548 11.6122
284 2 -1.59279 3.37816 14.4139
181 2 0.602682 4.86291 9.64911
233 2 -2.37487 4.94413 13.0004
24 4 5.90446 2.30403 10.7482
197 2 1.60227 1.47949 10.3261
198 2 1.58275 3.26064 9.63546
199 2 2.5979 2.79843 11.0903
267 1 -0.4831 1.64247 11.5932
208 2 2.2097 1.02312 12.2405
206 2 1.58929 0.664825 13.9881
259 2 0.260458 5.9656 16.1364
260 2 1.05948 6.57217 14.4013
232 2 -2.81523 5.85986 11.3777