ITEM: TIMESTEP
0
ITEM: NUMBER OF ATOMS
295
ITEM: BOX BOUNDS xy xz yz pp pp pp
-8.1979120000000005e+00 1.5144700000000000e+01 -7.5613120000000000e+00
0.0000000000000000e+00 1.4189300000000001e+01 -6.3660000000000005e-01
0.0000000000000000e+00 1.6498000000000001e+01 5.8050000000000002e-01
ITEM: ATOMS id type x y z
6 4 0.732389 1.57313 6.12331
7 4 -0.191811 3.62934 1.78734
8 4 -0.621039 3.92434 7.83357
10 4 -1.9163 6.43332 5.47624
25 4 0.789554 6.03509 3.81084
27 4 3.1496 6.33 5.73281
50 1 2.59651 0.931299 2.16848
51 1 2.35798 2.27012 5.53671
52 1 -1.72814 4.6292 1.19039
204 2 5.33718 3.25919 2.63506
79 3 -0.0354835 1.03269 4.78767
276 2 5.16735 0.631781 0.515609
275 2 7.04142 0.795027 0.679726
82 3 0.63271 2.94127 0.564588
84 3 0.0610971 2.75028 6.92438
85 3 -1.94322 5.02513 6.77554
53 1 0.69014 5.15058 8.22352
102 3 0.752875 4.77192 2.70859
103 3 -0.761763 6.40067 4.24397
104 3 4.19019 3.40582 8.19683
106 3 1.71901 5.64487 5.22654
107 3 4.10555 5.59025 6.68358
170 2 3.05741 0.406522 3.03538
203 2 5.14688 1.56626 3.5494
81 3 -0.86465 2.52211 2.76713
173 2 2.47529 1.72016 4.50454
174 2 3.22155 2.05247 6.22074
175 2 2.15972 3.41683 5.41006
176 2 -2.00242 5.19663 2.07328
274 1 6.05405 1.33587 0.847982
178 2 -1.16548 5.30753 0.365437
277 2 5.80951 1.83248 1.87919
205 2 4.18762 3.07341 4.12046
171 2 1.78824 1.63615 2.45882
249 2 4.68194 4.65446 3.03696
180 2 1.7114 4.63642 7.85059
250 2 3.36858 6.06612 2.6224
179 2 0.375393 6.06695 7.66285
63 1 5.1476 2.70692 3.63956
281 2 -2.99296 5.80193 7.80742
172 2 3.38662 1.46734 1.4615
78 3 0.812071 0.302505 0.0944487
182 2 -3.44159 6.27237 3.46041
54 1 -3.55111 6.32594 4.58746
3 4 0.0539235 2.51224 15.8606
267 1 -0.462777 1.94592 11.5586
96 3 2.94121 0.842449 8.28022
20 4 3.54369 2.15841 8.9224
23 4 2.54081 2.66925 13.9858
28 4 4.39288 4.43986 12.3563
285 2 -0.804517 2.50794 12.4556
61 1 2.05568 3.10826 9.80344
64 1 2.60594 0.967421 12.98
83 3 -1.18093 3.22278 9.13673
100 3 6.16061 0.498883 11.8991
97 3 3.84411 2.54651 15.0916
98 3 1.15905 2.87935 14.753
99 3 4.52254 1.61914 10.1451
108 3 2.97071 3.63985 12.7894
9 4 -3.47893 6.98031 8.97334
19 4 5.15376 3.18889 15.9752
148 2 0.436538 6.80447 10.8399
206 2 1.53752 0.684915 13.0365
269 2 0.504442 2.40631 11.0002
181 2 0.565903 5.30617 9.37239
266 2 -2.16704 3.83783 15.2697
24 4 5.78149 1.97318 11.1097
197 2 2.18724 2.9969 10.914
198 2 1.11254 2.69014 9.39309
199 2 2.3074 4.22747 9.47875
259 2 0.176542 6.64764 15.1251
208 2 2.99876 1.00657 11.8756
110 3 4.14876 5.69328 11.4343
268 2 -0.427153 0.814822 11.7428
154 2 2.1792 7.13323 10.4595
86 3 -2.21838 6.99347 10.0337
109 3 5.41583 3.38137 11.9225
264 1 -1.75765 2.77237 15.2218
257 3 2.82506 6.81353 16.4133
295 2 -3.05983 5.39609 11.593
265 2 -1.52525 2.41894 14.1527
1 4 -5.56481 13.1392 1.06892
4 4 -5.31509 13.145 7.74719
12 4 -2.65284 9.19048 1.44547
15 4 -2.62464 9.02124 7.07251
16 4 -3.95839 11.2532 5.42777
30 4 1.59392 8.57665 2.11162
31 4 -1.22164 11.2128 3.79656
80 3 -6.69969 13.4947 7.18724
56 1 -4.15507 8.67509 2.46482
189 2 -0.713249 7.78953 0.588348
57 1 -1.89945 7.77466 0.468568
66 1 -0.958276 12.7228 2.63716
280 3 -4.35151 12.6201 0.219308
111 3 1.66265 7.35779 3.16328
88 3 -3.11235 10.3575 0.368242
90 3 -1.8277 7.81957 6.32253
91 3 -5.21616 11.1685 4.53388
92 3 -3.51722 9.86803 5.98845
93 3 -4.34515 12.4184 6.66465
188 2 -4.9969 9.41949 2.32252
112 3 1.33272 7.83639 0.702002
113 3 -1.37046 9.96196 2.74338
114 3 -2.54925 11.7264 4.52622
115 3 -1.53128 10.2603 7.91761
116 3 0.128766 11.0964 4.62462
155 2 0.120619 9.41716 2.32462
292 2 -1.73901 12.7876 6.97912
65 1 2.6046 8.09087 7.2834
157 2 1.72784 9.56889 6.43427
211 2 1.67635 7.41676 7.40789
214 2 0.203078 12.8405 2.59656
213 2 -1.38407 12.5534 1.58798
289 2 -2.3925 6.97085 1.13685
87 3 -6.2661 11.7302 2.10819
187 2 -3.95968 8.49611 3.563
221 2 0.657538 10.2821 0.118075
222 2 -0.139798 11.878 0.990741
67 1 -1.55119 12.9697 8.1521
212 2 -1.5026 13.5391 3.30459
89 3 -3.71388 8.38307 8.2231
183 2 -4.0203 7.31156 4.96111
287 2 -4.30707 7.70207 1.87655
69 1 0.397284 11.386 0.0154085
11 4 -1.12409 7.80128 10.7683
224 2 0.481297 10.0867 12.1893
17 4 -2.22317 9.55432 13.1746
32 4 -1.4848 11.3616 9.04121
34 4 -1.24814 11.9725 14.9285
288 2 -2.97554 8.39248 15.86
55 1 0.705277 8.31543 9.82304
58 1 -3.67774 8.56752 14.0076
59 1 -3.24551 10.9655 12.2054
216 2 -2.47176 13.4229 8.72491
255 4 1.43232 7.52336 16.0943
185 2 1.38537 8.18849 8.9188
94 3 -1.47116 8.67878 12.0621
95 3 -5.3453 11.3051 14.9042
117 3 -1.35055 10.1444 14.4266
118 3 -0.329374 12.6237 13.7456
119 3 -2.88313 12.5739 15.1488
120 3 -0.00697841 11.4395 9.90952
147 2 -5.56966 12.0255 9.05557
290 2 -4.46664 8.53047 13.2041
156 2 -2.67961 11.0201 10.3167
184 2 -0.309575 8.91894 9.43668
186 2 1.11756 9.07738 10.6366
191 2 -3.93751 9.19061 14.8909
192 2 -3.97402 11.3318 12.9923
193 2 -3.81685 10.3509 11.401
194 2 -2.562 11.8241 11.8428
258 2 2.06138 8.86298 14.3879
260 2 0.872293 7.59551 13.4693
190 2 -3.32205 7.53414 14.2423
256 1 0.978912 8.24439 14.4062
261 2 0.0253355 9.08695 14.4397
14 4 -4.22488 12.0614 15.8714
215 2 -0.615348 13.51 8.344
207 2 -4.26091 13.8728 13.6275
2 4 13.7092 1.44633 3.79732
21 4 6.65139 3.47911 4.74251
251 2 5.23094 6.44404 2.83146
36 4 9.24368 1.76616 4.76826
248 1 6.34233 6.75427 0.271896
40 4 11.7957 2.07087 6.10029
43 4 10.5576 2.95697 2.07312
235 2 8.75189 3.60661 0.453137
62 1 7.3237 5.06162 3.78168
228 2 8.52422 1.06683 7.96201
74 1 9.29399 4.11188 1.32717
105 3 5.86182 3.89499 6.06042
122 3 7.84952 2.45125 4.87046
125 3 12.4643 1.76603 4.68508
126 3 10.1304 2.22772 6.06075
127 3 12.1609 1.00112 7.22961
133 3 9.96169 2.22836 3.35872
134 3 11.2466 1.82677 1.00009
234 2 8.52228 4.43237 2.19707
286 2 11.0407 5.37243 5.04807
162 2 12.403 3.69692 6.37794
164 2 11.8954 4.0075 2.34179
200 2 8.48901 5.03054 3.96502
246 4 4.89925 5.57694 0.581405
37 4 10.5783 0.486131 0.218291
236 2 10.0449 4.98926 1.05567
201 2 6.85254 5.84672 4.41766
202 2 6.90159 4.84652 2.78139
151 2 4.15701 6.60401 4.3383
161 2 7.57994 3.91041 8.07776
283 2 13.4988 0.191342 1.83692
26 4 5.07431 4.4674 7.38098
177 2 12.6071 3.99515 0.772731
247 1 4.49511 5.71412 2.56727
101 3 5.46562 4.13269 0.178585
152 2 5.14061 5.16768 13.7571
241 2 6.94966 5.89701 13.4027
227 2 10.1693 1.83417 8.58998
39 4 8.25411 2.9006 9.28047
41 4 8.05433 2.3372 14.7937
42 4 10.6853 3.54912 11.5719
45 4 8.87783 6.68119 10.4682
29 4 3.79988 6.91688 10.6031
72 1 9.43379 3.80574 14.8528
73 1 11.3264 5.03188 12.3869
284 2 12.7602 1.99656 15.7106
242 2 5.40618 6.95628 12.9114
252 2 6.62907 6.82702 16.3202
124 3 7.04939 2.37098 10.219
128 3 8.14463 1.55945 13.3032
129 3 8.53433 1.3134 16.0864
130 3 6.60285 3.06288 15.2772
131 3 11.996 2.83484 11.0077
132 3 9.28787 3.7692 10.2829
71 1 9.16887 1.35059 8.85257
44 4 6.44055 6.82195 8.6924
135 3 6.4925 5.15508 8.32844
137 3 10.3112 6.57929 9.67784
163 2 10.1371 3.06416 13.1166
165 2 8.36144 5.0767 10.7577
233 2 10.3702 5.67917 12.3907
229 2 9.04155 4.43028 14.0328
230 2 10.4497 3.36667 14.7716
231 2 9.25124 4.19813 15.9512
232 2 11.7548 4.96792 13.389
5 4 13.2743 2.16943 10.3375
76 1 6.34216 6.81245 13.5745
240 2 6.0757 7.01867 14.7778
226 2 9.02193 0.657988 9.82987
136 3 4.64343 7.13335 9.36208
13 4 8.61242 11.2765 3.65055
263 2 4.37596 13.4397 2.97755
46 4 3.70799 10.4922 3.11641
68 1 1.79368 12.4492 6.45384
75 1 6.45153 7.80085 7.034
139 3 2.8257 9.71284 2.02981
140 3 2.90834 10.9059 4.42288
238 2 7.46029 8.23138 7.04813
149 2 7.35735 12.3028 4.43029
210 2 3.49736 7.83525 7.85362
160 2 6.84059 13.4225 7.53873
166 2 4.58735 11.775 2.38688
167 2 5.09441 9.55855 3.46109
209 2 2.96776 8.21858 5.9881
217 2 2.8352 12.8153 6.025
218 2 1.96137 11.9583 7.52242
159 2 2.93607 12.5935 1.2047
141 3 4.52089 12.1369 7.94373
294 2 4.86939 12.3801 0.288292
38 4 5.26584 13.5214 8.19185
158 2 1.50278 13.6851 4.91499
262 1 5.50574 13.4618 2.91517
219 2 0.938356 13.1889 6.45861
270 1 6.69754 10.6325 3.9488
271 2 5.97867 10.4028 4.79202
272 2 7.75854 9.51356 3.81236
273 2 6.25464 10.8331 2.89575
282 2 5.97778 12.4282 3.35883
33 4 1.61676 10.9378 5.34532
239 2 5.66135 8.61409 7.16374
291 2 8.17421 10.9603 0.733387
150 2 9.04759 9.16277 0.158438
168 2 3.48637 9.6326 8.04409
253 2 6.4998 7.00315 1.431
237 2 6.17455 7.03056 6.25054
18 4 8.44712 10.4525 15.0366
293 2 3.85758 13.9793 15.1526
245 2 6.25606 11.7852 12.5712
47 4 3.98247 11.033 9.05207
48 4 7.50937 8.08766 12.7811
49 4 6.34547 10.257 10.918
244 2 7.97186 12.313 11.6879
225 2 1.89455 11.0984 13.0866
77 1 6.88306 12.0413 11.5262
121 3 1.26803 13.2366 11.4296
60 1 7.09626 11.0698 16.2075
35 4 1.42112 11.7196 10.7401
142 3 2.71701 11.5096 9.82173
143 3 8.94716 7.43426 11.9949
144 3 8.09083 9.22759 14.0453
145 3 5.14571 10.5724 9.99369
146 3 6.48446 9.06113 11.8683
278 1 3.43735 13.1948 16.1057
153 2 4.02094 8.25754 11.584
279 2 2.96775 12.261 15.6552
169 2 7.84033 10.9559 10.2453
223 2 2.32453 9.56525 11.8964
196 2 6.83455 11.8893 15.2097
243 2 6.35618 12.8921 10.8913
220 2 0.683113 12.6547 16.1349
70 1 1.6078 10.4135 12.1618
254 2 5.45113 8.26879 16.1694
195 2 6.19124 10.3858 16.4026
22 4 -0.0317464 13.7761 12.7276
138 3 7.75349 7.22394 9.52021
123 3 5.47337 13.9424 9.74278
ITEM: TIMESTEP
100
ITEM: NUMBER OF ATOMS
295
ITEM: BOX BOUNDS xy xz yz pp pp pp
-8.1979120000000005e+00 1.5144700000000000e+01 -7.5613120000000000e+00
0.0000000000000000e+00 1.4189300000000001e+01 -6.3660000000000005e-01
0.0000000000000000e+00 1.6498000000000001e+01 5.8050000000000002e-01
ITEM: ATOMS id type x y z
6 4 0.673772 1.57227 6.06019
7 4 -0.185607 3.77251 2.03201
8 4 -0.717891 3.94484 7.84008
10 4 -1.75254 6.48891 5.62784
25 4 0.801691 6.1411 3.84865
27 4 3.20324 6.38402 5.70544
50 1 2.65353 0.832422 2.28866
51 1 2.18667 2.46041 5.31915
52 1 -1.78743 4.62203 1.42994
204 2 4.94625 3.20046 2.7507
79 3 -0.193939 0.93249 4.80248
276 2 5.22192 0.714564 0.660065
54 1 -3.26619 6.55821 4.51081
82 3 0.47916 3.22335 0.581672
84 3 0.129237 2.84832 6.85496
85 3 -2.06003 5.05493 6.81362
182 2 -2.91883 6.74448 3.42331
102 3 0.769712 5.00759 2.77803
103 3 -0.599547 6.50892 4.47283
104 3 4.33413 3.14878 7.91171
106 3 1.82271 5.74309 5.35095
107 3 4.04888 5.66116 6.78671
170 2 3.27293 0.20869 3.02601
203 2 5.60401 1.64288 3.72885
81 3 -0.792182 2.51351 2.91116
173 2 2.1009 1.94209 4.24821
174 2 3.13801 2.21347 5.87602
175 2 1.99076 3.57623 5.26149
176 2 -2.38817 5.25611 2.25448
274 1 6.08636 1.41712 0.939237
178 2 -1.2506 5.34574 0.624679
277 2 5.87474 1.90539 2.00147
205 2 4.10442 2.61327 4.37623
171 2 1.62402 1.19679 2.70138
249 2 4.4887 4.57924 3.00081
180 2 1.37919 5.02349 7.74231
250 2 3.25838 6.04153 2.32682
247 1 4.36087 5.61794 2.47695
63 1 5.12154 2.72011 3.7814
281 2 -3.15014 5.55876 7.92169
172 2 3.28024 1.66814 1.75343
78 3 0.798625 0.372101 0.0687956
96 3 3.05012 0.775503 8.11978
3 4 -0.105139 2.6202 15.9042
267 1 -0.404741 1.94804 11.5333
295 2 -2.66317 5.1335 11.732
20 4 3.65997 2.08164 8.88451
23 4 2.73284 2.7259 14.0868
28 4 4.43366 4.4873 12.2956
285 2 -0.63426 2.47855 12.5041
61 1 2.19146 2.99 9.82293
64 1 2.85454 1.05797 13.1682
83 3 -1.27905 3.17579 9.11247
53 1 0.433026 5.24051 8.46267
97 3 3.98687 2.76361 15.0766
98 3 1.03574 2.71082 14.662
99 3 4.43557 1.55648 10.2984
108 3 2.98171 3.94117 12.9194
9 4 -3.50334 6.83876 8.98701
19 4 5.31919 3.26225 16.0387
148 2 0.52038 6.85624 10.7379
206 2 1.75243 0.749405 13.4156
269 2 0.579197 2.32829 11.018
181 2 0.618934 4.90146 9.52655
257 3 2.8627 6.89882 16.3389
24 4 5.77699 1.94168 11.079
197 2 2.31627 2.80908 10.9327
198 2 1.29044 2.52263 9.31618
199 2 2.41846 3.99533 9.53154
259 2 0.452207 6.47074 14.9349
208 2 2.99642 1.35874 12.0832
110 3 3.9916 5.44698 11.1526
268 2 -0.45288 0.787198 11.6586
265 2 -1.40453 2.71528 13.9358
86 3 -2.30231 6.85076 9.93415
109 3 5.42683 3.25286 12.0506
179 2 0.0295371 6.27164 8.26898
190 2 -3.20848 7.29242 14.244
1 4 -5.52449 13.2491 0.986559
4 4 -5.31057 13.0752 7.60998
12 4 -2.68372 9.19181 1.47321
15 4 -2.73182 9.04707 7.19923
16 4 -3.97067 11.2248 5.51925
30 4 1.45386 8.52541 2.11058
31 4 -1.2177 11.2809 3.88869
80 3 -6.75369 13.483 7.05904
56 1 -4.20495 8.87146 2.5389
189 2 -0.822552 7.74624 0.629951
57 1 -1.93742 7.81472 0.437085
66 1 -1.06075 12.6213 2.53042
280 3 -4.26525 12.756 0.116685
111 3 1.68565 7.49845 3.33833
88 3 -3.19116 10.3898 0.347634
90 3 -1.69571 7.86164 6.34482
91 3 -5.24145 11.2472 4.40507
92 3 -3.81761 9.74612 6.18153
93 3 -4.304 12.3172 6.63904
188 2 -5.12143 9.28329 2.00706
112 3 1.29436 7.67749 0.673148
113 3 -1.44081 9.99726 2.83372
114 3 -2.48019 11.6709 4.74664
115 3 -1.74582 10.1564 7.98129
116 3 0.216904 11.1367 4.72775
155 2 -0.022567 9.37224 2.45089
292 2 -1.25706 12.7601 7.32979
65 1 2.61469 8.10551 7.18839
157 2 1.82298 9.80365 6.7248
211 2 1.79905 7.36188 7.36159
214 2 0.0522801 12.6331 2.39114
213 2 -1.76436 12.5102 1.65007
289 2 -2.52997 6.97524 0.987239
87 3 -6.35745 11.8736 1.97179
187 2 -4.12623 9.20903 3.64158
69 1 0.293328 11.1558 0.00874817
222 2 -0.308649 11.6091 0.94491
183 2 -3.84228 7.45987 4.95405
212 2 -1.42471 13.471 3.21776
89 3 -3.59296 8.20429 8.20264
287 2 -4.08868 7.68016 2.39932
11 4 -1.14034 7.75019 10.6564
224 2 0.484305 9.7583 12.0537
17 4 -2.36528 9.42285 13.1279
32 4 -1.49968 11.1921 9.14752
34 4 -1.20256 11.8803 14.8785
288 2 -2.91017 8.42733 15.7921
55 1 0.634446 8.37519 9.74327
58 1 -3.72941 8.24291 13.9143
59 1 -3.16101 11.0681 12.3329
216 2 -2.71266 13.0204 8.60887
255 4 1.41412 7.46875 16.0001
185 2 1.34595 8.26423 8.78907
94 3 -1.50719 8.53783 12.0071
95 3 -5.42117 11.3699 14.702
117 3 -1.4129 10.0038 14.2981
118 3 -0.176493 12.5907 13.8833
119 3 -2.79999 12.484 15.1199
120 3 0.0100183 11.3771 9.89019
147 2 -5.62178 12.0859 8.92305
290 2 -4.50648 8.15525 13.1041
156 2 -2.64145 10.9214 10.4591
184 2 -0.423982 8.85187 9.29037
186 2 1.00869 9.07801 10.6158
191 2 -4.09626 8.8738 14.7939
192 2 -3.81281 11.3751 13.2246
193 2 -3.79055 10.6762 11.4941
194 2 -2.44094 11.8437 12.0565
258 2 2.02614 8.87988 14.2719
260 2 1.00545 7.45306 13.507
207 2 -3.91347 14.006 13.6593
256 1 1.01889 8.23607 14.3286
261 2 0.011679 8.91287 14.3372
14 4 -4.23792 12.106 15.8266
215 2 -0.874357 13.6055 9.05112
244 2 -6.97237 12.2237 11.2608
100 3 -1.39558 13.9919 11.8858
67 1 -1.54518 12.9071 8.43064
154 2 2.30348 7.30888 9.98463
70 1 1.50325 10.348 12.0654
221 2 -0.184302 10.5551 16.4566
2 4 13.7438 1.33678 3.82114
21 4 6.66285 3.39919 4.84057
251 2 5.27353 6.57069 2.63316
36 4 9.21537 1.7895 4.70459
101 3 5.40953 4.28407 0.33648
40 4 11.7664 2.12667 6.07257
43 4 10.6912 2.94384 2.13146
235 2 8.76795 3.47195 0.503838
62 1 7.58914 4.9157 3.90386
228 2 8.89348 1.02358 8.06463
74 1 9.31097 4.01427 1.33175
105 3 5.90142 4.03423 6.04645
122 3 7.66344 2.10259 5.06962
125 3 12.4765 1.77596 4.6869
126 3 10.1564 2.38915 5.9464
127 3 12.2522 1.16322 7.20643
133 3 9.82228 2.37065 3.3744
134 3 11.1026 1.81999 0.89901
234 2 8.59977 4.32923 2.24263
286 2 11.3269 5.54117 4.6411
162 2 12.2252 3.69226 6.56803
164 2 12.1137 3.76149 2.68236
200 2 8.64555 4.60635 3.82058
246 4 4.85845 5.75432 0.598569
37 4 10.4773 0.50169 0.274055
236 2 10.0468 4.82567 0.933803
201 2 7.28384 5.7048 4.70237
202 2 7.05644 5.15726 2.85774
151 2 4.07175 6.55264 4.1788
252 2 7.21304 6.3062 0.312366
275 2 7.10477 0.976626 0.869952
26 4 5.14323 4.46651 7.3244
177 2 12.7031 3.83237 0.873971
152 2 5.17358 5.35141 13.5975
241 2 6.92923 5.93974 13.4592
227 2 10.4426 1.70668 9.02331
39 4 8.36793 2.91157 9.32695
41 4 7.93503 2.32269 14.7642
42 4 10.7798 3.58103 11.6248
45 4 8.77742 6.61136 10.382
29 4 3.89433 6.88052 10.5175
72 1 9.39114 3.58836 14.863
73 1 11.3465 5.22993 12.2278
284 2 12.9447 1.43253 15.1281
242 2 5.50861 7.11546 12.9497
264 1 13.422 2.42141 15.0268
124 3 7.04031 2.27407 10.138
128 3 8.09087 1.56098 13.2879
129 3 8.43462 1.11699 16.0897
130 3 6.65063 3.27284 15.0647
131 3 11.969 2.6513 11.158
132 3 9.4148 3.65689 10.2662
71 1 9.34097 1.34046 9.07403
44 4 6.38386 6.92576 8.65964
135 3 6.31631 4.97716 8.30453
137 3 10.1764 6.63613 9.67943
163 2 10.1538 3.03177 13.1235
165 2 8.46747 4.995 10.7253
233 2 10.8102 6.17375 11.9981
229 2 9.24843 4.32381 14.0514
230 2 10.4134 3.0312 14.8448
231 2 9.15959 4.08963 15.9931
232 2 11.3486 4.94733 13.3879
5 4 13.3236 2.06878 10.2685
76 1 6.38966 6.91712 13.6411
240 2 6.1751 7.17238 14.8261
226 2 9.24114 0.587341 9.98519
266 2 12.755 3.28387 15.4658
123 3 13.0445 0.54472 9.66053
293 2 11.444 0.537093 15.2241
161 2 7.7189 4.12202 8.34423
13 4 8.57523 11.2473 3.50211
263 2 4.45214 13.5639 2.75055
46 4 3.54275 10.5017 3.11314
68 1 1.76925 12.6258 6.38675
75 1 6.64061 8.03729 7.09114
139 3 2.73654 9.54123 2.04303
140 3 2.74488 11.0922 4.28524
238 2 7.62892 8.52348 7.27862
149 2 7.09946 12.1985 4.49495
210 2 3.48792 7.97565 7.88314
160 2 6.87821 13.4471 7.62413
166 2 4.35182 11.8611 2.41675
167 2 4.97151 9.7012 3.61726
209 2 2.96717 8.28262 5.98373
217 2 2.58963 13.2976 6.04484
218 2 2.05759 12.0674 7.42483
159 2 3.14338 12.6734 1.27156
141 3 4.56134 12.225 8.13834
294 2 5.09713 12.5491 0.366213
38 4 5.27124 13.6188 8.11599
158 2 1.56242 13.7229 4.67699
262 1 5.55993 13.3822 2.71674
219 2 0.78731 13.1924 6.51804
270 1 6.77851 10.6467 3.90353
271 2 6.3632 9.93203 4.66443
272 2 8.11006 9.44275 3.39919
273 2 6.20351 10.6553 2.97188
282 2 5.90136 12.3689 3.17422
33 4 1.6468 11.0134 5.44087
239 2 5.65629 8.70375 7.15146
291 2 8.15159 10.9057 0.721748
150 2 9.40168 9.09914 0.356864
168 2 3.52436 9.71306 7.87922
253 2 6.3182 7.71338 1.17123
237 2 6.70238 7.34212 6.25803
248 1 6.32064 7.0192 0.28965
283 2 6.06922 13.6418 1.77492
195 2 7.11421 9.48314 0.00444449
18 4 8.63488 10.2533 15.1633
22 4 0.0013671 13.7544 12.6478
245 2 6.73695 11.9792 12.4481
47 4 4.01958 10.9605 8.9921
48 4 7.5492 8.23837 12.8525
49 4 6.29133 10.3549 10.8671
138 3 7.63279 7.25952 9.53773
225 2 1.61755 11.0532 13.0014
77 1 7.06594 12.1273 11.2837
121 3 1.30412 13.2434 11.4224
60 1 7.24828 10.8106 16.2935
35 4 1.35923 11.7315 10.6928
142 3 2.63468 11.4172 9.73489
143 3 8.67284 7.35671 11.9658
144 3 8.10939 9.15163 14.0926
145 3 5.13115 10.3512 9.86868
146 3 6.61212 9.20364 11.8343
278 1 3.569 13.3955 16.1221
153 2 4.17894 8.00221 11.7515
279 2 2.99083 12.4688 15.7709
169 2 7.80994 10.8166 10.0857
223 2 2.40955 9.72233 11.9271
196 2 6.83691 11.5677 15.3837
243 2 6.5189 12.9003 10.6579
220 2 0.60051 12.3399 16.2903
254 2 5.46257 8.19882 15.8362
136 3 4.89398 7.22222 9.31905
ITEM: TIMESTEP
200
ITEM: NUMBER OF ATOMS
295
ITEM: BOX BOUNDS xy xz yz pp pp pp
-8.1979120000000005e+00 1.5144700000000000e+01 -7.5613120000000000e+00
0.0000000000000000e+00 1.4189300000000001e+01 -6.3660000000000005e-01
0.0000000000000000e+00 1.6498000000000001e+01 5.8050000000000002e-01
ITEM: ATOMS id type x y z
6 4 0.64038 1.63693 5.93035
7 4 -0.180532 3.9307 2.0171
8 4 -0.814506 4.07898 7.82903
10 4 -1.82806 6.60865 5.66369
25 4 0.955373 5.99325 4.09859
27 4 3.30778 6.30098 5.85927
50 1 2.65287 0.907793 2.26062
51 1 2.29976 2.17903 5.2435
52 1 -1.75953 4.85287 1.38179
204 2 4.77391 3.08605 2.45154
79 3 -0.116653 0.884424 4.64465
276 2 5.62968 0.681916 0.464023
54 1 -3.34063 6.68334 4.59052
82 3 0.367058 3.30019 0.633327
84 3 -0.110209 2.85875 6.80674
85 3 -2.21531 5.14747 6.93113
182 2 -3.05259 6.64882 3.50943
102 3 0.806343 4.80591 2.98861
103 3 -0.53899 6.28242 4.66987
104 3 4.48115 3.13648 8.00015
106 3 2.00785 5.63133 5.35194
107 3 4.19386 5.49986 6.84826
172 2 3.65737 1.31585 2.01744
203 2 5.37802 1.6731 3.35612
81 3 -0.904249 2.65808 2.755
173 2 2.45011 1.7138 4.10411
174 2 2.97697 1.76188 6.07476
175 2 2.0726 3.31749 5.24576
176 2 -2.31462 5.39862 2.24187
274 1 6.24961 1.5414 0.827296
178 2 -1.20684 5.6164 0.804207
277 2 5.86476 1.97441 1.87321
205 2 3.92876 2.70313 4.1547
171 2 1.83008 1.73245 2.15538
249 2 4.7385 4.66578 2.96582
180 2 1.3387 4.92599 7.88199
250 2 3.40111 6.08034 2.78356
78 3 0.892418 0.579798 0.227341
63 1 4.92374 2.72013 3.45096
170 2 2.6146 0.336551 3.2653
3 4 -0.0816023 2.53922 15.9277
267 1 -0.347217 1.98502 11.4533
295 2 -2.59538 5.14067 11.9008
20 4 3.64534 2.08381 8.89301
23 4 2.72272 2.73112 14.1651
28 4 4.42269 4.50018 12.2128
285 2 -0.57844 2.44445 12.4601
61 1 2.19494 3.13263 9.71608
64 1 3.0657 0.97354 13.4127
83 3 -1.42527 3.28204 9.08852
53 1 0.38859 5.30043 8.47735
97 3 3.86135 2.85685 15.369
98 3 1.24519 2.95521 14.7743
99 3 4.6237 1.48385 10.1113
108 3 3.01544 3.9189 12.922
9 4 -3.53871 6.71236 9.07558
19 4 5.1444 3.40427 16.0193
148 2 0.502634 6.68487 10.9531
207 2 4.01334 0.571178 13.8092
269 2 0.571627 2.4366 10.8635
181 2 0.459979 5.14757 9.53587
257 3 2.84619 6.85016 16.3627
24 4 5.76823 1.91469 11.1232
197 2 2.19329 2.83375 10.7772
198 2 1.28721 2.91857 9.12401
199 2 2.65162 4.18712 9.51407
259 2 0.252456 6.65431 15.1734
208 2 3.14425 1.06623 12.323
110 3 4.25852 5.42702 10.9853
268 2 -0.298222 0.876856 11.5241
265 2 -1.96991 3.25596 14.5468
86 3 -2.22621 6.52361 9.87513
109 3 5.24221 3.25098 11.9572
100 3 6.0768 0.6178 12.1437
154 2 2.16072 6.7354 10.0472
179 2 0.130506 6.37764 8.28705
96 3 2.92472 0.843578 8.26663
1 4 -5.50776 13.3203 0.921202
4 4 -5.28548 13.1278 7.59222
12 4 -2.76827 9.36811 1.60456
15 4 -2.77681 9.04146 7.23611
16 4 -3.9878 11.1876 5.48256
30 4 1.52612 8.54301 2.2057
31 4 -1.32754 11.2342 3.80721
80 3 -6.70114 13.6745 7.04473
56 1 -4.40668 8.75066 2.41794
189 2 -0.914703 8.06885 0.702981
57 1 -2.05037 7.97549 0.522094
66 1 -1.10191 12.6733 2.57618
280 3 -4.20401 12.8451 0.0345316
111 3 1.57128 7.425 3.41685
88 3 -3.16608 10.493 0.539999
90 3 -1.66144 8.04796 6.44905
91 3 -5.2724 11.0887 4.32113
92 3 -3.78529 9.60395 6.08401
93 3 -4.37354 12.3463 6.55928
188 2 -5.23657 9.43333 1.99192
112 3 1.22659 7.91377 0.757531
113 3 -1.34414 9.97319 2.89166
114 3 -2.68622 11.5247 4.63494
115 3 -1.984 10.2235 8.19637
116 3 0.137339 11.2613 4.7016
155 2 0.0564205 9.31558 2.61627
292 2 -2.04387 12.7282 7.43951
65 1 2.6884 8.29365 7.17087
157 2 1.71954 9.78879 6.68798
211 2 1.63653 7.74811 7.27108
214 2 0.0969384 12.7138 2.61441
213 2 -1.43897 12.4593 1.50885
289 2 -2.58443 7.08096 1.04763
87 3 -6.28897 11.9095 1.84967
187 2 -4.26601 8.8578 3.53202
221 2 0.166789 9.82827 0.127709
222 2 -0.373908 11.5123 0.9107
183 2 -3.91957 7.61923 4.9011
212 2 -1.59539 13.5794 3.08315
69 1 0.110386 11.0005 0.0251239
11 4 -1.10704 7.55272 10.5565
224 2 0.589479 9.89028 12.2479
17 4 -2.36393 9.35143 13.0156
32 4 -1.54871 11.2686 9.2644
34 4 -1.24921 11.7381 14.8058
288 2 -2.97014 8.5275 15.9295
55 1 0.819988 8.13269 9.81046
58 1 -3.54962 8.19867 13.9829
59 1 -3.50172 10.8781 12.3317
216 2 -2.63991 13.233 9.2471
255 4 1.38834 7.64553 16.148
185 2 1.6064 8.16823 8.92369
94 3 -1.72268 8.56203 11.7102
95 3 -5.27858 11.4362 14.8074
117 3 -1.38789 9.9064 14.1215
118 3 -0.314595 12.6292 13.7961
119 3 -2.70466 12.4181 14.9408
120 3 -0.0914304 11.2099 9.91431
147 2 -5.60442 12.0661 8.77936
290 2 -4.17822 7.63755 13.2275
156 2 -2.61953 10.9786 10.5802
184 2 -0.260888 8.53813 9.23771
186 2 1.10127 8.94413 10.5801
191 2 -4.16499 8.87697 14.7142
192 2 -4.18813 11.0167 13.23
193 2 -3.99922 10.4914 11.4095
194 2 -2.83777 11.7817 12.167
258 2 2.02211 8.97637 14.4075
260 2 1.03412 7.48307 13.5819
190 2 -2.70005 7.50525 14.4295
256 1 1.07016 8.26288 14.4068
261 2 0.0787094 8.87644 14.3473
14 4 -4.14579 12.0881 15.8703
215 2 -0.799889 13.6777 8.5436
70 1 1.55712 10.3549 12.0948
67 1 -1.74744 12.9753 8.48449
206 2 -5.41325 14.0817 13.8293
220 2 0.477375 12.1417 16.3046
89 3 -3.53748 8.13388 8.26016
2 4 13.783 1.32415 3.73808
21 4 6.54991 3.30737 4.54226
251 2 5.2662 6.57578 3.0246
36 4 9.1784 1.75806 4.6791
101 3 5.65252 4.3589 0.147138
40 4 11.7434 2.12625 6.10093
43 4 10.607 2.92579 2.07756
235 2 8.81665 3.87235 0.526266
62 1 7.64394 4.79926 3.89728
228 2 9.20012 1.37393 7.96112
74 1 9.49958 4.21865 1.3456
105 3 5.93893 3.81715 5.89119
122 3 7.56547 2.08383 4.68618
125 3 12.4607 1.67573 4.70285
126 3 10.0842 2.17288 6.0162
127 3 12.0867 1.09239 7.22741
133 3 9.81137 2.4197 3.37164
134 3 10.7557 1.54588 1.07841
234 2 8.83872 4.54571 2.24784
286 2 11.2636 5.66369 4.96946
162 2 12.3179 3.68726 6.46855
164 2 12.1927 3.65605 2.34602
200 2 8.76554 4.48174 3.88955
246 4 4.92372 5.83028 0.694054
37 4 10.3318 0.302386 0.252545
236 2 10.3812 5.02069 1.12316
201 2 7.47898 5.61578 4.67046
202 2 7.2373 4.9322 2.91222
151 2 4.34487 6.46912 4.44467
135 3 6.5191 4.95445 8.11091
275 2 7.35256 1.2726 0.791267
26 4 5.2868 4.37025 7.26791
177 2 12.766 4.17098 0.748411
281 2 11.6143 5.46091 7.91435
161 2 7.83911 3.8604 8.05854
247 1 4.55866 5.82886 2.62071
283 2 13.4298 0.150609 1.70042
152 2 5.4387 5.41423 13.2657
241 2 6.99024 6.08473 13.728
227 2 10.5942 1.72313 9.37414
39 4 8.41372 2.9338 9.4275
41 4 7.94212 2.26629 14.751
42 4 10.718 3.51994 11.7358
45 4 8.77572 6.60858 10.5216
29 4 3.86504 6.80223 10.5011
72 1 9.50222 3.42157 14.9929
73 1 11.5101 5.07417 12.2486
284 2 13.2877 1.41201 14.3684
242 2 5.5464 7.09543 13.0915
264 1 13.4147 2.26539 15.0863
124 3 7.15387 2.35268 10.2464
128 3 8.16816 1.59425 13.2298
129 3 8.32912 1.15594 15.8898
130 3 6.63043 3.13504 15.2204
131 3 11.9413 2.68534 11.2218
132 3 9.3463 3.81123 10.3682
71 1 9.51841 1.4347 9.16459
44 4 6.34307 6.88317 8.56532
138 3 7.56078 7.05796 9.56084
137 3 10.2157 6.62928 9.89209
163 2 10.0794 2.77696 13.1877
165 2 8.44643 5.00565 10.9627
233 2 10.9015 5.97875 11.8732
229 2 9.20989 4.13567 14.1336
230 2 10.5893 2.99244 14.9101
231 2 9.27378 3.95403 16.049
232 2 11.3132 4.88836 13.4202
5 4 13.2935 2.15812 10.3105
76 1 6.4153 7.02856 13.8013
240 2 6.09576 7.29079 14.9044
226 2 9.13972 0.655011 9.89172
266 2 12.7365 2.16104 16.0094
123 3 12.9911 0.611899 9.61686
13 4 8.64888 11.2808 3.35169
263 2 4.41553 13.4755 2.963
46 4 3.54534 10.5346 3.16557
68 1 1.79582 12.7273 6.42295
75 1 6.48106 7.90611 7.02346
139 3 2.62004 9.69923 2.12616
140 3 2.78361 11.0855 4.41519
238 2 7.35774 8.59725 7.32576
149 2 7.35601 12.0607 4.42455
210 2 3.46305 8.02898 8.0622
160 2 6.93937 13.5947 7.50803
166 2 4.50622 11.7721 2.38118
167 2 5.00058 9.75626 3.58721
209 2 3.23267 8.16285 6.07295
217 2 2.84688 13.1972 6.15441
218 2 1.80989 12.2185 7.51452
159 2 2.88103 12.3591 1.04453
141 3 4.709 12.2441 7.9001
294 2 5.04939 13.0806 0.274367
38 4 5.31059 13.6769 8.0708
158 2 1.74848 13.6675 4.61851
262 1 5.54757 13.3824 2.7678
219 2 0.922356 13.4276 6.27589
270 1 6.87267 10.5124 3.56591
271 2 6.45057 10.1891 4.53753
272 2 7.95308 9.36281 3.11739
273 2 6.20181 10.6724 2.6286
282 2 6.05159 12.3006 3.15415
33 4 1.58515 11.1642 5.46268
239 2 5.47932 8.50442 7.04661
291 2 8.32941 10.5116 0.76472
150 2 9.69071 8.79515 0.135857
168 2 3.42488 9.93344 7.74024
253 2 6.38884 7.43896 1.51302
237 2 6.57965 7.21579 6.15628
248 1 6.22001 7.19664 0.405931
195 2 7.42392 8.85108 0.131712
287 2 10.6602 7.68808 2.06037
18 4 8.77643 10.219 15.0499
22 4 0.104656 13.7981 12.6376
245 2 6.78742 11.9814 12.2424
47 4 3.9901 11.2011 8.893
48 4 7.66748 8.21225 12.9232
49 4 6.34778 10.2706 10.6999
244 2 8.13123 12.1455 10.7839
225 2 1.81064 11.0516 13.0067
77 1 7.00551 12.0377 11.0601
121 3 1.1472 13.1093 11.3701
60 1 7.4211 10.4551 16.3676
35 4 1.41085 11.6927 10.7372
142 3 2.66367 11.4968 9.80318
143 3 8.71907 7.41629 11.9781
144 3 8.56378 9.06894 13.9393
145 3 5.09154 10.4867 9.79768
146 3 6.73822 9.30754 11.8516
278 1 3.5665 13.4018 16.1278
153 2 3.48197 7.93584 11.6778
279 2 3.2708 12.3228 16.0954
169 2 7.85918 10.6977 9.92755
223 2 2.40155 9.59119 11.7891
196 2 6.85233 11.1825 15.4066
243 2 6.34119 12.8617 10.5788
136 3 4.66682 7.47156 9.31798
254 2 4.94423 8.55437 16.3216
293 2 3.62261 13.8456 15.0974
252 2 6.56651 7.55357 16.2999
ITEM: TIMESTEP
300
ITEM: NUMBER OF ATOMS
295
ITEM: BOX BOUNDS xy xz yz pp pp pp
-8.1979120000000005e+00 1.5144700000000000e+01 -7.5613120000000000e+00
0.0000000000000000e+00 1.4189300000000001e+01 -6.3660000000000005e-01
0.0000000000000000e+00 1.6498000000000001e+01 5.8050000000000002e-01
ITEM: ATOMS id type x y z
6 4 0.658609 1.61501 5.90343
7 4 -0.250727 3.74214 2.00017
8 4 -0.842195 3.97877 7.6935
10 4 -1.83637 6.53648 5.67318
25 4 0.945281 5.95387 4.05372
27 4 3.38831 6.32639 5.79408
50 1 2.84184 0.805243 2.39215
51 1 2.25818 2.36275 5.23228
52 1 -1.6491 5.00402 1.60692
204 2 4.57192 3.03838 2.47334
79 3 -0.106798 1.08598 4.60527
276 2 5.58697 0.844117 0.348501
54 1 -3.34325 6.77837 4.63177
82 3 0.542078 3.29098 0.558368
84 3 -0.0015214 2.81796 6.7395
85 3 -2.30587 5.04828 6.91174
182 2 -2.98533 6.60579 3.58819
102 3 0.673705 4.60663 3.01161
103 3 -0.524608 6.16966 4.73737
104 3 4.51763 3.17601 8.13067
106 3 1.96812 5.58381 5.32785
107 3 4.27689 5.56164 6.82116
172 2 3.94979 0.856623 2.42675
203 2 5.40184 1.57436 3.39517
81 3 -1.10549 2.55015 2.63298
173 2 2.55388 1.69801 4.21156
174 2 2.93926 2.08403 6.1458
175 2 2.24123 3.4443 5.11806
176 2 -2.19358 5.04388 2.56101
274 1 6.31835 1.7096 0.820106
178 2 -1.11145 6.01096 1.27495
277 2 5.86468 2.07614 1.7871
205 2 4.00555 2.6261 4.11577
171 2 2.36934 1.84351 2.27452
249 2 4.69664 4.59857 2.87596
180 2 1.32299 4.93447 7.50738
250 2 3.5899 6.28152 2.85533
78 3 1.04131 0.605341 0.174978
63 1 4.89601 2.66715 3.46262
170 2 2.34367 0.225101 3.27688
179 2 0.00377272 6.24546 7.76129
96 3 2.92461 0.940656 8.10282
257 3 3.58667 6.38537 0.217834
177 2 -2.2427 4.53386 0.726224
53 1 0.376507 5.25726 8.14079
3 4 0.0594207 2.59879 15.9531
267 1 -0.377617 2.18751 11.3547
295 2 -2.39565 4.976 12.3709
20 4 3.67749 2.14569 8.97157
23 4 2.63518 2.94497 14.1338
28 4 4.52011 4.54355 12.3362
285 2 -0.591959 2.71745 12.3648
61 1 2.23357 3.29629 9.70478
64 1 2.88428 1.16506 13.5266
83 3 -1.36232 3.33091 9.07276
206 2 2.08987 0.577519 14.0378
97 3 3.93896 3.11767 15.3255
98 3 1.09661 2.90463 14.6605
99 3 4.4653 1.67413 10.2984
108 3 3.0466 4.08405 12.9128
9 4 -3.59292 6.70541 8.97711
100 3 6.16151 0.501678 11.9955
148 2 0.413598 6.66157 10.6499
207 2 3.93745 0.82166 13.8369
269 2 0.61639 2.59917 10.7738
181 2 0.579032 5.18478 9.22521
154 2 2.07664 6.79571 9.83331
24 4 5.78427 2.03554 11.162
197 2 2.28551 3.04196 10.7982
198 2 1.29667 3.00952 9.18829
199 2 2.6956 4.32949 9.46548
259 2 0.294719 6.8272 15.4044
208 2 2.70585 1.18953 12.4574
110 3 4.14064 5.47656 11.1517
268 2 -0.291638 0.989656 11.3893
86 3 -2.14966 6.59164 9.82044