ITEM: TIMESTEP
0
ITEM: NUMBER OF ATOMS
295
ITEM: BOX BOUNDS xy xz yz pp pp pp
-8.3339999999999996e+00 1.5144700000000000e+01 -7.6974000000000000e+00
0.0000000000000000e+00 1.4331192999999999e+01 -6.3660000000000005e-01
0.0000000000000000e+00 1.6498000000000001e+01 5.8630499999999997e-01
ITEM: ATOMS id type x y z
6 4 0.873668 1.51332 5.67412
7 4 -0.155869 4.17816 1.96977
8 4 -0.389462 3.86525 7.86563
10 4 -1.89357 6.36565 5.82847
25 4 0.614628 6.28917 4.03516
27 4 3.02932 7.06521 5.78441
50 1 2.99812 1.05407 1.93381
51 1 2.55762 2.09844 5.16096
52 1 -1.49549 5.39273 1.42071
78 3 0.869484 0.577779 0.252676
79 3 0.025014 1.24403 4.40204
180 2 1.86822 4.69379 8.22788
81 3 -1.03349 3.034 2.7187
82 3 0.644528 3.65622 0.563288
84 3 0.362846 2.74585 6.83681
85 3 -1.7882 4.81329 6.9725
96 3 3.14067 0.818425 7.94519
102 3 0.913781 4.88969 3.18883
103 3 -0.993598 6.3027 4.4872
104 3 3.35586 3.86262 7.96494
106 3 1.55559 6.52748 5.43331
172 2 3.02649 0.387195 2.93292
170 2 2.31556 2.01462 1.87473
171 2 4.08061 1.12449 1.36765
250 2 2.76826 4.95692 2.64576
173 2 2.41831 2.28327 4.02024
174 2 3.26088 1.21597 5.42872
175 2 2.84384 3.06613 5.71415
176 2 -1.31012 6.39411 1.95788
277 2 5.85202 1.65279 1.70232
276 2 5.33218 0.37603 0.265145
274 1 6.04202 1.2237 0.620637
205 2 4.4749 2.28286 3.9029
26 4 4.493 4.60334 7.15678
177 2 -2.6468 5.10238 1.5221
203 2 6.07334 1.22327 3.39431
204 2 5.73835 3.0919 2.69507
63 1 5.57924 2.35891 3.57734
178 2 -1.21871 5.47247 0.301137
247 1 3.9289 4.98192 2.5442
179 2 0.439087 6.06489 7.65035
249 2 4.57365 4.00046 2.93235
107 3 3.94626 5.9324 6.30021
105 3 5.34665 3.5436 6.20298
3 4 0.0617235 2.94935 15.9463
9 4 -3.97392 7.1666 9.35973
19 4 5.18987 3.22382 15.7865
20 4 3.43572 2.23954 8.82339
23 4 2.78007 2.68039 13.945
28 4 4.52189 4.57742 12.1508
100 3 6.15645 0.797326 11.3111
61 1 2.05072 2.27555 10.1365
64 1 2.57501 0.890477 13.3735
83 3 -0.746002 3.22376 9.33971
86 3 -2.31265 6.89028 9.87828
97 3 3.98944 2.67359 14.9621
98 3 1.23709 2.97144 14.8128
99 3 4.7161 2.25512 9.70434
108 3 3.13274 3.70874 12.4955
264 1 -1.57612 2.92086 15.1191
190 2 -3.48341 7.25191 13.3801
148 2 0.386068 6.59793 10.602
269 2 0.153625 2.04606 12.052
284 2 -1.27264 3.07515 14.0082
181 2 0.395118 5.3756 9.41681
53 1 0.774909 5.23774 8.32131
257 3 2.782 6.91182 16.366
197 2 2.0191 1.09626 10.3356
198 2 1.01019 2.69332 9.87118
199 2 2.53736 2.87154 11.0548
267 1 -0.74376 1.2769 11.9184
208 2 2.87999 0.931968 12.2765
206 2 1.51262 0.588425 13.6037
259 2 0.150242 6.1679 15.7212
260 2 0.570703 6.88015 13.9563
232 2 -2.98122 5.98588 11.4605
233 2 -2.64017 4.91143 13.1073
265 2 -2.22885 3.77374 15.5117
256 1 0.226406 7.21271 14.9922
215 2 6.59711 0.416336 8.27353
1 4 -5.78125 13.5174 1.02913
4 4 -5.3179 13.2065 7.51547
12 4 -2.3482 9.44781 1.39397
15 4 -2.98058 9.10639 7.25195
16 4 -4.02992 11.2177 5.4111
30 4 1.6187 8.68561 2.30504
31 4 -1.21529 11.3888 3.67983
216 2 -2.93569 13.8352 7.83199
56 1 -3.88704 8.6744 2.37736
157 2 1.45366 9.56151 6.51442
222 2 -0.890821 11.9745 0.436932
66 1 -0.940353 13.0879 2.92897
67 1 -1.81247 13.4256 7.80917
87 3 -6.6144 12.4899 2.32724
88 3 -3.10325 10.5142 0.469452
90 3 -1.8996 7.96667 6.75276
91 3 -5.25961 11.4655 4.38388
92 3 -3.95305 9.61657 5.97783
93 3 -4.2933 12.2356 6.74013
111 3 0.946755 7.52612 3.10679
112 3 1.71292 8.32542 0.773362
113 3 -1.2632 10.0523 2.37047
114 3 -2.58621 11.491 4.48984
115 3 -2.14676 10.3684 7.92805
116 3 0.11046 11.2602 4.71765
155 2 0.455578 9.92261 2.38252
292 2 -1.37492 12.9314 6.66008
187 2 -3.9338 9.11254 3.39502
189 2 -0.641386 7.89344 0.678063
211 2 1.73011 8.55624 7.68546
212 2 -0.401314 12.8908 1.92558
80 3 -6.68808 13.5272 6.68118
214 2 -1.98486 13.3973 2.67392
287 2 -3.51889 7.61996 2.33049
188 2 -4.78803 8.88804 1.77825
213 2 -0.382458 13.767 3.61112
57 1 -1.59271 8.21481 0.115391
280 3 -4.87661 12.5468 0.111693
11 4 -1.05327 7.66234 10.4063
14 4 -4.52983 12.0838 15.8478
17 4 -2.35612 9.55217 12.7013
32 4 -1.47651 11.6457 8.53913
34 4 -1.79989 12.2241 14.5844
288 2 -1.93064 9.41226 15.6315
55 1 0.616206 8.14382 9.54756
58 1 -3.52053 8.312 13.6886
59 1 -3.23333 10.5592 11.3897
69 1 -0.813147 12.1136 16.1861
261 2 -0.647919 7.85269 14.9701
224 2 0.297781 9.69167 11.7843
94 3 -1.23885 8.60137 11.8737
95 3 -5.50968 11.0358 14.8154
117 3 -1.86296 10.5165 13.8958
118 3 -1.08834 13.2671 13.5344
119 3 -3.32157 12.8131 15.0307
120 3 -0.193479 11.4538 9.45872
89 3 -3.96001 8.53402 8.54908
154 2 2.24439 7.36811 10.2603
156 2 -2.74456 12.6285 9.31885
184 2 -0.618242 8.84652 8.76909
186 2 0.937422 9.09149 10.3301
191 2 -3.05303 8.51874 14.7874
192 2 -4.15836 9.77854 11.356
193 2 -2.77769 10.6024 10.3121
194 2 -3.58149 11.5656 11.7529
147 2 -5.9064 12.4448 8.93609
255 4 1.58884 7.94542 16.1189
221 2 -0.503849 11.0615 16.3863
258 2 1.50625 8.55781 14.4551
207 2 -4.38182 13.9884 14.0472
290 2 -4.46861 8.89619 13.4515
185 2 1.45323 7.85404 8.78119
70 1 1.22218 10.4275 11.7726
289 2 -2.96714 7.9267 16.4472
268 2 -8.04811 13.9975 11.8112
220 2 0.000519631 12.8745 15.9297
236 2 11.2628 4.09313 0.709337
21 4 6.54026 3.11321 5.15145
127 3 12.3848 0.847452 6.97725
36 4 9.16577 1.68367 4.9791
252 2 7.03774 6.40878 0.590049
40 4 11.9606 1.9734 5.914
43 4 10.216 2.55811 2.32147
54 1 11.5883 6.07073 5.08997
62 1 7.45781 4.71211 5.01739
248 1 6.01149 6.78871 0.926228
74 1 10.5556 4.43717 1.57565
251 2 4.39514 5.96867 2.94893
122 3 7.73155 1.83198 5.64791
125 3 12.4297 1.58532 4.47455
126 3 10.3755 2.31203 5.88507
37 4 10.3521 0.369173 0.123331
133 3 9.10282 2.27665 3.42542
134 3 10.6583 1.50072 1.28959
226 2 9.56736 0.460386 8.01328
235 2 9.34653 4.35566 1.23856
162 2 12.7456 3.52319 6.2155
164 2 11.5465 3.54329 2.98224
202 2 7.15528 5.70443 5.72215
2 4 13.798 1.56876 3.57849
286 2 11.1856 5.28839 5.82147
200 2 7.16667 4.85076 3.88115
201 2 8.51666 4.21561 5.21658
253 2 5.89517 6.81595 2.07054
161 2 9.15545 2.68992 7.67529
234 2 10.792 5.49081 1.89058
135 3 5.83437 5.15052 8.2253
283 2 13.6142 0.916731 1.25257
246 4 4.59036 5.47199 0.702722
237 2 6.22743 6.9572 5.92862
262 1 13.666 0.246229 2.14963
182 2 11.7622 5.65098 4.04074
101 3 5.30086 4.17222 0.129673
275 2 7.14207 1.02363 0.48458
281 2 10.7523 5.97061 8.2346
183 2 11.0127 7.03906 5.09042
5 4 13.5338 1.92063 10.3892
71 1 9.89062 1.32087 8.82194
44 4 6.34845 6.54279 8.67796
39 4 8.92433 2.87116 9.39712
41 4 8.04306 2.4052 14.48
42 4 11.1246 3.71706 11.6228
129 3 8.56791 1.35253 15.5254
29 4 3.95747 7.14345 10.5547
72 1 9.36865 3.81056 14.4005
295 2 10.7474 5.67904 12.8437
45 4 8.575 6.67504 10.7782
138 3 7.73707 6.80699 9.49891
266 2 13.2097 1.82071 15.3562
124 3 7.46989 2.6392 9.85772
128 3 8.22239 1.62515 13.072
73 1 11.7555 5.27593 12.3179
130 3 6.6146 3.25382 15.0277
131 3 12.2765 2.88735 10.998
132 3 9.78726 3.97603 10.1771
227 2 9.82988 0.773645 9.88812
76 1 6.04745 6.87345 14.2504
152 2 5.21922 5.17105 13.6059
242 2 4.98992 6.98042 13.6959
163 2 10.3541 2.82194 12.9134
165 2 8.74477 4.96148 10.9543
123 3 13.2658 0.596073 9.39833
229 2 9.31842 4.3485 13.4209
230 2 10.3694 3.33936 14.65
231 2 9.03432 4.49317 15.249
241 2 6.76614 5.95494 13.977
110 3 4.1685 5.78064 11.273
240 2 5.9359 7.07088 15.3961
228 2 10.9819 1.75911 8.73781
137 3 10.057 7.18138 10.5243
24 4 6.04517 2.40307 10.6473
285 2 13.651 1.38008 12.7081
109 3 5.74607 3.61073 11.7328
150 2 9.3737 8.55263 0.21558
38 4 5.41057 13.6158 7.95152
46 4 3.53531 10.5614 3.38578
68 1 1.52554 12.7245 6.60155
75 1 6.71562 7.25905 6.93984
139 3 3.33999 8.97649 3.04319
140 3 2.79476 11.0423 4.68236
158 2 1.62849 13.7173 4.86602
149 2 6.97977 11.4185 4.56354
151 2 3.65114 8.00699 4.49712
160 2 6.9887 13.3336 7.38108
166 2 3.29371 11.5287 1.96376
167 2 5.22061 10.6568 3.84979
278 1 3.55113 12.2601 0.159189
217 2 1.65593 12.1898 7.63494
218 2 0.507329 13.2998 6.475
219 2 2.42387 13.2948 6.33842
254 2 5.73246 7.73632 0.383305
263 2 5.04875 13.3091 2.38999
291 2 8.80586 10.4826 1.05132
209 2 3.27707 9.2852 6.57581
239 2 6.37299 8.3672 7.14037
294 2 4.38539 11.7627 0.664527
270 1 7.07661 10.0344 3.56977
271 2 6.69133 9.1041 4.10872
272 2 8.50711 9.66174 2.92235
273 2 6.4729 10.3594 2.66334
282 2 6.96368 13.4958 2.18643
159 2 2.12858 12.5026 1.11741
210 2 3.59938 8.04222 8.04279
195 2 7.33436 9.26326 0.627312
33 4 1.44835 11.0514 5.623
13 4 8.60287 11.437 3.50885
60 1 8.07742 10.0408 0.256164
141 3 4.77146 12.1749 8.04002
65 1 2.84637 8.39643 7.24266
238 2 7.89062 7.21913 6.87414
18 4 8.44656 10.0531 15.2406
225 2 1.46166 10.8686 12.7843
196 2 6.89491 11.503 16.0758
47 4 3.99611 11.2641 9.12569
48 4 6.88754 8.14376 13.1195
49 4 5.52854 10.7437 11.772
168 2 3.79464 9.7886 8.3366
35 4 1.15651 11.9234 10.5762
77 1 5.37986 12.1712 13.023
121 3 0.864926 13.0863 11.5727
136 3 4.72325 7.3845 9.28207
245 2 5.87758 11.8442 14.0293
142 3 2.58111 11.7812 9.66621
279 2 2.58242 12.1945 15.8171
144 3 7.72681 9.13541 14.141
145 3 4.80155 11.0646 10.4469
146 3 5.58537 9.1882 12.2403
243 2 4.16508 12.0711 13.0625
153 2 4.2789 8.4226 11.5794
244 2 5.77512 13.286 12.596
169 2 6.97661 11.7144 11.9555
223 2 2.15601 9.92575 11.2395
22 4 -0.384994 14.0342 12.3289
293 2 3.68766 14.1274 15.7639
143 3 7.75535 7.31797 12.0203
ITEM: TIMESTEP
100
ITEM: NUMBER OF ATOMS
295
ITEM: BOX BOUNDS xy xz yz pp pp pp
-8.3339999999999996e+00 1.5144700000000000e+01 -7.6974000000000000e+00
0.0000000000000000e+00 1.4331192999999999e+01 -6.3660000000000005e-01
0.0000000000000000e+00 1.6498000000000001e+01 5.8630499999999997e-01
ITEM: ATOMS id type x y z
6 4 0.825583 1.57345 5.95415
7 4 -0.150907 4.14578 2.02316
8 4 -0.529359 3.83739 7.88335
10 4 -2.11358 6.30039 5.79726
25 4 0.643559 6.26381 4.13773
105 3 5.27528 3.44229 6.22828
50 1 3.19519 1.09101 1.76692
51 1 2.48525 2.02603 5.23818
52 1 -1.35072 5.46548 1.32519
78 3 1.0751 0.937547 0.113607
79 3 0.0347469 1.36747 4.70004
180 2 1.77779 4.80667 7.96838
81 3 -1.16234 3.14111 2.59069
82 3 0.412624 3.44838 0.65919
84 3 0.131118 2.65325 6.91147
85 3 -1.83495 4.71396 6.935
96 3 3.18592 0.852874 7.93965
102 3 1.11085 4.9278 3.0829
103 3 -0.956103 6.18427 4.61689
104 3 3.38824 3.86467 7.84851
106 3 1.55629 6.42175 5.52535
172 2 3.24699 0.688744 2.81532
170 2 2.55247 2.00238 1.7172
171 2 4.29581 1.15308 1.24957
250 2 2.95566 4.98002 2.63067
173 2 2.28158 2.04047 4.0578
174 2 3.15644 1.21582 5.57047
175 2 2.65381 3.03868 5.7006
176 2 -1.11484 6.47146 1.80886
277 2 6.06472 1.75078 1.58507
27 4 2.98387 7.01865 5.85568
274 1 6.23564 1.32322 0.529951
205 2 4.65552 2.55619 3.64355
26 4 4.65217 4.5379 7.17079
177 2 -2.49988 5.12851 1.46361
203 2 6.03069 1.31412 3.36459
276 2 5.56464 0.441581 0.228861
63 1 5.74613 2.42581 3.49923
178 2 -1.011 5.48909 0.278517
247 1 4.1377 5.02171 2.58191
179 2 0.385334 5.90864 7.38782
249 2 4.65109 4.07092 2.95658
53 1 0.768983 5.16286 8.19247
257 3 3.54412 6.25446 0.113216
3 4 0.125735 2.87633 15.8424
256 1 0.220043 7.03612 15.0862
19 4 5.26363 3.22357 15.6639
20 4 3.55058 2.21448 8.75965
23 4 2.70965 2.69449 13.8941
28 4 4.59977 4.50831 12.245
100 3 6.15563 0.801523 11.5288
61 1 2.20201 2.29036 10.076
64 1 2.64469 0.8943 13.2646
83 3 -0.776486 3.15067 9.36837
86 3 -2.46566 6.94737 9.81448
97 3 3.9692 2.66026 14.8924
98 3 1.21017 3.23985 14.729
99 3 4.92507 2.0904 9.49488
108 3 3.12367 3.68077 12.5232
264 1 -1.57534 2.68952 15.0418
190 2 -3.2955 7.12002 13.2011
148 2 0.360458 6.79069 10.4884
269 2 0.212855 1.80665 11.6494
284 2 -1.28962 2.45583 13.956
181 2 0.690892 5.42942 9.30617
233 2 -2.47052 4.90446 12.7796
265 2 -2.13567 3.71145 15.1414
197 2 2.17923 1.21339 10.4027
198 2 1.19828 2.62996 9.67273
199 2 2.50834 2.98669 10.9532
267 1 -0.681198 1.14872 11.672
208 2 2.91863 1.07519 12.1459
206 2 1.55582 0.633584 13.3423
259 2 0.0396824 6.08598 15.9919
260 2 0.567522 6.54234 14.1506
232 2 -2.99593 5.98738 11.3339
1 4 -5.72224 13.555 1.0287
4 4 -5.24652 13.2823 7.534
12 4 -2.4244 9.50817 1.49729
15 4 -3.10714 9.06321 7.1308
16 4 -4.08794 11.313 5.40605
30 4 1.57161 8.60473 2.30276
31 4 -1.28114 11.4954 3.88489
216 2 -2.59842 13.92 7.76013
56 1 -3.73388 8.6563 2.69976
157 2 1.40515 9.57226 6.31276
222 2 -1.04418 11.6614 0.619017
66 1 -1.09303 13.1474 2.95418
67 1 -1.58327 13.3642 7.82157
87 3 -6.59748 12.5515 2.29872
88 3 -3.20465 10.5006 0.593934
90 3 -2.15868 7.63661 6.52498
91 3 -5.40991 11.2844 4.51466
92 3 -3.92267 9.60407 5.92207
93 3 -4.26759 12.4908 6.52064
111 3 0.987835 7.42377 3.13387
112 3 1.84763 8.27861 0.723793
113 3 -1.12295 10.2834 2.53009
114 3 -2.6551 11.5793 4.64115
115 3 -2.11924 10.3245 7.86771
116 3 0.00417189 11.2067 4.7468
155 2 0.438218 9.89386 2.38838
292 2 -1.30681 12.9798 6.70997
187 2 -3.78959 9.27023 3.61838
189 2 -0.755603 7.97382 0.728176
211 2 1.70104 8.41126 7.60398
212 2 -0.452217 13.1537 2.02577
80 3 -6.708 13.5219 6.90469
214 2 -2.18051 13.4684 2.81704
287 2 -3.32726 7.6155 2.89982
188 2 -4.71499 8.60803 2.13359
213 2 -0.563072 13.6884 3.84496
57 1 -1.70632 8.29978 0.195859
280 3 -4.81216 12.5637 0.221075
89 3 -4.20683 8.49997 8.17921
289 2 -2.45816 7.47585 0.0670172
11 4 -1.25033 7.7496 10.3979
14 4 -4.51927 11.9889 15.9611
17 4 -2.35564 9.42702 12.7741
32 4 -1.55064 11.6265 8.57538
34 4 -1.75509 12.1538 14.6391
288 2 -2.12238 9.48733 15.7413
55 1 0.676271 8.08343 9.734
58 1 -3.40747 8.16699 13.7056
59 1 -3.52459 10.4472 11.4822
69 1 -0.885246 12.1563 16.2917
261 2 -0.670317 7.77936 14.8516
224 2 0.157627 9.8003 11.6825
94 3 -1.39054 8.62543 11.7133
95 3 -5.35166 11.0177 14.9244
117 3 -1.78439 10.4488 13.9282
118 3 -0.759156 13.0155 13.6093
119 3 -3.2852 12.8389 14.9024
120 3 -0.324213 11.4934 9.55317
215 2 -0.706341 13.9539 8.36007
220 2 -0.214513 13.101 16.1213
156 2 -2.74992 12.7187 9.24367
184 2 -0.694316 8.87516 8.95674
186 2 1.06564 8.87079 10.4253
191 2 -3.05985 8.29845 14.8915
192 2 -4.41261 9.75148 11.697
193 2 -3.22066 10.4953 10.4026
194 2 -3.69522 11.4655 11.9234
147 2 -5.27962 12.2979 8.94153
255 4 1.6211 7.70102 16.1718
221 2 -0.26281 11.1884 16.2815
258 2 1.52932 8.28364 14.5083
207 2 -4.38667 13.9231 13.8946
290 2 -4.46053 8.60423 13.5623
185 2 1.3634 7.87005 8.88577
70 1 1.22284 10.4487 11.8469
9 4 -4.09904 7.22747 9.19619
154 2 2.37725 7.34805 10.3773
236 2 11.3368 4.10978 0.656514
21 4 6.54638 3.11258 5.27471
127 3 12.3082 0.866701 6.98152
36 4 9.16838 1.65447 4.97225
252 2 7.22144 6.05675 0.534203
40 4 11.9678 1.93657 5.80901
43 4 10.3457 2.63289 2.21941
54 1 11.3392 6.29862 5.09502
62 1 7.467 4.72584 4.8471
248 1 6.27176 6.65526 0.705994
74 1 10.6961 4.41124 1.48115
251 2 4.58276 5.93435 3.05997
122 3 7.66117 2.03205 5.73774
125 3 12.5187 1.59191 4.37724
126 3 10.4247 2.18163 5.79324
37 4 10.4578 0.317056 0.303233
133 3 9.29003 2.15463 3.47536
134 3 10.9903 1.42035 1.39262
226 2 9.73571 0.468055 8.01239
235 2 9.17254 3.85923 1.12369
162 2 12.6787 3.55142 6.24528
164 2 11.5521 3.89023 2.90533
202 2 7.14314 5.69348 5.5402
2 4 13.8405 1.65735 3.49018
286 2 10.9126 5.36329 5.68023
200 2 7.10756 4.79452 3.77302
201 2 8.58959 4.49155 4.86024
204 2 6.16 3.06588 2.70613
161 2 9.23214 2.8094 7.69115
234 2 10.6175 5.51838 1.63895
238 2 7.93437 6.84477 6.66479
283 2 13.4312 0.858788 1.22548
246 4 4.77501 5.45994 0.806964
275 2 7.26128 1.049 0.355789
262 1 13.6905 0.288932 2.16636
182 2 11.5997 6.07525 3.99841
101 3 5.32702 4.0353 0.165393
107 3 4.11204 6.02409 6.30393
5 4 13.4005 1.99747 10.32
71 1 9.94446 1.41074 8.81398
44 4 6.2804 6.78776 8.52799
39 4 8.91819 2.93049 9.45496
41 4 8.02724 2.43296 14.5043
42 4 11.0411 3.73155 11.4685
129 3 8.78671 1.42844 15.7434
29 4 4.06455 7.10622 10.5828
72 1 9.3072 3.8874 14.4493
295 2 10.9301 5.73326 12.7077
45 4 8.58748 6.83683 10.7219
138 3 7.49934 6.79367 9.48053
266 2 12.9889 1.87064 15.5615
124 3 7.45994 2.59087 9.88253
128 3 8.08258 1.74276 12.9758
73 1 11.8034 5.28607 12.1403
130 3 6.64487 3.2208 14.8221
131 3 12.1261 2.67824 11.009
132 3 9.92045 4.12433 10.1498
227 2 9.82376 0.904355 10.0104
76 1 5.87689 6.97845 14.0017
152 2 5.06549 5.22782 13.8093
242 2 4.90725 7.00991 13.4266
163 2 10.0761 3.08242 12.807
165 2 8.71042 5.19631 10.9673
123 3 13.035 0.778312 9.38644
229 2 8.9226 4.3649 13.5112
230 2 10.429 3.78202 14.4099
231 2 8.99076 4.57228 15.3144
241 2 6.6242 6.06339 13.7333
110 3 4.39192 5.76703 11.3434
240 2 5.73305 7.14986 15.1879
228 2 10.9641 1.75682 8.5869
285 2 14.0426 1.08413 12.6384
109 3 5.75836 3.5053 11.7341
135 3 5.78343 5.14028 8.29444
24 4 6.07391 2.36887 10.6131
281 2 10.6926 5.80843 8.39643
237 2 6.25338 7.09274 5.88091
38 4 5.29534 13.6623 8.07388
46 4 3.53966 10.4697 3.46965
68 1 1.65194 12.6339 6.75923
75 1 6.87207 7.31873 6.79801
139 3 3.16502 8.96319 3.11773
140 3 2.6996 11.1227 4.57708
158 2 1.54779 13.7238 5.04707
149 2 6.91763 11.3332 4.50154
151 2 3.48005 7.83592 4.47182
160 2 6.92103 13.3361 7.56026
166 2 3.50784 11.5322 2.15027
167 2 5.21411 10.5178 3.77718
278 1 3.57143 12.1754 0.280219
217 2 1.44748 11.845 7.6855
218 2 0.878339 13.4989 6.75547
219 2 2.7451 12.9391 6.54116
254 2 6.15079 7.56677 0.0716004
263 2 5.11604 13.4383 2.57538
291 2 8.64121 10.6187 0.808179
209 2 3.16993 9.21991 6.53126
239 2 6.98646 8.45504 7.02552
294 2 4.55065 12.0449 0.837879
270 1 7.07279 9.97621 3.34258
271 2 6.56631 9.08974 3.7323
272 2 8.42227 9.56201 2.63376
273 2 6.45828 10.3874 2.50555
282 2 7.08069 13.4664 2.11769
159 2 2.2125 12.3572 1.12827
210 2 3.67437 8.08132 8.10903
195 2 8.20353 8.8397 0.966078
33 4 1.45467 11.111 5.53875
13 4 8.50509 11.3743 3.5125
60 1 8.3064 9.71982 0.26413
141 3 4.51885 12.3056 8.12664
65 1 2.82817 8.41534 7.2164
253 2 6.17521 6.99197 1.83943
183 2 10.7299 7.25714 5.25374
18 4 8.61564 9.9115 15.1644
225 2 1.2105 11.064 12.7625
196 2 6.66269 10.6014 16.0998
47 4 3.75025 11.374 9.13754
48 4 6.90535 8.2513 13.0388
49 4 5.40042 10.7911 11.8224
168 2 3.57163 9.84398 8.42868
35 4 1.02904 11.8241 10.4466
77 1 5.6717 12.1711 13.0766
121 3 0.735483 13.1952 11.3507
136 3 4.71248 7.53062 9.27243
245 2 6.19219 11.8207 13.9531
142 3 2.35245 11.8705 9.63867
279 2 2.78876 11.9627 15.9918
144 3 7.79589 9.13057 14.0673
145 3 4.70537 11.0536 10.4367
146 3 5.40291 9.35922 12.5154
243 2 4.45294 12.245 13.2897
153 2 4.38548 8.28483 11.7208
244 2 6.10273 13.1593 12.58
169 2 7.03024 11.4196 11.8498
223 2 2.15836 9.87483 11.6426
22 4 -0.165803 14.0696 12.3174
293 2 3.4736 14.1212 15.7255
143 3 7.8434 7.43459 12.0213
268 2 6.99572 13.8572 11.2417
137 3 10.0417 7.46301 10.4917
150 2 8.92621 8.8285 16.484
ITEM: TIMESTEP
200
ITEM: NUMBER OF ATOMS
295
ITEM: BOX BOUNDS xy xz yz pp pp pp
-8.3339999999999996e+00 1.5144700000000000e+01 -7.6974000000000000e+00
0.0000000000000000e+00 1.4331192999999999e+01 -6.3660000000000005e-01
0.0000000000000000e+00 1.6498000000000001e+01 5.8630499999999997e-01
ITEM: ATOMS id type x y z
6 4 0.829552 1.52806 5.94774
7 4 -0.102204 4.24501 1.8958
8 4 -0.57952 3.86467 7.85634
10 4 -2.18228 6.17518 5.77616
25 4 0.656263 6.14654 4.09078
105 3 5.33823 3.50411 6.21124
50 1 3.29462 0.883407 1.94069
51 1 2.48026 2.25451 5.47825
52 1 -1.35087 5.52106 1.36638
78 3 1.08933 0.812685 0.121123
79 3 -0.0162043 1.21872 4.57301
180 2 1.86488 4.61513 8.1537
81 3 -1.04927 3.063 2.83992
82 3 0.628812 3.63238 0.533699
84 3 0.164706 2.77031 6.90637
85 3 -2.05711 4.77901 7.01699
96 3 3.2675 0.778473 7.96759
102 3 0.991106 4.81957 3.05485
103 3 -1.1041 6.02384 4.6099
104 3 3.44722 3.97596 7.97163
106 3 1.60912 6.23862 5.45178
172 2 3.31415 0.335173 2.96665
170 2 2.76039 1.88902 2.01276
171 2 4.44012 1.00049 1.53847
250 2 3.33924 5.14531 2.36784
173 2 2.46603 2.32551 4.32492
174 2 3.30556 1.57873 5.89725
175 2 2.32622 3.29925 6.04017
176 2 -0.976971 6.39582 1.96553
277 2 6.0476 1.56746 1.70424
27 4 2.96953 6.95558 5.76255
274 1 6.21643 1.10937 0.624653
205 2 4.57053 2.40133 3.74604
26 4 4.60106 4.59953 7.09066
177 2 -2.51327 5.24648 1.58853
203 2 6.09499 1.40607 3.43647
276 2 5.55748 0.20275 0.410456
63 1 5.66965 2.42761 3.49363
178 2 -1.18857 5.64815 0.241902
247 1 4.4738 5.198 2.62898
179 2 0.505591 6.00363 7.73228
249 2 4.8927 4.21267 3.05186
107 3 4.10764 5.83508 6.04087
257 3 3.63388 6.15066 0.108082
3 4 0.151736 2.81648 15.7904
256 1 0.382202 6.87764 15.2305
19 4 5.23973 3.10448 15.9108
20 4 3.54631 2.205 8.78072
23 4 2.70224 2.76837 13.8296
28 4 4.49851 4.55526 12.1011
100 3 6.06095 0.901216 11.6492
61 1 2.15874 2.28944 10.0492
64 1 2.49089 0.970456 13.2239
83 3 -1.01897 3.19938 9.23441
86 3 -2.54676 7.0123 9.86773
97 3 3.99971 2.75895 14.8722
98 3 1.14112 3.18606 14.5874
99 3 4.91123 2.07471 9.54213
108 3 3.06816 3.71294 12.4893
264 1 -1.50839 2.60312 14.9203
190 2 -2.94467 7.07149 13.5577
148 2 0.165469 6.63768 10.5881
269 2 0.306198 2.28992 11.5046
284 2 -1.47376 3.33686 14.0435
181 2 0.3722 5.25115 9.45131
233 2 -2.40086 4.84195 12.6322
232 2 -3.01637 5.87744 11.1124
197 2 1.85166 1.18118 10.1219
198 2 1.32476 2.85072 9.56527
199 2 2.45768 2.8253 11.0287
267 1 -0.414229 1.40651 11.5144
208 2 2.48149 1.05434 12.0682
206 2 1.52194 0.686658 13.764
259 2 0.234558 5.89512 15.7262
260 2 0.811627 6.76016 14.1509
24 4 6.0408 2.29116 10.6619
53 1 0.765665 5.09389 8.30526
268 2 0.0440221 0.445671 11.0591
285 2 -0.894052 1.268 12.5258
261 2 -0.657504 7.32521 15.2908
207 2 3.46047 0.51567 13.5631
1 4 -5.50214 13.525 0.934215
4 4 -5.23561 13.2081 7.57965
12 4 -2.43013 9.4642 1.49501
15 4 -3.05209 9.01872 7.0865
16 4 -4.14414 11.29 5.32059
30 4 1.50189 8.56817 2.42172
31 4 -1.28866 11.5526 3.84975
216 2 -2.57095 13.7083 7.77774
56 1 -3.41025 8.44439 2.73615
157 2 1.47956 9.67846 6.56344
222 2 -0.823378 12.105 0.427099
66 1 -1.0676 13.2266 2.99973
67 1 -1.61856 13.0939 7.72528
87 3 -6.52588 12.5067 2.06046
88 3 -3.23215 10.4889 0.626987
90 3 -2.12533 7.78336 6.54281
91 3 -5.58459 11.4311 4.37066
92 3 -3.98455 9.78158 5.88057
93 3 -4.43161 12.3422 6.53356
111 3 0.787601 7.50151 3.27421
112 3 1.63743 8.18359 0.828834
113 3 -1.06615 10.3839 2.62123
114 3 -2.7761 11.6195 4.41666
115 3 -2.28528 10.2279 7.8834
116 3 -0.0108714 11.3425 4.89867
155 2 0.46092 9.99339 2.49619
292 2 -1.40425 12.6887 6.62802
187 2 -3.02725 8.70228 3.74559
189 2 -0.649076 7.9503 0.723067
211 2 1.7265 8.20999 7.50587
212 2 -0.581406 13.1249 1.94613
80 3 -6.73432 13.6844 7.18943
214 2 -2.1983 13.5003 2.95497
287 2 -3.39788 7.32187 2.59929
188 2 -4.4354 8.87035 2.57078
213 2 -0.464705 13.7348 3.84831
57 1 -1.59319 8.25526 0.244084
215 2 -0.760007 13.7099 8.08803
89 3 -4.13506 8.36088 8.03903
289 2 -2.30455 7.38262 0.200637
11 4 -1.20202 7.82295 10.4483
14 4 -4.44166 12.0698 15.7651
17 4 -2.59778 9.47849 12.9275
32 4 -1.5434 11.4235 8.58792
34 4 -1.6617 12.1925 14.5409
288 2 -2.10683 9.39497 15.7467
55 1 0.658009 8.10239 9.70853
58 1 -3.44793 8.02383 13.8735
59 1 -3.85976 10.6036 12.0315
69 1 -0.764816 12.1299 16.2297
280 3 -5.17267 13.3551 16.4377
224 2 0.112499 9.90884 11.8969
94 3 -1.49858 8.84247 11.6641
95 3 -5.40792 11.1099 14.9175
117 3 -1.86753 10.3882 14.0643
118 3 -0.78468 13.0607 13.5761
119 3 -3.19691 12.6888 14.8445
120 3 -0.320328 11.5299 9.60763
154 2 2.4287 7.45984 10.3777
70 1 1.04542 10.518 11.9278
156 2 -2.81973 12.5385 9.11576
184 2 -0.52429 8.88116 8.99831
186 2 1.19532 8.8623 10.3892
191 2 -3.18248 8.2752 15.0729
192 2 -4.76371 10.2824 12.6001
193 2 -3.96125 10.3751 10.954
194 2 -3.52205 11.6748 12.244
147 2 -5.50292 12.3012 8.9197
255 4 1.65548 7.61627 16.3703
221 2 -0.68725 11.0041 16.4704
258 2 1.75916 8.20062 14.7437
9 4 -4.16607 7.27115 9.18974
290 2 -4.52518 8.07523 13.6375
185 2 1.43668 7.84855 8.91013
236 2 11.312 4.50965 0.674275
21 4 6.5575 3.33913 5.16468
127 3 12.3951 0.872818 6.84889
36 4 9.18834 1.69543 4.87857
252 2 7.42388 6.07052 0.275572
40 4 11.8754 2.03871 5.79957
43 4 10.4892 2.6361 2.19855
54 1 11.2889 5.92678 4.96827
62 1 7.42845 4.99247 4.90002
248 1 6.53713 6.56171 0.801271
74 1 10.7929 4.43539 1.68655
251 2 4.77701 6.15825 3.18002
122 3 7.68221 2.1601 5.43767
125 3 12.3716 1.6283 4.31933
126 3 10.2692 2.32804 5.99414
37 4 10.5691 0.338972 0.194022
133 3 9.52172 2.37597 3.47254
134 3 11.1776 1.37955 1.20009
226 2 9.53853 0.582908 7.94542
235 2 9.29242 3.73985 1.14547
162 2 12.5423 3.61838 6.29987
164 2 11.9605 3.83397 2.79093
202 2 7.13123 5.90086 5.56482
2 4 13.8958 1.64104 3.57183
286 2 10.9722 4.96224 5.46802
200 2 7.13094 5.13259 3.7753
201 2 8.53913 4.65653 5.00419
204 2 5.95174 3.07633 2.59883
161 2 8.98442 2.90675 7.65933
234 2 10.4429 5.43113 2.02359
135 3 5.90572 5.11616 8.04348
283 2 13.5008 0.680813 1.2191
246 4 4.95087 5.39664 0.75608
275 2 7.29672 0.898477 0.437593
262 1 13.777 0.252419 2.24429
182 2 11.5265 5.82958 3.82328
101 3 5.52418 3.94553 0.198929
253 2 6.58736 6.47901 1.97865
183 2 10.6849 6.82704 5.23938
5 4 13.4123 1.94642 10.2684
71 1 9.91499 1.47579 8.68129
44 4 6.32041 6.68456 8.4815
39 4 8.92339 2.88669 9.43345
41 4 8.24308 2.44636 14.6216
42 4 10.9578 3.69852 11.6349
129 3 8.68372 1.41636 15.8049
29 4 4.10187 7.19727 10.5774
72 1 9.2706 4.03048 14.4354
295 2 10.9919 5.59165 12.8591
45 4 8.46695 6.89275 10.6374
138 3 7.63519 6.91385 9.33759
266 2 13.4324 1.57815 14.5778
124 3 7.47523 2.52985 9.94998
128 3 8.33253 1.65115 13.1612
73 1 11.858 5.22121 12.0855
130 3 6.56345 3.1516 15.0855
131 3 12.2203 2.72475 11.1549
132 3 9.71164 4.01751 10.2401
227 2 9.97803 0.926454 9.83189
76 1 6.22105 6.75264 14.0991
152 2 5.28427 5.13138 13.537
242 2 5.16967 6.81804 13.5861
163 2 10.2103 3.05456 13.0133
165 2 8.90617 5.31181 10.9826
123 3 12.8292 0.740571 9.38255
229 2 9.14781 4.53472 13.4113
230 2 10.3275 3.85099 14.7471
231 2 8.70259 4.6008 15.2923
241 2 6.92341 5.9002 13.6867
110 3 4.23511 5.86573 11.2992
240 2 6.12707 6.8955 15.326
228 2 10.9072 1.95144 8.49234
265 2 12.9454 2.99808 15.7981
109 3 5.53544 3.57011 11.457
281 2 10.501 5.82551 8.53216
65 1 2.86014 8.28095 7.21471
38 4 5.19719 13.6562 8.0208
46 4 3.43361 10.4329 3.38304
68 1 1.39876 12.7955 6.5759
75 1 6.71723 7.53733 6.7736
139 3 3.19129 8.93906 3.09219
140 3 2.72924 11.0493 4.70115
158 2 1.49175 13.7078 4.87682
149 2 6.77745 11.6137 4.08818
151 2 3.30783 7.89736 4.40332
160 2 6.8422 13.3533 7.66162
166 2 3.21877 11.4227 2.02451
167 2 5.11651 10.7825 3.5755
278 1 3.74757 12.2102 0.217627
217 2 1.54479 12.2167 7.67356
218 2 0.517845 13.4619 6.50527
219 2 2.43634 13.2247 6.27849
150 2 10.0143 8.29953 0.141675
263 2 5.22202 13.3628 2.73865
291 2 8.65283 10.3401 0.803737
209 2 3.2733 9.14922 6.60259
239 2 6.11581 8.52952 7.08765
294 2 4.46063 12.2304 1.10646
270 1 6.90122 10.0744 3.12487
271 2 6.44726 9.18985 3.66888
272 2 8.17304 9.78133 2.7474
273 2 6.22003 10.1956 2.22892
282 2 7.04825 13.3911 2.13893
159 2 2.2857 12.4369 0.946557
210 2 3.64427 7.82428 7.98906
195 2 8.29449 8.38332 0.955238
33 4 1.47906 11.1078 5.66146
13 4 8.46307 11.5304 3.28611
60 1 8.30581 9.31695 0.265231
141 3 4.53512 12.2084 8.15764
238 2 7.83393 7.66672 6.75107
254 2 6.29712 7.57711 0.376212
237 2 6.22496 7.15972 5.84463
18 4 8.77223 9.7677 15.2636
225 2 1.1063 11.197 12.8428
196 2 6.64307 9.98134 16.2044
47 4 3.75045 11.3018 9.19116
48 4 6.91882 8.22868 13.1288
49 4 5.38158 10.8253 11.8273
137 3 9.8774 7.6374 10.3891
35 4 0.937163 11.9045 10.6086
77 1 5.9125 12.3827 12.735
121 3 0.729369 13.4655 11.4109
136 3 4.86043 7.45167 9.30715
245 2 6.52769 12.1987 13.7312
142 3 2.31598 11.7716 9.75791
279 2 3.11278 11.8116 16.2296
144 3 7.87613 8.93913 14.2212
145 3 4.65864 10.981 10.4491
146 3 5.40064 9.39794 12.653
243 2 4.57909 12.5224 13.0138
153 2 4.61408 8.3227 11.7767
244 2 6.32626 13.3576 12.2285
169 2 7.07795 11.3987 11.5846
223 2 2.01202 9.95819 11.7037
22 4 -0.247722 14.0682 12.539
293 2 3.48498 13.8219 15.5767
143 3 7.64603 7.60152 11.9079
220 2 0.229347 12.7111 15.9806
168 2 3.47129 9.87002 8.28212
ITEM: TIMESTEP
300
ITEM: NUMBER OF ATOMS
295
ITEM: BOX BOUNDS xy xz yz pp pp pp
-8.3339999999999996e+00 1.5144700000000000e+01 -7.6974000000000000e+00
0.0000000000000000e+00 1.4331192999999999e+01 -6.3660000000000005e-01
0.0000000000000000e+00 1.6498000000000001e+01 5.8630499999999997e-01
ITEM: ATOMS id type x y z
6 4 0.792252 1.60409 5.97281
7 4 -0.00883641 4.06812 1.91477
8 4 -0.614667 3.91176 7.85495
10 4 -2.1102 6.20183 5.8254
25 4 0.500999 6.21982 4.16074
105 3 5.21648 3.39558 6.02111
50 1 3.10436 0.753405 2.13769
51 1 2.39766 2.23925 5.34967
52 1 -1.30026 5.237 1.32447
78 3 1.22268 0.810865 0.00830087
79 3 0.0976498 1.09991 4.65791
257 3 3.83969 6.37181 0.030357
81 3 -0.752855 2.78398 2.64155
82 3 0.610624 3.51152 0.498622
84 3 0.0912174 2.86794 6.88467
85 3 -2.01312 4.92829 6.92342
96 3 3.19104 0.834439 7.77293
102 3 0.974493 4.98552 3.01999
103 3 -1.06965 5.90142 4.51946
104 3 3.40705 3.84013 7.75424
106 3 1.53573 6.19156 5.61841
204 2 5.71902 2.98499 2.51146
170 2 2.60494 1.71687 2.3725
171 2 4.17114 0.909229 1.63501
250 2 3.36602 5.46937 2.85741
173 2 2.18978 2.14498 4.19104
174 2 3.40873 1.66895 5.6986
175 2 2.4077 3.34495 5.69013
176 2 -1.00335 6.21791 1.78675
277 2 5.8054 1.41642 1.70398
27 4 2.92116 6.87788 5.71089
274 1 5.9284 1.05092 0.59369
205 2 4.46062 2.42415 3.87024
26 4 4.62422 4.55043 7.03775
177 2 -2.45208 5.01977 1.41224
203 2 6.00829 1.31617 3.48683
276 2 5.0372 0.394949 0.20931
63 1 5.5479 2.41982 3.46189
178 2 -0.979389 5.17098 0.170916
247 1 4.43963 5.29193 2.71139
179 2 0.348867 5.98098 7.97899
249 2 4.7829 4.22419 3.04638
107 3 4.06511 5.85179 6.15411
275 2 6.99444 0.641821 0.372202
180 2 1.87953 4.65322 8.08078
172 2 3.24487 0.18765 3.08006
3 4 0.125587 2.94375 15.8292
256 1 0.506508 6.95203 15.1597
19 4 5.17388 3.07361 15.8567
20 4 3.53127 2.16409 8.68847
23 4 2.7258 2.76723 13.9027
28 4 4.38295 4.69864 12.1503
100 3 6.15195 1.01235 11.817
61 1 2.19518 2.29745 9.99742
64 1 2.52471 1.0359 13.1245
83 3 -1.21426 3.17257 9.07957
86 3 -2.48938 7.14341 9.82024
97 3 3.99264 2.6902 14.8924
98 3 1.27235 3.17173 14.6818
99 3 4.78661 1.92796 9.63657
108 3 3.04336 3.8142 12.4352
264 1 -1.58385 2.60366 15.0547
190 2 -2.8733 7.03819 13.8661
148 2 0.256089 6.99901 10.7449
269 2 0.252003 2.50654 11.431
284 2 -1.60421 3.29087 14.1835
181 2 0.560796 4.74377 9.60536
233 2 -2.26195 4.82811 12.7974
232 2 -2.78008 5.85259 11.3369
197 2 1.76129 1.29571 10.3094
198 2 1.43887 2.99493 9.49556
199 2 2.61608 2.83064 10.9386
267 1 -0.51609 1.60782 11.5101
208 2 2.33467 1.13258 12.0041
206 2 1.5579 0.721752 13.7222
259 2 0.321804 5.92457 15.9381