ITEM: TIMESTEP
0
ITEM: NUMBER OF ATOMS
295
ITEM: BOX BOUNDS xy xz yz pp pp pp
-8.4173399999999994e+00 1.5296146999999999e+01 -7.7743739999999999e+00
0.0000000000000000e+00 1.4189300000000001e+01 -6.4296600000000004e-01
0.0000000000000000e+00 1.6498000000000001e+01 5.8050000000000002e-01
ITEM: ATOMS id type x y z
6 4 0.726 1.57313 6.12331
7 4 -0.22975 3.62934 1.78734
8 4 -0.664102 3.92434 7.83357
10 4 -1.99849 6.43332 5.47624
25 4 0.73785 6.03509 3.81084
27 4 3.1192 6.33 5.73281
50 1 2.61384 0.931299 2.16848
51 1 2.3606 2.27012 5.53671
52 1 -1.79176 4.6292 1.19039
204 2 5.35857 3.25919 2.63506
79 3 -0.0445671 1.03269 4.78767
276 2 5.21283 0.631781 0.515609
275 2 7.10404 0.795027 0.679726
82 3 0.609531 2.94127 0.564588
84 3 0.0363911 2.75028 6.92438
85 3 -2.011 5.02513 6.77554
53 1 0.647943 5.15058 8.22352
102 3 0.71317 4.77192 2.70859
103 3 -0.832519 6.40067 4.24397
104 3 4.20061 3.40582 8.19683
106 3 1.68105 5.64487 5.22654
107 3 4.09252 5.59025 6.68358
170 2 3.08496 0.406522 3.03538
203 2 5.18379 1.56626 3.5494
81 3 -0.897787 2.52211 2.76713
173 2 2.48427 1.72016 4.50454
174 2 3.23525 2.05247 6.22074
175 2 2.14873 3.41683 5.41006
176 2 -2.07419 5.19663 2.07328
274 1 6.1014 1.33587 0.847982
178 2 -1.23061 5.30753 0.365437
277 2 5.84977 1.83248 1.87919
205 2 4.19992 3.07341 4.12046
171 2 1.79048 1.63615 2.45882
249 2 4.68282 4.65446 3.03696
180 2 1.68447 4.63642 7.85059
250 2 3.34193 6.06612 2.6224
179 2 0.320594 6.06695 7.66285
63 1 5.17303 2.70692 3.63956
281 2 -3.07871 5.80193 7.80742
172 2 3.40618 1.46734 1.4615
78 3 0.81717 0.302505 0.0944487
182 2 -3.53812 6.27237 3.46041
54 1 -3.64888 6.32594 4.58746
3 4 0.0347256 2.51224 15.8606
267 1 -0.482951 1.94592 11.5586
96 3 2.96506 0.842449 8.28022
20 4 3.5605 2.15841 8.9224
23 4 2.54423 2.66925 13.9858
28 4 4.39636 4.43986 12.3563
285 2 -0.833466 2.50794 12.4556
61 1 2.04833 3.10826 9.80344
64 1 2.62684 0.967421 12.98
83 3 -1.22204 3.22278 9.13673
100 3 6.22141 0.498883 11.8991
97 3 3.8622 2.54651 15.0916
98 3 1.14681 2.87935 14.753
99 3 4.55502 1.61914 10.1451
108 3 2.9682 3.63985 12.7894
9 4 -3.58103 6.98031 8.97334
19 4 5.17877 3.18889 15.9752
148 2 0.37603 6.80447 10.8399
206 2 1.55061 0.684915 13.0365
269 2 0.489092 2.40631 11.0002
181 2 0.5213 5.30617 9.37239
266 2 -2.22205 3.83783 15.2697
24 4 5.82332 1.97318 11.1097
197 2 2.18272 2.9969 10.914
198 2 1.09984 2.69014 9.39309
199 2 2.29114 4.22747 9.47875
259 2 0.116542 6.64764 15.1251
208 2 3.0228 1.00657 11.8756
110 3 4.1368 5.69328 11.4343
268 2 -0.435481 0.814822 11.7428
154 2 2.13267 7.13323 10.4595
86 3 -2.30763 6.99347 10.0337
109 3 5.44007 3.38137 11.9225
264 1 -1.79782 2.77237 15.2218
257 3 2.79033 6.81353 16.4133
295 2 -3.14081 5.39609 11.593
265 2 -1.55991 2.41894 14.1527
1 4 -5.75279 13.1392 1.06892
4 4 -5.49825 13.145 7.74719
12 4 -2.77168 9.19048 1.44547
15 4 -2.73948 9.02124 7.07251
16 4 -4.1097 11.2532 5.42777
30 4 1.52398 8.57665 2.11162
31 4 -1.34576 11.2128 3.79656
80 3 -6.90043 13.4947 7.18724
56 1 -4.28336 8.67509 2.46482
189 2 -0.798846 7.78953 0.588348
57 1 -1.9968 7.77466 0.468568
66 1 -1.09542 12.7228 2.63716
280 3 -4.52241 12.6201 0.219308
111 3 1.60609 7.35779 3.16328
88 3 -3.24796 10.3575 0.368242
90 3 -1.92271 7.81957 6.32253
91 3 -5.37951 11.1685 4.53388
92 3 -3.64993 9.86803 5.98845
93 3 -4.51166 12.4184 6.66465
188 2 -5.14118 9.41949 2.32252
112 3 1.26715 7.83639 0.702002
113 3 -1.4838 9.96196 2.74338
114 3 -2.69158 11.7264 4.52622
115 3 -1.64741 10.2603 7.91761
116 3 0.0196237 11.0964 4.62462
155 2 0.0275385 9.41716 2.32462
292 2 -1.88308 12.7876 6.97912
65 1 2.55151 8.09087 7.2834
157 2 1.65076 9.56889 6.43427
211 2 1.62084 7.41676 7.40789
214 2 0.0763433 12.8405 2.59656
213 2 -1.52414 12.5534 1.58798
289 2 -2.48643 6.97085 1.13685
87 3 -6.44648 11.7302 2.10819
187 2 -4.08383 8.49611 3.563
221 2 0.560306 10.2821 0.118075
222 2 -0.260811 11.878 0.990741
67 1 -1.6948 12.9697 8.1521
212 2 -1.65319 13.5391 3.30459
89 3 -3.83276 8.38307 8.2231
183 2 -4.13259 7.31156 4.96111
287 2 -4.42727 7.70207 1.87655
69 1 0.286264 11.386 0.0154085
11 4 -1.21029 7.80128 10.7683
224 2 0.388566 10.0867 12.1893
17 4 -2.33722 9.55432 13.1746
32 4 -1.61118 11.3616 9.04121
34 4 -1.37624 11.9725 14.9285
288 2 -3.08442 8.39248 15.86
55 1 0.631834 8.31543 9.82304
58 1 -3.79608 8.56752 14.0076
59 1 -3.38438 10.9655 12.2054
216 2 -2.62895 13.4229 8.72491
255 4 1.37637 7.52336 16.0943
185 2 1.31969 8.18849 8.9188
94 3 -1.56924 8.67878 12.0621
95 3 -5.50764 11.3051 14.9042
117 3 -1.46139 10.1444 14.4266
118 3 -0.455283 12.6237 13.7456
119 3 -3.03357 12.5739 15.1488
120 3 -0.119065 11.4395 9.90952
147 2 -5.7436 12.0255 9.05557
290 2 -4.59277 8.53047 13.2041
156 2 -2.81404 11.0201 10.3167
184 2 -0.399399 8.91894 9.43668
186 2 1.04083 9.07738 10.6366
191 2 -4.06442 9.19061 14.8909
192 2 -4.1236 11.3318 12.9923
193 2 -3.95551 10.3509 11.401
194 2 -2.70284 11.8241 11.8428
258 2 1.99759 8.86298 14.3879
260 2 0.809089 7.59551 13.4693
190 2 -3.4263 7.53414 14.2423
256 1 0.910553 8.24439 14.4062
261 2 -0.0610578 9.08695 14.4397
14 4 -4.38331 12.0614 15.8714
215 2 -0.754988 13.51 8.344
207 2 -4.43879 13.8728 13.6275
2 4 13.8331 1.44633 3.79732
21 4 6.68445 3.47911 4.74251
251 2 5.21917 6.44404 2.83146
36 4 9.31998 1.76616 4.76826
248 1 6.33763 6.75427 0.271896
40 4 11.8949 2.07087 6.10029
43 4 10.6341 2.95697 2.07312
235 2 8.80314 3.60661 0.453137
62 1 7.34716 5.06162 3.78168
228 2 8.60151 1.06683 7.96201
74 1 9.34588 4.11188 1.32717
105 3 5.88325 3.89499 6.06042
122 3 7.90499 2.45125 4.87046
125 3 12.5728 1.76603 4.68508
126 3 10.2114 2.22772 6.06075
127 3 12.275 1.00112 7.22961
133 3 10.04 2.22836 3.35872
134 3 11.3409 1.82677 1.00009
234 2 8.56352 4.43237 2.19707
286 2 11.0986 5.37243 5.04807
162 2 12.4919 3.69692 6.37794
164 2 11.9747 4.0075 2.34179
200 2 8.5245 5.03054 3.96502
246 4 4.89212 5.57694 0.581405
37 4 10.6792 0.486131 0.218291
236 2 10.0953 4.98926 1.05567
201 2 6.86358 5.84672 4.41766
202 2 6.92265 4.84652 2.78139
151 2 4.13342 6.60401 4.3383
161 2 7.61912 3.91041 8.07776
283 2 13.6325 0.191342 1.83692
26 4 5.08255 4.4674 7.38098
177 2 12.6931 3.99515 0.772731
247 1 4.48326 5.71412 2.56727
101 3 5.4786 4.13269 0.178585
152 2 5.14471 5.16768 13.7571
241 2 6.96436 5.89701 13.4027
227 2 10.2555 1.83417 8.58998
39 4 8.31065 2.9006 9.28047
41 4 8.11653 2.3372 14.7937
42 4 10.7604 3.54912 11.5719
45 4 8.90285 6.68119 10.4682
29 4 3.77178 6.91688 10.6031
72 1 9.49497 3.80574 14.8528
73 1 11.3933 5.03188 12.3869
284 2 12.8732 1.99656 15.7106
242 2 5.39457 6.95628 12.9114
252 2 6.63221 6.82702 16.3202
124 3 7.09957 2.37098 10.219
128 3 8.21506 1.55945 13.3032
129 3 8.61213 1.3134 16.0864
130 3 6.64337 3.06288 15.2772
131 3 12.0913 2.83484 11.0077
132 3 9.34634 3.7692 10.2829
71 1 9.25007 1.35059 8.85257
44 4 6.43915 6.82195 8.6924
135 3 6.50832 5.15508 8.32844
137 3 10.3513 6.57929 9.67784
163 2 10.2121 3.06416 13.1166
165 2 8.39761 5.0767 10.7577
233 2 10.4209 5.67917 12.3907
229 2 9.0922 4.43028 14.0328
230 2 10.5255 3.36667 14.7716
231 2 9.30702 4.19813 15.9512
232 2 11.8269 4.96792 13.389
5 4 13.3888 2.16943 10.3375
76 1 6.3416 6.81245 13.5745
240 2 6.07082 7.01867 14.7778
226 2 9.109 0.657988 9.82987
136 3 4.62115 7.13335 9.36208
13 4 8.58595 11.2765 3.65055
263 2 4.28503 13.4397 2.97755
46 4 3.64021 10.4922 3.11641
68 1 1.68818 12.4492 6.45384
75 1 6.43976 7.80085 7.034
139 3 2.75657 9.71284 2.02981
140 3 2.82884 10.9059 4.42288
238 2 7.45427 8.23138 7.04813
149 2 7.30824 12.3028 4.43029
210 2 3.45599 7.83525 7.85362
160 2 6.77611 13.4225 7.53873
166 2 4.51514 11.775 2.38688
167 2 5.05005 9.55855 3.46109
209 2 2.91655 8.21858 5.9881
217 2 2.73626 12.8153 6.025
218 2 1.86288 11.9583 7.52242
159 2 2.83866 12.5935 1.2047
141 3 4.44634 12.1369 7.94373
294 2 4.79315 12.3801 0.288292
38 4 5.18484 13.5214 8.19185
158 2 1.38133 13.6851 4.91499
262 1 5.42587 13.4618 2.91517
219 2 0.816826 13.1889 6.45861
270 1 6.65853 10.6325 3.9488
271 2 5.93509 10.4028 4.79202
272 2 7.74139 9.51356 3.81236
273 2 6.2088 10.8331 2.89575
282 2 5.91323 12.4282 3.35883
33 4 1.52435 10.9378 5.34532
239 2 5.63351 8.61409 7.16374
291 2 8.14551 10.9603 0.733387
150 2 9.04558 9.16277 0.158438
168 2 3.42681 9.6326 8.04409
253 2 6.49457 7.00315 1.431
237 2 6.16751 7.03056 6.25054
18 4 8.43137 10.4525 15.0366
293 2 3.76035 13.9793 15.1526
245 2 6.20406 11.7852 12.5712
47 4 3.91408 11.033 9.05207
48 4 7.50732 8.08766 12.7811
49 4 6.30921 10.257 10.918
244 2 7.93137 12.313 11.6879
225 2 1.80605 11.0984 13.0866
77 1 6.83437 12.0413 11.5262
121 3 1.15108 13.2366 11.4296
60 1 7.06118 11.0698 16.2075
35 4 1.32078 11.7196 10.7401
142 3 2.63142 11.5096 9.82173
143 3 8.96581 7.43426 11.9949
144 3 8.08353 9.22759 14.0453
145 3 5.09393 10.5724 9.99369
146 3 6.46201 9.06113 11.8683
278 1 3.34418 13.1948 16.1057
153 2 3.98186 8.25754 11.584
279 2 2.87915 12.261 15.6552
169 2 7.81172 10.9559 10.2453
223 2 2.2554 9.56525 11.8964
196 2 6.78822 11.8893 15.2097
243 2 6.2934 12.8921 10.8913
220 2 0.567865 12.6547 16.1349
70 1 1.52302 10.4135 12.1618
254 2 5.42787 8.26879 16.1694
195 2 6.15408 10.3858 16.4026
22 4 -0.166679 13.7761 12.7276
138 3 7.76144 7.22394 9.52021
123 3 5.39075 13.9424 9.74278
ITEM: TIMESTEP
100
ITEM: NUMBER OF ATOMS
295
ITEM: BOX BOUNDS xy xz yz pp pp pp
-8.4173399999999994e+00 1.5296146999999999e+01 -7.7743739999999999e+00
0.0000000000000000e+00 1.4189300000000001e+01 -6.4296600000000004e-01
0.0000000000000000e+00 1.6498000000000001e+01 5.8050000000000002e-01
ITEM: ATOMS id type x y z
6 4 0.653742 1.57568 6.07141
7 4 -0.220924 3.76933 2.03634
8 4 -0.766008 3.93429 7.83893
10 4 -1.80853 6.48219 5.64606
25 4 0.739116 6.14169 3.86956
27 4 3.1611 6.39203 5.71004
50 1 2.68378 0.837853 2.28033
51 1 2.15921 2.45274 5.34461
52 1 -1.83999 4.62897 1.43535
204 2 5.08664 3.19385 2.7355
79 3 -0.234943 0.943125 4.8241
276 2 5.27229 0.731563 0.631031
54 1 -3.31146 6.52859 4.49999
82 3 0.447682 3.22553 0.585768
84 3 0.0893452 2.85448 6.86505
85 3 -2.12808 5.05235 6.84749
182 2 -3.03368 6.7055 3.40855
102 3 0.698468 5.01377 2.78088
103 3 -0.640801 6.48845 4.53952
104 3 4.35783 3.16142 7.92298
106 3 1.77732 5.74875 5.36528
107 3 4.0327 5.65839 6.74594
170 2 3.26019 0.226254 3.04468
203 2 5.64733 1.63459 3.75289
81 3 -0.838271 2.51364 2.92113
173 2 2.08488 1.95985 4.26496
174 2 3.12653 2.22533 5.87962
175 2 1.98752 3.55247 5.28984
176 2 -2.37828 5.25168 2.27576
274 1 6.13016 1.42036 0.925875
178 2 -1.33588 5.33546 0.613946
277 2 5.93826 1.88973 2.01961
205 2 4.21047 2.653 4.32611
171 2 1.66635 1.23732 2.66691
249 2 4.48755 4.53629 2.97778
180 2 1.35251 5.04889 7.7766
250 2 3.22638 6.0257 2.34947
247 1 4.34707 5.59338 2.49948
63 1 5.18053 2.72613 3.77812
281 2 -3.22893 5.55163 7.91272
172 2 3.33124 1.64897 1.7532
78 3 0.847517 0.355413 0.0535108
96 3 3.08083 0.756999 8.111
3 4 -0.0848602 2.61369 15.9123
267 1 -0.445687 1.99068 11.5159
265 2 -1.49802 2.59911 13.888
20 4 3.69156 2.07934 8.88375
23 4 2.75017 2.74629 14.0963
28 4 4.42662 4.47869 12.2797
285 2 -0.687467 2.56219 12.4359
61 1 2.15388 2.95987 9.77716
64 1 2.85165 1.05961 13.1663
83 3 -1.33329 3.17488 9.09702
53 1 0.384849 5.22875 8.47229
97 3 4.02203 2.76698 15.0818
98 3 1.06872 2.7215 14.6635
99 3 4.45832 1.55553 10.2991
108 3 2.99013 3.92237 12.9345
9 4 -3.60369 6.83992 8.98172
19 4 5.34431 3.26667 16.0279
148 2 0.401575 6.86667 10.7223
206 2 1.75149 0.774488 13.4179
269 2 0.571668 2.33531 10.9866
181 2 0.535874 4.85072 9.53823
295 2 -2.75419 5.17279 11.774
24 4 5.81033 1.9479 11.0753
197 2 2.28743 2.75193 10.894
198 2 1.27133 2.49206 9.24731
199 2 2.44931 3.96289 9.44866
259 2 0.394399 6.48511 14.9624
208 2 2.98887 1.35994 12.064
110 3 3.94801 5.42302 11.1324
268 2 -0.518634 0.819323 11.6844
257 3 2.8192 6.90549 16.3323
86 3 -2.40422 6.86471 9.92715
109 3 5.44169 3.24965 12.0409
179 2 -0.024963 6.26642 8.29994
1 4 -5.7026 13.2326 0.977413
4 4 -5.50432 13.0744 7.59112
12 4 -2.77491 9.21957 1.45474
15 4 -2.85126 9.0536 7.19275
16 4 -4.12641 11.2224 5.5346
30 4 1.38346 8.52955 2.10272
31 4 -1.32713 11.2531 3.87908
80 3 -6.96205 13.4848 7.08563
56 1 -4.31838 8.83526 2.5662
189 2 -1.04187 7.74696 0.773621
57 1 -2.11188 7.7874 0.438082
66 1 -1.19542 12.5973 2.53438
280 3 -4.43379 12.7491 0.11122
111 3 1.5982 7.50947 3.34803
88 3 -3.32455 10.3978 0.365647
90 3 -1.82383 7.86799 6.32117
91 3 -5.40241 11.2286 4.39531
92 3 -3.96419 9.75746 6.19442
93 3 -4.5132 12.3238 6.60773
188 2 -5.15309 9.36106 2.02799
112 3 1.27321 7.6799 0.696708
113 3 -1.53589 10.0003 2.82869
114 3 -2.63376 11.6326 4.75125
115 3 -1.86799 10.1533 7.9837
116 3 0.128179 11.1176 4.7263
155 2 -0.110636 9.40705 2.42039
292 2 -1.3866 12.7735 7.35118
65 1 2.57369 8.0888 7.18958
157 2 1.69064 9.73459 6.64798
211 2 1.76146 7.3529 7.36386
214 2 -0.0615943 12.6399 2.38964
213 2 -1.89994 12.5506 1.61559
289 2 -2.81057 6.98783 0.961464
87 3 -6.51142 11.8576 1.98415
187 2 -4.12775 9.3063 3.59609
69 1 0.165137 11.1552 0.0132756
222 2 -0.43932 11.5905 0.95211
183 2 -3.85737 7.39471 4.95351
212 2 -1.55511 13.4472 3.27203
89 3 -3.68928 8.19452 8.18301
11 4 -1.22496 7.75642 10.6371
224 2 0.38895 9.73823 12.0315
17 4 -2.44535 9.41404 13.127
32 4 -1.60307 11.1808 9.14834
34 4 -1.34999 11.8784 14.8731
288 2 -2.97529 8.4189 15.7838
55 1 0.584319 8.34916 9.74065
58 1 -3.83927 8.24817 13.895
59 1 -3.25774 11.0501 12.3472
216 2 -2.86157 12.9942 8.61788
255 4 1.36734 7.48712 16.0128
185 2 1.28087 8.25046 8.79949
94 3 -1.59052 8.55046 11.9953
95 3 -5.56086 11.3585 14.7148
117 3 -1.51974 10.0003 14.3032
118 3 -0.355162 12.6083 13.874
119 3 -2.94717 12.4534 15.1282
120 3 -0.0849283 11.3727 9.86997
147 2 -5.79055 12.0632 8.89522
290 2 -4.60543 8.13333 13.0685
156 2 -2.73951 10.8979 10.4717
184 2 -0.496156 8.83224 9.27891
186 2 0.963054 9.05178 10.6013
191 2 -4.21906 8.90811 14.7486
192 2 -3.93279 11.3239 13.2359
193 2 -3.8615 10.6834 11.4772
194 2 -2.56195 11.868 12.0974
258 2 1.92424 8.90864 14.2414
260 2 0.90433 7.46816 13.5276
190 2 -3.35405 7.31994 14.2613
256 1 0.923207 8.24898 14.3517
261 2 -0.0863974 8.90644 14.3754
14 4 -4.4018 12.0972 15.8446
215 2 -1.05303 13.6081 9.07811
67 1 -1.6918 12.9046 8.45007
100 3 -1.54649 13.9928 11.8799
154 2 2.2946 7.31983 10.0095
70 1 1.3956 10.3606 12.0525
207 2 -4.14534 14.0002 13.67
244 2 -7.20084 12.2476 11.23
221 2 -0.300927 10.5671 16.4761
2 4 13.8666 1.3339 3.83725
21 4 6.73144 3.39948 4.85762
251 2 5.24758 6.53251 2.66655
36 4 9.30057 1.79496 4.7187
101 3 5.4147 4.29332 0.319052
40 4 11.8814 2.12023 6.0702
43 4 10.7627 2.9501 2.14237
235 2 8.82045 3.4227 0.533658
62 1 7.63904 4.89554 3.90459
228 2 8.90929 1.06365 8.06977
74 1 9.36506 3.99609 1.33821
105 3 5.93658 4.02717 6.03163
122 3 7.75147 2.12658 5.09741
125 3 12.5697 1.77058 4.6811
126 3 10.2611 2.39831 5.9439
127 3 12.3686 1.15732 7.18886
133 3 9.90591 2.38111 3.39021
134 3 11.1594 1.84813 0.915706
234 2 8.64204 4.30196 2.25082
286 2 11.4627 5.49393 4.66734
162 2 12.3583 3.68769 6.57162
164 2 12.1775 3.77896 2.66624
200 2 8.69097 4.62486 3.83365
246 4 4.82991 5.75918 0.597424
37 4 10.559 0.515381 0.265326
236 2 10.1045 4.82434 0.968044
201 2 7.34716 5.71634 4.69429
202 2 7.10293 5.07992 2.87363
151 2 3.95659 6.56824 4.17923
252 2 7.16733 6.31399 0.279809
275 2 7.13673 0.989714 0.824496
26 4 5.15242 4.47348 7.30562
177 2 12.8012 3.8363 0.924246
152 2 5.1419 5.37977 13.5867
241 2 6.98213 5.94634 13.446
227 2 10.4675 1.70562 8.98977
39 4 8.40163 2.92336 9.34227
41 4 7.98785 2.31845 14.7699
42 4 10.8566 3.56947 11.6185
45 4 8.82395 6.61309 10.3669
29 4 3.87574 6.88075 10.5074
72 1 9.46753 3.58592 14.8458
73 1 11.3946 5.24642 12.1938
284 2 13.1519 1.40181 15.2613
242 2 5.52059 7.10054 12.9091
266 2 12.9584 3.27374 15.4866
124 3 7.07529 2.28987 10.1691
128 3 8.15164 1.56545 13.2831
129 3 8.49336 1.12124 16.0736
130 3 6.70232 3.23239 15.0789
131 3 12.0652 2.65095 11.1529
132 3 9.47291 3.65018 10.2631
71 1 9.3778 1.34968 9.06734
44 4 6.38127 6.91144 8.68959
135 3 6.29925 4.9733 8.30172
137 3 10.2184 6.67335 9.66217
163 2 10.2141 3.00278 13.0938
165 2 8.53679 4.96938 10.7091
233 2 10.8692 6.191 11.9438
229 2 9.2809 4.27604 13.9758
230 2 10.4567 3.01329 14.8201
231 2 9.2076 4.11097 16.0058
232 2 11.3345 4.98135 13.3458
5 4 13.4321 2.08381 10.2568
76 1 6.39197 6.9261 13.6344
240 2 6.16173 7.18625 14.7662
226 2 9.2988 0.586162 9.96137
264 1 13.5788 2.39302 15.0043
123 3 13.1697 0.550027 9.65038
293 2 11.5136 0.5833 15.2218
161 2 7.73755 4.1343 8.38957
13 4 8.56395 11.2456 3.49411
263 2 4.34093 13.5071 2.81176
46 4 3.45237 10.5325 3.11207
68 1 1.68968 12.6222 6.38757
75 1 6.63672 8.03903 7.12104
139 3 2.6608 9.5469 2.06078
140 3 2.64176 11.1042 4.28099
238 2 7.62013 8.52783 7.32479
149 2 7.08793 12.1872 4.49408
210 2 3.39268 7.98576 7.92844
160 2 6.83134 13.4699 7.63342
166 2 4.23045 11.8965 2.38006
167 2 4.94774 9.81353 3.61334
209 2 2.95128 8.29388 6.05006
217 2 2.49432 13.281 6.02804
218 2 1.99822 12.0599 7.40569
159 2 3.03716 12.6682 1.27801
141 3 4.50475 12.2153 8.14045
294 2 4.97863 12.5928 0.341963
38 4 5.1928 13.625 8.11041
158 2 1.45022 13.7352 4.69275
262 1 5.46816 13.3779 2.75364
219 2 0.722757 13.1864 6.55298
270 1 6.76885 10.6465 3.89394
271 2 6.3579 9.90231 4.62037
272 2 8.10539 9.43598 3.44147
273 2 6.24624 10.6604 2.94283
282 2 5.85074 12.3791 3.16752
33 4 1.54238 10.9982 5.43192
239 2 5.64796 8.73196 7.1602
291 2 8.14664 10.9036 0.714939
150 2 9.38293 9.07511 0.341559
168 2 3.44625 9.7073 7.91125
253 2 6.29926 7.71857 1.14034
237 2 6.69913 7.33433 6.28817
248 1 6.28229 7.01995 0.280422
283 2 5.94949 13.6639 1.80296
287 2 10.7788 7.72508 2.65986
195 2 7.13435 9.48701 0.000184607
18 4 8.64039 10.2392 15.1628
22 4 -0.130488 13.76 12.6185
245 2 6.66659 11.9821 12.4175
47 4 3.94499 10.9703 9.01353
48 4 7.54257 8.23819 12.8296
49 4 6.23625 10.3593 10.8589
138 3 7.65376 7.22112 9.53355
225 2 1.50401 11.0606 12.9985
77 1 6.99698 12.1447 11.2576
121 3 1.13564 13.2465 11.4376
60 1 7.24785 10.8231 16.2905
35 4 1.24434 11.7499 10.6968
142 3 2.56535 11.4444 9.74169
143 3 8.66053 7.36395 11.9523
144 3 8.10998 9.16542 14.0805
145 3 5.04336 10.3572 9.90128
146 3 6.60587 9.21076 11.7994
278 1 3.44419 13.4274 16.1147
153 2 4.1128 7.9897 11.7634
279 2 2.85908 12.4895 15.7738
169 2 7.71852 10.8584 10.0401
223 2 2.31901 9.75612 11.8754
196 2 6.80975 11.6118 15.383
243 2 6.43536 12.9118 10.6316
220 2 0.449429 12.3548 16.2918
136 3 4.91747 7.20457 9.35348
254 2 5.39298 8.16921 15.8172
ITEM: TIMESTEP
200
ITEM: NUMBER OF ATOMS
295
ITEM: BOX BOUNDS xy xz yz pp pp pp
-8.4173399999999994e+00 1.5296146999999999e+01 -7.7743739999999999e+00
0.0000000000000000e+00 1.4189300000000001e+01 -6.4296600000000004e-01
0.0000000000000000e+00 1.6498000000000001e+01 5.8050000000000002e-01
ITEM: ATOMS id type x y z
6 4 0.637985 1.63495 5.92517
7 4 -0.222065 3.93299 2.03066
8 4 -0.869283 4.0905 7.86327
10 4 -1.9174 6.61065 5.68943
25 4 0.890287 5.98609 4.1388
27 4 3.29981 6.29695 5.86134
50 1 2.74034 0.92371 2.25826
51 1 2.28852 2.10142 5.20464
52 1 -1.81438 4.87822 1.39358
204 2 4.90316 3.14513 2.55166
79 3 -0.189945 0.848274 4.70037
276 2 5.61447 0.684908 0.545975
54 1 -3.34712 6.58763 4.50912
82 3 0.316944 3.27815 0.677368
84 3 -0.134665 2.87848 6.82896
85 3 -2.2938 5.16521 6.96178
182 2 -2.97709 6.55569 3.42244
102 3 0.749238 4.81001 3.01055
103 3 -0.577433 6.27815 4.75941
104 3 4.4657 3.12339 7.9616
106 3 2.0013 5.61439 5.36125
107 3 4.209 5.48074 6.77081
170 2 2.59326 0.39093 3.23106
203 2 4.72721 1.65217 3.57847
81 3 -0.939758 2.65802 2.76213
173 2 2.49979 1.62599 4.10546
174 2 2.98996 1.72988 6.07237
175 2 2.12214 3.22336 5.15049
176 2 -2.42625 5.39937 2.22298
274 1 6.21067 1.54862 0.889512
178 2 -1.23155 5.66862 0.843656
277 2 5.85287 1.97248 1.94964
205 2 4.15948 3.35851 4.23667
171 2 1.98845 1.77002 2.06021
249 2 4.75274 4.7477 2.95346
180 2 1.29397 4.94031 7.91367
250 2 3.39649 6.14556 2.81099
78 3 0.965584 0.568044 0.217831
63 1 4.90995 2.78667 3.60109
96 3 2.97473 0.802847 8.24316
172 2 3.7774 1.22274 2.06829
177 2 -2.40643 4.19246 0.720968
3 4 -0.0570216 2.51289 15.9707
267 1 -0.421428 2.07446 11.4582
265 2 -1.67664 2.83254 14.1326
20 4 3.69138 2.04242 8.8735
23 4 2.75332 2.72383 14.18
28 4 4.40097 4.49685 12.1875
285 2 -0.696262 2.62437 12.3645
61 1 2.16901 3.04887 9.69858
64 1 3.05775 0.951156 13.4285
83 3 -1.48331 3.29476 9.09598
53 1 0.337933 5.32527 8.48796
97 3 3.90641 2.83111 15.3395
98 3 1.30831 2.98908 14.8199
99 3 4.65099 1.48987 10.0855
108 3 3.04308 3.92482 12.9164
9 4 -3.6294 6.72463 9.07663
19 4 5.19445 3.37842 15.9944
148 2 0.402448 6.70161 10.9106
100 3 6.10684 0.617603 12.1068
269 2 0.529206 2.50478 10.8716
181 2 0.358157 5.12004 9.54995
295 2 -2.65202 5.12072 11.884
24 4 5.78011 1.92955 11.1114
197 2 2.19364 2.72466 10.7329
198 2 1.31584 2.74316 9.07456
199 2 2.60779 4.05263 9.45581
259 2 0.176978 6.69312 15.2001
208 2 3.17019 1.06912 12.3572
110 3 4.18755 5.37896 10.9289
268 2 -0.410066 0.935031 11.6224
257 3 2.79484 6.81765 16.3497
86 3 -2.31452 6.54452 9.8585
109 3 5.24442 3.2436 11.9437
207 2 3.99769 0.504355 13.8441
154 2 2.14589 6.79987 10.0118
179 2 0.0883034 6.39327 8.32698
206 2 2.0973 0.523142 13.8318
1 4 -5.65663 13.3271 0.907755
4 4 -5.46375 13.1194 7.55991
12 4 -2.90124 9.30891 1.62895
15 4 -2.90126 9.05184 7.21132
16 4 -4.15146 11.1815 5.47858
30 4 1.46716 8.54158 2.227
31 4 -1.43378 11.1864 3.78491
80 3 -6.89884 13.7108 7.09273
56 1 -4.53523 8.72493 2.60121
189 2 -1.1789 7.82613 0.66509
57 1 -2.32519 7.95895 0.547268
66 1 -1.24847 12.6414 2.61351
280 3 -4.3453 12.8343 0.0228334
111 3 1.4976 7.43746 3.46192
88 3 -3.29236 10.4903 0.564181
90 3 -1.79224 8.07795 6.39667
91 3 -5.45211 11.0567 4.3083
92 3 -3.96379 9.65141 6.11482
93 3 -4.56613 12.3742 6.50345
210 2 2.90543 7.68931 8.07986
112 3 1.25359 7.90342 0.775787
113 3 -1.43987 9.91396 2.85709
114 3 -2.83955 11.455 4.64191
115 3 -2.08584 10.2383 8.17427
116 3 0.0530815 11.2387 4.71714
155 2 0.0127107 9.35327 2.61577
292 2 -2.2218 12.8413 7.47556
65 1 2.66909 8.32888 7.20403
157 2 1.51118 9.77104 6.56576
211 2 1.52169 8.23303 6.9036
214 2 -0.0747498 12.714 2.60742
213 2 -1.60269 12.5491 1.54191
289 2 -2.93089 7.08091 1.09458
87 3 -6.42182 11.9031 1.83955
187 2 -4.26872 9.02147 3.65779
221 2 0.132389 9.849 0.103841
222 2 -0.543655 11.5265 0.986529
183 2 -3.98701 7.48814 4.77659
212 2 -1.71561 13.5677 3.13261
69 1 -0.00258854 11.025 0.0316188
89 3 -3.62338 8.1255 8.23819
11 4 -1.17597 7.56489 10.5322
224 2 0.475455 9.88709 12.2393
17 4 -2.43822 9.35417 13.0074
32 4 -1.62698 11.2564 9.24525
34 4 -1.39263 11.7173 14.8271
288 2 -3.29115 8.5205 15.8809
55 1 0.740673 8.14941 9.80835
58 1 -3.61904 8.13523 13.9051
59 1 -3.5997 10.8598 12.3311
216 2 -2.75147 13.204 9.30237
255 4 1.36018 7.65154 16.1568
185 2 1.52758 8.1891 8.88748
94 3 -1.77331 8.57572 11.7148
95 3 -5.38423 11.371 14.8425
117 3 -1.47344 9.88337 14.1499
118 3 -0.471935 12.6484 13.7718
119 3 -2.86957 12.4443 14.9608
120 3 -0.185126 11.1871 9.8868
147 2 -5.77027 12.0313 8.72876
290 2 -4.04083 7.57889 12.9964
156 2 -2.6859 11.0446 10.5878
184 2 -0.330376 8.53803 9.24311
186 2 1.02557 9.0169 10.5956
191 2 -4.40861 8.78014 14.4276
192 2 -4.26827 11.016 13.2913
193 2 -4.08703 10.3736 11.4293
194 2 -2.92923 11.767 12.1024
258 2 1.95217 9.02847 14.374
260 2 0.934488 7.48193 13.6136
220 2 0.320336 12.2192 16.3232
256 1 0.979875 8.26917 14.4272
261 2 -0.00168638 8.89789 14.3806
14 4 -4.25863 12.0821 15.8628
215 2 -0.974605 13.6636 8.62293
67 1 -1.89426 12.9901 8.54003
70 1 1.4265 10.3836 12.0931
190 2 -2.89329 7.46518 14.5465
2 4 13.8956 1.32106 3.7631
21 4 6.686 3.32798 4.54812
251 2 5.32276 6.58565 2.77533
36 4 9.3019 1.76584 4.72723
101 3 5.6192 4.36249 0.152129
40 4 11.8642 2.11147 6.10322
43 4 10.6714 2.95072 2.07201
235 2 8.84113 3.84505 0.526929
62 1 7.74092 4.78989 3.94053
228 2 9.07628 1.31682 7.94222
74 1 9.52701 4.21368 1.35725
105 3 6.02637 3.81795 5.9075
122 3 7.67468 2.0811 4.75412
125 3 12.5514 1.72197 4.69873
126 3 10.2006 2.16183 6.06699
127 3 12.2385 1.05411 7.2002
133 3 9.8888 2.45669 3.40769
134 3 10.7769 1.56348 1.11757
234 2 8.87796 4.50812 2.28835
286 2 11.4469 5.55777 4.85914
162 2 12.4258 3.69617 6.48444
164 2 12.2997 3.63312 2.31819
200 2 8.871 4.50345 3.94496
246 4 4.88009 5.80769 0.637273
37 4 10.4116 0.331044 0.257783
236 2 10.4122 5.00313 1.09084
201 2 7.46874 5.60204 4.68238
202 2 7.25107 4.85153 2.85349
151 2 4.28409 6.52638 4.40598
135 3 6.4887 4.97626 8.11443
275 2 7.28153 1.33857 0.841813
26 4 5.29662 4.36404 7.24218
283 2 13.5205 0.16845 1.71547
281 2 11.7054 5.44274 7.92694
161 2 7.79776 3.95106 8.09206
247 1 4.50724 5.82052 2.5951
152 2 5.3596 5.45652 13.2314
241 2 6.96928 6.12741 13.669
227 2 10.5321 1.78008 9.31885
39 4 8.42909 2.94303 9.40514
41 4 8.00485 2.27407 14.7312
42 4 10.7798 3.52261 11.7287
45 4 8.82912 6.59979 10.5106
29 4 3.83049 6.8039 10.5095
72 1 9.53961 3.42758 14.967
73 1 11.5815 5.07328 12.2339
284 2 13.4834 1.10271 14.7462
242 2 5.53609 7.17903 13.0707
266 2 12.9734 2.56427 15.9336
124 3 7.15522 2.40328 10.2435
128 3 8.19412 1.58888 13.1984
129 3 8.38983 1.17212 15.8435
130 3 6.63349 3.18587 15.2245
131 3 12.011 2.68422 11.1877
132 3 9.38606 3.81484 10.3618
71 1 9.47016 1.40092 9.12966
44 4 6.32991 6.87627 8.58494
138 3 7.60565 7.002 9.55164
137 3 10.2573 6.63931 9.89625
163 2 10.1239 2.78731 13.1794
165 2 8.49038 4.98662 11.0048
233 2 11.026 6.02073 11.9368
229 2 9.22068 4.13726 14.1015
230 2 10.6582 2.97308 14.9052
231 2 9.30936 3.92264 16.0745
232 2 11.4418 4.85866 13.4382
5 4 13.3622 2.19281 10.3193
76 1 6.40114 7.07997 13.779
123 3 13.0945 0.615522 9.61201
226 2 9.11443 0.630391 9.91917
264 1 13.6486 2.17202 15.0402
13 4 8.65877 11.2343 3.31097
263 2 4.37457 13.4659 2.97503
46 4 3.45737 10.5793 3.15215
68 1 1.67103 12.7288 6.44165
75 1 6.47734 7.9342 7.05868
139 3 2.57014 9.69188 2.17368
140 3 2.69032 11.1607 4.3951
238 2 7.403 8.60199 7.31426
149 2 7.32927 12.0253 4.28545
287 2 10.7207 7.60032 2.41873
160 2 6.88621 13.5873 7.58378
166 2 4.40855 11.8321 2.27651
167 2 4.8873 9.8218 3.64062
209 2 3.39353 8.15946 6.24051
217 2 2.74659 13.159 6.18743
218 2 1.6496 12.176 7.51844
159 2 2.80138 12.3502 1.02584
141 3 4.6397 12.2088 7.92452
294 2 4.96112 13.1156 0.229823
38 4 5.24489 13.6575 8.07734
158 2 1.69138 13.706 4.66701
262 1 5.47893 13.3793 2.77552
219 2 0.808082 13.4621 6.31848
270 1 6.83164 10.5035 3.54068
271 2 6.43916 10.0442 4.46594
272 2 7.98787 9.39356 3.06223
273 2 6.11252 10.6678 2.64639
282 2 5.99374 12.294 3.11016
33 4 1.48298 11.1646 5.44126
239 2 5.49671 8.55928 7.10921
291 2 8.38236 10.5158 0.748661
150 2 9.61313 8.75287 0.0537501
168 2 3.22434 9.9635 7.79311
253 2 6.31877 7.45336 1.44732
237 2 6.53077 7.22133 6.1976
248 1 6.18068 7.22787 0.368995
195 2 7.44143 8.84808 0.141866
188 2 9.84881 9.29022 2.18897
18 4 8.79163 10.1922 15.0341
22 4 -0.0829881 13.8177 12.6139
245 2 6.73727 12.0091 12.2059
47 4 3.87447 11.2124 8.93781
48 4 7.67338 8.24044 12.8777
49 4 6.25516 10.3051 10.6879
244 2 8.04384 12.1895 10.7316
225 2 1.64012 11.0683 12.9939
77 1 6.92831 12.077 11.0361
121 3 0.957227 13.1188 11.3498
60 1 7.42353 10.4502 16.353
35 4 1.30052 11.7182 10.7346
142 3 2.57733 11.5636 9.82374
143 3 8.75588 7.43957 11.9663
144 3 8.53209 9.08521 13.9073
145 3 4.9512 10.4948 9.86082
146 3 6.76072 9.3341 11.7836
278 1 3.44383 13.4648 16.0869
153 2 3.44809 7.86563 11.7453
279 2 3.13436 12.3955 16.0072
169 2 7.69798 10.7499 9.80084
223 2 2.31477 9.64594 11.8104
196 2 6.82044 11.1624 15.4167
243 2 6.26341 12.9116 10.5558
254 2 4.93905 8.61953 16.3292
136 3 4.72085 7.46862 9.3924
252 2 6.54718 7.63857 16.3205
240 2 6.02795 7.33006 14.9204
293 2 3.48984 13.9685 15.0646
ITEM: TIMESTEP
300
ITEM: NUMBER OF ATOMS
295
ITEM: BOX BOUNDS xy xz yz pp pp pp
-8.4173399999999994e+00 1.5296146999999999e+01 -7.7743739999999999e+00
0.0000000000000000e+00 1.4189300000000001e+01 -6.4296600000000004e-01
0.0000000000000000e+00 1.6498000000000001e+01 5.8050000000000002e-01
ITEM: ATOMS id type x y z
6 4 0.630512 1.61943 5.97297
7 4 -0.31254 3.75649 2.05567
8 4 -0.865663 3.99911 7.71815
10 4 -1.90811 6.53176 5.67286
25 4 0.922798 5.98832 4.09616
27 4 3.37832 6.35198 5.80364
50 1 3.11579 0.696688 2.25686
51 1 2.30199 2.30996 5.52257
52 1 -1.71281 5.01361 1.67966
204 2 4.75777 3.27292 2.49071
79 3 -0.0861641 1.13488 4.59636
276 2 5.62424 0.777688 0.525948
54 1 -3.36226 6.7203 4.57568
82 3 0.464555 3.2753 0.578814
84 3 -0.0126164 2.81673 6.74991
85 3 -2.33251 5.06321 6.90101
182 2 -3.0335 6.58522 3.51237
102 3 0.63955 4.61914 3.05989
103 3 -0.520704 6.20517 4.80513
104 3 4.52834 3.11367 8.01739
106 3 2.01865 5.61817 5.40623
107 3 4.29689 5.57532 6.75395
170 2 2.76666 0.390817 3.29483
203 2 4.63477 1.81331 3.72979
81 3 -1.1544 2.58595 2.70484
173 2 2.17201 2.44716 4.34362
174 2 3.05056 1.42409 5.72968
175 2 2.61178 3.26595 6.0641
176 2 -2.4197 4.96403 2.56289
274 1 6.24637 1.63594 0.918516
178 2 -1.08613 5.94629 1.52652
277 2 5.85796 2.09641 2.0133
205 2 4.13419 3.48936 4.22298
171 2 2.68501 1.76126 1.99479
257 3 3.53602 6.36757 0.113759
180 2 1.28666 5.00187 7.51765
250 2 3.7204 6.48986 2.71338
78 3 1.13888 0.608937 0.156307
63 1 4.83667 2.91562 3.53599
96 3 2.98193 0.892322 8.05942
172 2 4.21098 0.74713 2.18277
179 2 -0.0987953 6.27355 7.84006
177 2 -2.20441 4.6891 0.688217
249 2 4.67106 4.79066 2.93898
53 1 0.384239 5.2744 8.18656
3 4 0.101187 2.61973 15.962
267 1 -0.42067 2.24152 11.2877
265 2 -1.70835 2.84308 14.1818
20 4 3.66335 2.1471 8.9393
23 4 2.65638 2.93368 14.1429
28 4 4.46169 4.50361 12.3041
285 2 -0.564072 2.76929 12.297
61 1 2.15697 3.13263 9.72017
64 1 2.82928 1.11965 13.5312
83 3 -1.40637 3.36792 9.04941
206 2 1.87586 0.70901 14.0104
97 3 4.02845 3.04559 15.3267
98 3 1.10078 2.94905 14.7611
99 3 4.48861 1.73803 10.2396
108 3 3.03402 4.02525 12.9385
9 4 -3.64201 6.7264 9.00639
19 4 5.38063 3.40014 16.0238
148 2 0.414757 6.7485 10.6282
100 3 6.1592 0.518119 11.97
269 2 0.482817 2.656 10.8093
181 2 0.538153 5.10206 9.27874
295 2 -2.64072 4.91083 12.1836
24 4 5.78277 2.06675 11.1277
197 2 2.21932 3.08623 10.8168
198 2 1.26149 2.65675 9.3064
199 2 2.45355 4.14039 9.32632
259 2 0.219694 6.80012 15.3308
208 2 2.7633 1.12417 12.4503
110 3 3.98714 5.41896 11.1266
268 2 -0.294141 1.09757 11.4259