ITEM: TIMESTEP
0
ITEM: NUMBER OF ATOMS
365
ITEM: BOX BOUNDS xy xz yz pp pp pp
-7.7317999999999998e+00 1.5563499999999999e+01 -7.7317999999999998e+00
-1.3819999999999999e-01 1.3846299999999999e+01 2.4629999999999999e-01
0.0000000000000000e+00 1.8322199999999999e+01 -1.3819999999999999e-01
ITEM: ATOMS id type q x y z
320 2 0.165698 -1.5169 3.72367 4.60886
8 2 0.00428001 1.09506 1.96024 1.36953
229 3 -0.874496 4.19216 4.03474 8.84169
160 2 0.198797 1.84327 5.40977 8.1087
11 4 1.46829 2.67559 0.416375 8.54564
13 4 1.46978 1.20127 2.30395 6.71773
9 2 -0.0137994 0.935318 4.51143 0.388861
37 4 1.26496 4.60993 4.55513 2.596
30 4 1.06074 2.77155 2.57812 4.13831
31 4 1.31338 5.81559 2.43939 0.728183
131 2 0.158428 -2.61664 5.78412 7.40429
16 4 1.22603 -0.261552 3.85413 8.90903
69 1 -0.677393 -1.86378 5.61765 6.5746
74 1 -0.641806 1.9091 1.14089 2.91486
75 1 -0.674694 5.09039 1.92042 6.3575
77 1 -0.676502 1.63946 5.70416 5.05009
96 2 -0.0020591 -1.4898 4.96398 8.40849
102 2 0.0663299 1.0833 2.53261 3.08992
107 2 -0.00769666 3.50518 5.52618 1.69726
109 2 -0.0118769 3.38743 6.22989 5.59324
78 1 -0.629343 1.76208 6.14941 1.00999
154 2 0.163317 2.39515 6.85646 0.333914
129 2 0.152056 -0.777856 5.45435 6.95743
130 2 0.166359 -2.14228 4.74136 5.90136
142 2 0.15451 2.5136 1.09925 1.97342
143 2 0.193156 1.253 0.216141 3.11414
144 2 0.0491778 3.45548 0.859602 3.87004
145 2 0.264761 4.71852 1.01205 6.94414
146 2 0.181013 5.25799 1.67615 5.24586
147 2 0.227904 4.4535 2.88083 6.55995
151 2 0.204523 2.44672 5.06969 5.49691
152 2 0.164707 1.5291 5.37219 3.94227
153 2 0.166941 0.62652 5.56928 5.71139
155 2 0.0347664 0.153217 6.19536 0.628475
201 3 -0.757415 -0.158958 1.84917 5.57524
202 3 -0.881734 1.68216 1.02267 7.50749
205 3 -0.879925 0.659803 3.55464 7.67059
219 3 -0.836584 2.36381 2.76384 5.66699
220 3 -0.822142 6.03735 0.951544 1.34683
226 3 -0.864436 3.6566 3.6172 3.36123
156 2 0.164358 2.08198 5.99577 2.08201
29 4 1.23671 7.19481 0.244873 2.26187
80 1 -0.705466 1.66563 6.56843 8.42856
128 2 0.145335 -2.64652 6.22225 3.93934
227 3 -0.815426 5.49986 3.74839 1.59684
14 4 1.14615 1.03771 3.04223 12.7635
106 2 -0.012166 6.08265 1.34483 11.9044
19 4 1.34892 -0.639821 5.41544 13.9548
33 4 1.33515 3.52161 3.05811 9.83088
35 4 1.33389 3.73106 2.39637 16.6891
40 4 1.33466 1.15238 6.39114 10.2572
42 4 1.44811 4.73127 4.44316 14.3399
346 2 0.00221584 -1.57503 4.52229 16.7512
44 4 1.53211 3.55026 6.34045 12.5423
67 1 -0.680269 1.3629 1.70338 14.104
76 1 -0.653268 4.15522 0.664862 15.9073
7 4 0.925588 1.01658 2.67285 18.1903
10 3 -0.837895 -0.450793 2.36843 17.7593
103 2 0.0958108 2.0172 3.91052 10.0465
104 2 0.124601 2.46373 3.86561 12.2702
110 2 -0.00303837 1.60653 5.89205 17.4222
123 2 0.176186 1.07686 0.621738 13.9377
124 2 0.198347 0.989313 2.07401 15.1058
125 2 0.140695 2.56647 1.8323 13.9401
221 3 -0.882548 3.29116 1.56219 9.4833
97 2 0.0887414 -2.18899 4.98918 14.4271
150 2 0.15796 4.34345 0.963383 14.8096
207 3 -0.806593 -3.37927 6.73853 16.9099
203 3 -0.84584 0.446942 2.19541 11.5567
169 2 0.153541 7.16048 0.160683 16.4334
206 3 -0.814962 0.0337725 4.12242 13.3533
204 3 -0.854577 -1.12844 2.53867 9.4273
209 3 -0.88185 -0.807526 6.53752 12.8775
99 2 0.0205291 4.00589 -0.11572 17.7243
223 3 -0.798125 4.82259 2.20216 17.8414
224 3 -0.825593 2.19813 2.32131 17.2598
225 3 -0.865705 4.27192 3.07804 11.2217
231 3 -0.814154 0.535716 4.59317 10.1043
234 3 -0.818536 3.98435 3.40531 15.4665
36 4 0.986198 5.70829 3.01846 11.8491
236 3 -0.874667 0.0905817 5.71176 15.3068
238 3 -0.834567 2.33338 6.38647 11.2029
239 3 -0.838673 3.2949 4.98237 13.2596
357 2 0.153275 4.41392 0.643665 11.6684
12 4 1.25437 -0.677425 1.58642 10.6569
149 2 0.181172 5.09457 0.207634 16.3921
148 2 0.159777 3.21472 0.07145 16.1394
345 2 0.107986 0.295344 0.314406 10.0257
343 2 0.204507 0.206567 0.203848 18.1682
18 4 1.12555 -1.71698 7.51306 5.66287
23 4 1.49948 -3.25991 9.51537 7.9306
25 4 1.2176 -3.93986 12.0759 6.51122
38 4 0.997001 1.21533 7.56022 4.74366
45 4 0.970035 0.765388 7.8667 1.57579
46 4 1.29375 -1.23929 12.0467 4.61309
70 1 -0.658115 -5.41479 12.62 5.47138
338 2 0.164192 0.209452 11.6666 2.10325
79 1 -0.653241 -1.47867 10.4129 3.70765
323 2 0.207818 -3.85295 8.60893 1.22976
348 2 0.00759239 -4.92982 9.76359 4.57059
113 2 0.00701999 1.57058 8.60388 8.26591
127 2 0.156781 -3.38897 8.16171 3.91857
126 2 0.168187 -1.69976 7.64266 3.17015
132 2 0.168839 -5.37795 12.3148 4.25648
161 2 0.17335 2.67408 7.11705 8.622
157 2 0.209625 -0.595647 9.7433 4.00029
158 2 0.148891 -1.56982 10.5975 2.57234
159 2 0.169721 -2.51709 10.1168 4.19468
108 2 0.00204103 2.33666 8.80011 5.20375
347 2 0.0317236 -2.2446 7.07342 1.02418
211 3 -0.796529 -2.63514 8.53461 6.55379
213 3 -0.821721 -4.38296 10.5034 7.32793
214 3 -0.789588 -3.83363 13.4063 7.86561
228 3 -0.809814 -0.188608 7.82778 5.52777
240 3 -0.818286 1.04669 7.63643 3.17781
241 3 -0.81932 -1.13157 13.0952 3.32749
242 3 -0.803738 -2.72721 12.1382 5.46043
243 3 -0.806757 1.47024 8.96374 0.650823
245 3 -0.826856 -2.01753 10.3453 8.57081
246 3 -0.807847 -0.63694 12.8816 8.90063
247 3 -0.813858 0.196064 11.7719 5.43906
321 1 -0.654511 -2.7978 8.76029 0.952656
322 2 0.158915 -2.30974 9.33942 1.81554
47 4 1.30224 1.5572 10.5562 0.235207
324 1 -0.661394 -5.35172 11.8205 2.34117
182 2 0.242524 -4.1753 8.21704 5.86891
326 2 0.112665 -4.20074 11.3361 2.56946
327 2 0.163519 -5.40755 13.0197 2.54538
325 2 0.19296 -5.81837 11.5534 1.32807
111 2 0.00345042 -0.998834 8.31083 1.42865
98 2 -0.0046989 -4.16502 11.7378 0.784431
68 1 -0.658854 -2.46694 7.37698 3.9477
133 2 0.182056 -6.25913 12.1328 6.08749
210 3 -0.844853 -3.83802 8.52402 9.06662
162 2 0.164239 0.916184 7.05963 7.71031
354 2 0.203032 -5.42309 13.7707 5.61312
163 2 0.181599 0.367888 9.65755 9.15771
17 4 1.53416 -3.79293 7.58557 10.3435
21 4 1.49456 -0.962776 7.7531 11.8725
22 4 0.937243 -3.5533 12.0658 17.5069
24 4 1.25595 -6.15298 11.7987 10.5971
26 4 1.30301 -1.36602 10.118 13.7056
27 4 1.09189 -5.45028 10.8245 15.1919
28 4 1.01607 -3.53986 12.2858 12.3307
352 2 0.0847047 -2.36628 9.42602 17.8808
232 3 -0.825477 0.0287256 7.46472 10.5082
51 4 1.30237 2.70458 8.54301 14.7568
52 4 1.2429 -0.422661 11.5738 16.4674
72 1 -0.704682 -2.68257 9.02709 14.5809
81 1 -0.67535 0.399885 10.5017 10.0602
358 2 0.245259 -2.85374 13.559 10.0919
92 1 -0.678239 -6.20339 12.3597 14.3291
82 1 -0.677587 -2.68309 13.6154 11.2269
356 2 0.152671 -1.61033 13.4284 11.5682
100 2 0.0283116 -4.27267 10.1342 14.1135
101 2 -0.0280838 -4.37315 12.9432 13.7136
114 2 0.0685325 -1.19441 11.2069 11.053
237 3 -0.882607 -0.671327 7.23186 17.0989
137 2 0.168101 -2.98831 9.57867 15.4997
138 2 0.177911 -1.98209 8.15421 14.8494
139 2 0.179501 -3.49428 8.70992 13.8465
251 3 -0.860406 3.2074 7.57962 13.6575
49 4 1.10891 -1.08624 11.4097 9.32487
165 2 0.170688 1.33685 11.1796 10.0714
164 2 0.249632 0.16001 10.0205 11.117
364 2 0.169648 -6.37768 12.493 17.5961
254 3 -0.794877 -2.11426 11.7724 17.1421
191 2 0.174109 -5.96582 12.6457 13.2582
208 3 -0.845069 -2.52192 7.8247 11.2746
212 3 -0.795462 -6.19761 13.1719 9.57801
215 3 -0.823293 -0.460806 9.2801 12.6458
216 3 -0.818785 -4.60516 11.428 16.4126
217 3 -0.788025 -4.59457 11.5955 11.3851
218 3 -0.782903 -2.37906 11.3162 12.8588
84 1 -0.672665 0.244993 13.2463 16.1007
196 2 0.22244 1.92344 9.46045 11.5576
250 3 -0.824917 1.47351 7.94498 15.518
252 3 -0.780883 -0.578256 10.8417 14.8604
253 3 -0.812662 0.624147 10.9607 17.444
15 4 1.02331 -2.11347 7.5405 17.5901
190 2 0.161985 -5.8 13.1526 15.0247
43 4 1.3059 0.602261 6.81205 16.2902
115 2 0.0237628 2.22465 9.89858 13.8493
136 2 0.203031 -4.47609 8.36995 15.6836
1 4 1.10807 13.6983 1.44085 5.09864
2 1 -0.673091 12.7971 0.584947 6.51736
341 2 0.161565 10.532 0.849477 3.20891
4 2 0.163146 11.6848 0.809811 6.21285
6 3 -0.780109 13.5973 0.563527 3.68994
59 4 0.979028 9.12678 6.42771 6.16376
34 4 1.2988 6.75882 2.62952 6.76004
39 4 1.51556 5.47005 5.09455 8.45297
318 1 -0.667929 12.8106 3.16932 4.59326
53 4 1.373 8.50388 2.54511 3.99532
55 4 1.24525 9.65201 4.90061 1.75264
56 4 1.27204 6.59776 6.53572 4.37247
5 2 0.183745 13.0153 1.07373 7.53161
85 1 -0.646445 9.99941 1.72199 4.89976
88 1 -0.677786 10.5148 6.35967 2.54781
90 1 -0.671417 10.3964 4.84057 5.95688
266 3 -0.798165 7.89224 6.2577 5.21417
170 2 0.165835 11.0027 2.28389 4.83989
171 2 0.163638 10.2009 0.514801 4.81026
172 2 0.183001 9.51251 1.98249 5.98678
178 2 0.164701 10.5434 6.09693 3.65535
233 3 -0.8494 5.054 6.35319 7.58483
180 2 0.19258 11.5275 6.3739 2.07992
184 2 0.197498 10.2801 4.55026 4.8565
185 2 0.154798 9.9609 4.01261 6.60481
186 2 0.154103 11.5088 5.12474 6.21243
189 2 0.199874 8.88751 6.11478 8.72477
222 3 -0.786512 7.4851 1.52119 7.77617
230 3 -0.783182 6.45242 4.04878 7.53336
334 2 0.254452 7.86659 3.89354 0.0757638
255 3 -0.838145 8.11202 1.30963 2.98125
256 3 -0.802334 7.59987 2.8688 5.18859
258 3 -0.777064 9.14406 3.77978 3.09193
259 3 -0.802465 10.7063 4.2544 0.81139
260 3 -0.814216 5.58268 5.48256 3.58768
263 3 -0.788799 8.34769 5.53789 0.722263
319 2 0.165528 12.5276 2.78865 3.54202
313 2 -0.0207087 10.9923 4.35078 7.7885
32 4 1.26042 8.23455 0.152031 8.35882
351 2 0.160337 11.9111 3.79492 5.04098
349 2 0.0656042 12.1591 1.14959 1.22482
339 1 -0.624465 10.9082 0.217481 2.06369
350 2 -0.0102576 10.2796 1.4637 0.726648
91 1 -0.656398 8.531 6.79797 7.90136
340 2 0.143878 9.99799 0.15277 1.40739
175 2 0.133877 10.4088 0.689157 13.6555
20 4 1.22348 10.8267 6.01257 15.936
315 2 0.129131 9.4485 2.95631 11.1677
54 4 1.13497 12.6904 1.11803 13.0972
57 4 1.4528 8.34035 6.32358 17.6618
60 4 0.907587 11.0882 3.53752 13.7138
332 2 0.181766 7.14819 2.70153 16.994
73 1 -0.67617 9.30047 0.658746 9.80401
331 1 -0.683413 7.69548 2.69866 18.029
87 1 -0.681871 13.7818 0.375531 14.6541
105 2 0.0126846 6.90841 3.67649 10.9334
362 2 0.164203 13.254 0.709325 15.5837
117 2 -0.0446935 9.74094 2.76278 14.2996
119 2 -0.0244944 10.453 4.06658 12.1817
120 2 -0.00956521 9.70541 6.38782 13.5386
174 2 0.165008 10.4137 0.222536 11.8399
140 2 0.175003 10.267 0.115871 9.73088
58 4 1.35211 6.35603 6.68752 11.0202
312 2 0.0198154 12.2875 3.30421 10.0753
317 3 -0.781575 11.3553 5.88654 9.91477
316 2 0.14542 8.94853 3.64572 9.3548
355 2 0.138284 8.63035 0.197921 10.6309
257 3 -0.804909 13.4428 1.03749 11.6915
262 3 -0.810301 9.35974 5.54862 16.5349
264 3 -0.844938 6.25779 5.69735 9.75487
283 4 0.963011 13.6736 2.84003 16.8566
267 3 -0.816255 12.2991 2.5366 13.5469
268 3 -0.803146 11.5102 4.72197 14.6821
269 3 -0.880468 5.52228 5.62735 14.9954
270 3 -0.818106 6.72106 6.4798 17.0581
272 3 -0.875176 7.65818 6.55879 11.7954
284 2 0.0267098 14.0882 2.28783 15.2647
86 1 -0.664742 11.0018 0.164472 12.811
265 3 -0.873637 5.00217 6.49555 11.8057
310 4 0.703684 11.0872 4.35807 9.53763
311 1 -0.672577 9.53323 3.81572 10.4341
365 3 -0.822785 12.2263 2.47917 17.3698
314 2 0.186974 9.31277 4.95089 10.8611
309 2 -0.000721664 9.47713 2.71228 17.1749
141 2 0.166559 9.43861 1.81295 9.96856
177 2 0.171963 14.8524 0.932654 14.4423
308 4 0.920648 10.8972 2.80101 18.1542
333 2 0.130592 8.31559 1.86846 18.2764
235 3 -0.795448 5.84978 3.50005 13.3515
248 3 -0.83569 2.27148 10.723 6.83742
273 3 -0.840591 3.47697 9.97994 9.05327
50 4 1.32666 1.64786 12.0101 6.14057
83 1 -0.664984 3.09335 12.3749 4.94573
89 1 -0.681825 10.0472 8.04763 5.42114
41 4 1.26445 4.57811 7.28344 6.33744
121 2 0.02283 7.19063 7.52701 3.02126
48 4 1.28418 2.86362 9.53223 7.68976
166 2 0.147986 2.52173 12.8734 4.08679
167 2 0.166434 3.73323 11.4524 4.5908
3 2 0.161678 5.30505 13.2836 6.57895
181 2 0.169666 10.132 7.83508 4.32104
179 2 0.248948 9.91881 7.3569 2.41938
183 2 0.174995 9.33799 8.91107 5.62192
306 3 -0.802925 5.96037 12.8284 1.20807
305 3 -0.766466 7.72689 10.5569 0.420945
188 2 0.167834 9.08098 7.89232 7.91035
168 2 0.170455 3.84606 13.1461 5.51747
244 3 -0.869663 3.80612 8.5534 6.8901
335 1 -0.684203 1.31941 11.4454 1.91222
249 3 -0.763424 1.66261 13.3273 7.20759
261 3 -0.844744 5.72738 7.52558 5.24769
307 3 -0.792236 7.8362 10.5827 3.99437
285 4 1.01546 9.28238 10.1987 3.26341
361 2 0.0686882 3.67195 12.6765 2.60564
287 4 1.2744 8.06388 9.0589 0.857684
286 4 0.976847 5.204 13.7015 2.28452
289 4 0.85145 6.44957 10.9174 4.6588
290 1 -0.690448 6.38319 8.39159 1.45012
291 1 -0.65478 4.95328 9.95102 4.13549
292 1 -0.67605 6.48406 11.2085 6.6584
293 2 0.0602863 6.4674 12.5867 5.4416
294 2 0.174393 6.36046 7.24757 1.5047
295 2 0.187507 5.70084 8.7173 0.551836
296 2 0.154452 6.03568 8.97749 2.41582
297 2 0.184018 3.96758 9.69267 4.70459
298 2 0.1791 5.44431 8.99387 3.63776
299 2 0.10905 4.73043 10.7871 3.23125
300 2 0.169205 7.51838 10.9066 6.88849
301 2 0.185759 5.72856 10.1821 6.67195
302 2 0.177078 6.12079 11.8281 7.45289
336 2 0.162997 1.9399 12.4621 2.0278
304 3 -0.822856 9.26358 9.02646 2.29316
112 2 -0.0190617 0.451138 13.1432 1.31794
187 2 0.229976 7.40441 6.96114 7.88868
353 2 0.253867 9.62896 10.32 8.62052
337 2 0.16461 1.79507 10.6729 2.61854
328 1 -0.671581 8.82954 10.2737 9.51321
62 4 1.2879 8.98803 7.37845 12.225
63 4 1.06018 4.09695 10.4719 10.3657
64 4 1.55551 7.47779 9.20268 14.119
65 4 1.25021 4.20776 10.7841 16.6737
66 4 1.23055 6.51736 11.0432 11.9527
71 1 -0.659024 10.487 7.55774 14.9121
303 3 -0.78732 8.86842 7.85689 18.0282
93 1 -0.687187 4.30233 12.3761 10.1976
94 1 -0.677777 2.84483 10.0109 11.9184
95 1 -0.663706 3.72093 12.0423 15.3954
116 2 0.107828 6.18926 8.33897 10.637
118 2 0.105436 4.55911 7.58787 16.2448
122 2 0.00364299 5.3348 12.3104 11.8672
192 2 0.189471 3.6621 12.484 9.30016
134 2 0.192804 9.25464 7.44444 14.9611
176 2 0.167406 6.18763 13.1289 14.6696
173 2 0.130752 3.73976 12.9996 13.2467
194 2 0.168288 3.95417 13.0747 11.1612
195 2 0.184365 3.50201 9.46598 12.6535
342 1 -0.65269 7.89622 13.0756 17.4827
197 2 0.125875 2.63609 11.17 12.2333
198 2 0.145532 3.43826 11.4967 14.4891
199 2 0.161098 4.65932 12.8884 15.1477
200 2 0.163117 2.76085 12.4783 15.9146
360 2 0.170645 0.438176 13.3479 15.0024
271 3 -0.853708 10.1433 7.71055 11.2249
193 2 0.156242 5.38689 12.5495 9.91723
274 3 -0.874127 6.78194 8.00958 14.8779
275 3 -0.84794 8.35123 8.67694 12.8606
276 3 -0.815744 8.64976 9.84019 15.0587
277 3 -0.787815 3.84707 8.99886 15.8407
278 3 -0.743051 5.78379 11.0424 16.9777
279 3 -0.803235 3.26932 10.8287 17.9733
280 3 -0.847194 7.85798 11.7724 11.5849
281 3 -0.79367 5.81517 9.94419 10.8412
282 3 -0.819443 6.43993 10.4161 13.414
135 2 0.147399 10.9491 7.6828 13.8322
359 2 0.14386 1.17013 13.3099 16.7986
363 2 0.202862 8.00554 12.177 14.5351
330 2 0.24242 9.10833 9.45881 10.2332
344 2 0.187123 7.72044 13.3027 16.3985
288 4 1.21178 6.86047 11.7961 18.2552
61 4 1.38621 6.0012 6.91038 15.7158
329 2 0.190525 7.70376 10.374 9.26481
ITEM: TIMESTEP
100
ITEM: NUMBER OF ATOMS
365
ITEM: BOX BOUNDS xy xz yz pp pp pp
-7.7163363999999994e+00 1.5532373000000000e+01 -7.7163363999999994e+00
-1.3819999999999999e-01 1.3846299999999999e+01 2.4580739999999998e-01
0.0000000000000000e+00 1.8322199999999999e+01 -1.3819999999999999e-01
ITEM: ATOMS id type q x y z
320 2 0.14808 -1.47929 3.96895 4.28743
8 2 -0.00602322 1.08424 2.10475 1.32381
229 3 -0.849355 4.27532 4.00533 8.90451
160 2 0.213336 1.96982 5.24963 8.17043
11 4 1.47599 2.64031 0.44323 8.52965
13 4 1.45766 1.12463 2.20011 6.6579
9 2 -0.0158079 1.00166 4.6121 0.211791
37 4 1.26625 4.79724 4.70728 2.6732
30 4 1.03586 2.67766 2.68576 4.00948
31 4 1.32598 5.80729 2.5902 0.608136
131 2 0.155028 -2.60158 5.72362 7.41484
16 4 1.20946 -0.305812 3.67748 8.92887
69 1 -0.678569 -1.75847 5.58365 6.63566
74 1 -0.64254 1.91521 1.11196 2.81263
75 1 -0.678944 5.10798 1.91473 6.56715
77 1 -0.68081 1.66004 5.71292 5.07288
96 2 -0.00161162 -1.62895 4.61134 8.3103
102 2 0.0295183 1.02557 2.59782 3.05159
107 2 -0.00608434 3.7749 5.68285 1.61391
109 2 -0.00162458 3.42255 6.34367 5.37483
78 1 -0.624124 1.92801 6.07274 1.00638
154 2 0.148642 2.78122 6.72498 0.530586
129 2 0.15475 -0.711228 5.5903 7.02048
130 2 0.150888 -1.9888 4.65245 5.85264
142 2 0.147612 2.35532 1.11889 1.73309
143 2 0.187296 1.16094 0.324771 3.06816
144 2 0.0655504 3.35161 0.887474 3.72437
145 2 0.257674 4.75029 0.992029 7.15656
146 2 0.19735 5.15901 1.69257 5.44306
147 2 0.227502 4.44028 2.80995 6.73814
151 2 0.216151 2.43442 5.03944 5.48704
152 2 0.164384 1.47536 5.39007 3.98248
153 2 0.157922 0.674424 5.68997 5.77567
155 2 0.00459195 0.219032 6.16566 0.65316
201 3 -0.789715 -0.27807 1.8685 5.71811
202 3 -0.8813 1.56762 0.908938 7.45958
205 3 -0.864295 0.703065 3.33538 7.76939
219 3 -0.815067 2.36721 2.74736 5.54363
220 3 -0.804854 6.10309 1.01513 1.26307
226 3 -0.824359 3.62924 3.79012 3.37797
156 2 0.160537 2.07865 5.71418 2.05372
29 4 1.26845 7.07731 0.258047 2.28998
80 1 -0.689693 1.78071 6.37948 8.46307
128 2 0.125657 -2.82037 6.04602 4.29138
347 2 0.0112175 -2.09477 6.71833 0.996272
162 2 0.158096 1.02928 6.82788 7.70474
14 4 1.11034 1.07575 3.07026 12.8298
106 2 -0.0314014 6.20366 1.34648 11.8731
19 4 1.2937 -0.609154 5.43494 14.0054
33 4 1.30583 3.49884 3.095 9.9134
35 4 1.38527 3.81904 2.40677 16.6576
40 4 1.29128 1.18454 6.35136 10.2519
42 4 1.50062 4.81871 4.39859 14.4226
346 2 -0.0163117 -1.3978 4.44087 16.2532
44 4 1.55468 3.52717 6.43353 12.5555
67 1 -0.69192 1.55984 1.81019 14.1749
76 1 -0.671057 3.93764 0.578771 15.8106
7 4 0.931467 1.12632 2.80922 18.1451
10 3 -0.832898 -0.305336 2.46667 17.6655
103 2 0.089028 2.01988 3.9663 10.0957
104 2 0.11053 2.34848 4.12911 12.3509
110 2 -0.00160398 1.77897 6.06971 17.4313
123 2 0.191148 1.51197 0.792434 13.766
124 2 0.198363 1.05347 1.95864 15.1808
125 2 0.167399 2.64794 2.23632 14.2634
221 3 -0.883887 3.19216 1.65809 9.32127
97 2 0.0858313 -2.1784 5.19774 14.6205
150 2 0.152151 3.98795 1.00856 14.7608
207 3 -0.831789 -3.35956 6.76594 16.8638
203 3 -0.830161 0.622995 2.05624 11.6388
169 2 0.153621 6.83749 0.122621 16.2216
206 3 -0.805856 -0.131641 3.99895 13.3981
204 3 -0.844537 -1.17637 2.41559 9.57793
209 3 -0.841067 -0.731484 6.62028 12.9415
345 2 0.0939321 0.30869 0.10765 9.87547
223 3 -0.828629 4.88254 2.40783 17.7965
224 3 -0.826845 2.31146 2.38025 17.2454
225 3 -0.862022 4.23938 3.0889 11.3434
231 3 -0.812913 0.534543 4.57045 10.0354
234 3 -0.848908 4.26912 3.42697 15.5871
36 4 0.984525 5.66472 2.93316 12.0349
236 3 -0.860584 0.269504 5.6805 15.2992
238 3 -0.861483 2.409 6.58249 11.2717
239 3 -0.783316 3.2588 4.91656 13.4557
357 2 0.127859 4.60936 0.650885 11.966
12 4 1.23608 -0.496006 1.43027 10.6641
149 2 0.169704 4.91659 0.0636116 16.1439
177 2 0.175497 -0.303256 0.936941 14.2505
343 2 0.191208 0.468663 0.136811 18.2092
235 3 -0.848653 5.77166 3.46606 13.4854
148 2 0.160771 2.99128 -0.0727431 16.0169
18 4 1.07185 -1.75635 7.43211 5.73178
23 4 1.53315 -3.25115 9.43664 7.84311
25 4 1.25656 -3.91955 12.1557 6.67077
38 4 1.01452 1.24995 7.57652 4.64986
45 4 0.997874 0.824102 7.77507 1.53001
46 4 1.21913 -1.34927 11.8456 4.38166
70 1 -0.681108 -5.40343 12.3834 5.50737
338 2 0.177153 0.248776 11.643 2.21305
79 1 -0.695126 -1.61617 10.2572 3.46229
323 2 0.201582 -3.86352 8.12426 1.3393
348 2 0.0116851 -4.83439 9.60024 4.27722
113 2 0.000866919 1.67599 8.34834 8.01641
127 2 0.174132 -3.40232 7.89647 3.9855
126 2 0.160012 -1.69005 7.45923 3.20425
132 2 0.178901 -5.28903 12.2814 4.34443
161 2 0.178092 2.78241 6.99576 8.61171
157 2 0.198053 -0.636772 9.69355 3.72466
158 2 0.148945 -1.63514 10.625 2.35194
159 2 0.174261 -2.51207 9.68185 3.79097
108 2 0.00514528 2.57944 8.56838 5.03524
163 2 0.166482 0.523799 9.66486 9.12657
211 3 -0.811348 -2.66529 8.3927 6.56291
213 3 -0.80172 -4.29084 10.3934 7.2374
214 3 -0.820158 -3.86522 13.3573 7.9491
228 3 -0.769716 0.0040965 7.94218 5.54619
240 3 -0.836923 1.06337 7.62238 3.09829
241 3 -0.819382 -1.31594 13.098 3.29659
242 3 -0.747561 -2.6762 11.9613 5.68341
243 3 -0.769767 1.42939 8.93111 0.668302
245 3 -0.822536 -2.12647 10.4227 8.53529
246 3 -0.816906 -0.588004 12.7846 8.77857
247 3 -0.753128 0.204664 11.8849 5.2056
321 1 -0.652271 -2.80861 8.39092 1.12312
322 2 0.170568 -2.35864 8.96059 2.06392
47 4 1.26708 1.59467 10.6844 0.234891
324 1 -0.650086 -5.2555 11.8012 2.35222
182 2 0.250554 -4.3598 8.25477 5.91895
326 2 0.11654 -4.1396 11.4008 2.72716
327 2 0.1699 -5.40091 13.0123 2.58061
325 2 0.17014 -5.61157 11.5259 1.23058
111 2 0.0140274 -0.977298 8.08707 1.63307
98 2 -0.00265669 -3.9371 11.6588 0.898648
68 1 -0.658174 -2.50468 7.28867 4.05638
133 2 0.193158 -6.15421 11.62 5.86923
210 3 -0.818535 -3.78006 8.4205 9.02385
337 2 0.155586 1.76716 10.5568 2.54734
354 2 0.200751 -5.71832 13.4393 5.77429
17 4 1.52858 -3.85245 7.58176 10.4105
21 4 1.49769 -0.992959 7.7487 11.7235
22 4 0.954131 -3.57614 11.9073 17.4861
24 4 1.27753 -6.21494 11.7599 10.5407
26 4 1.29964 -1.34527 10.2106 13.6129
27 4 1.05451 -5.34997 10.8932 15.1364
28 4 1.03803 -3.46434 12.2945 12.3727
352 2 0.0928581 -2.55963 9.32364 18.2669
232 3 -0.829406 -0.0179834 7.37388 10.4016
51 4 1.2751 2.65505 8.50244 14.697
52 4 1.22937 -0.499053 11.6183 16.4089
72 1 -0.682545 -2.47991 8.98932 14.4986
81 1 -0.69339 0.448467 10.5085 10.0293
115 2 0.0351527 2.11599 9.78646 13.7249
92 1 -0.68421 -5.96871 12.5473 14.3788
82 1 -0.691309 -2.61228 13.6268 11.3433
356 2 0.146699 -1.53391 13.4907 11.6104
100 2 0.0138005 -3.99426 10.2559 14.2309
101 2 -0.0124857 -4.24381 13.1616 13.7035
114 2 0.0583455 -1.21031 11.1577 10.9498
237 3 -0.835733 -0.654079 7.36143 17.0852
137 2 0.178137 -2.76982 9.47175 15.4251
138 2 0.211257 -1.80629 8.11813 14.7159
139 2 0.163389 -3.4134 8.63066 13.858
251 3 -0.88021 3.21106 7.51074 13.6326
49 4 1.13731 -1.00165 11.3353 9.19386
165 2 0.187703 1.40731 11.1136 9.98683
164 2 0.26469 0.215212 10.0041 11.0236
364 2 0.198605 -6.28597 12.5359 17.5785
254 3 -0.818173 -2.12809 11.7624 16.9588
191 2 0.215173 -6.12161 12.4894 13.2501
208 3 -0.861402 -2.55674 7.81168 11.3062
212 3 -0.813611 -6.06215 13.0723 9.6925
215 3 -0.806223 -0.533394 9.27931 12.4412
216 3 -0.78883 -4.70045 11.24 16.6882
217 3 -0.764012 -4.67923 11.7075 11.5309
218 3 -0.836415 -2.36771 11.3321 13.0177
84 1 -0.675423 0.120014 13.3314 16.07
196 2 0.213524 2.60947 9.1463 11.7997
250 3 -0.81552 1.38722 8.04298 15.5039
252 3 -0.755786 -0.398389 10.8331 14.8714
253 3 -0.762313 0.556046 11.0029 17.6328
15 4 1.02313 -2.12906 7.3523 17.7272
190 2 0.158804 -5.34778 13.4643 14.8715
43 4 1.27341 0.690227 6.85576 16.2934
99 2 0.00945174 -4.01814 13.575 17.5824
358 2 0.236159 -2.77448 13.7087 10.2503
1 4 1.06638 13.6078 1.55284 5.06351
2 1 -0.645013 12.7433 0.752354 6.47855
341 2 0.186101 10.5865 0.864201 3.27047
4 2 0.1256 11.8642 1.69818 6.48909
6 3 -0.772313 13.4127 0.33189 3.74562
59 4 0.919532 9.17572 6.36026 6.17296
34 4 1.29955 6.82429 2.64346 6.78682
39 4 1.53998 5.54041 5.07576 8.48512
318 1 -0.659809 12.8854 3.28994 4.3519
53 4 1.36825 8.52568 2.42249 3.94348
55 4 1.24176 9.45055 4.78046 1.76486
56 4 1.26093 6.55608 6.60925 4.47569
5 2 0.189551 13.5028 0.912764 7.35865
85 1 -0.661139 10.054 1.85189 4.91579
88 1 -0.672011 10.2966 6.29333 2.53847
90 1 -0.673109 10.4677 4.77811 6.03246
266 3 -0.754022 7.78236 6.04229 5.33316
170 2 0.159776 11.0454 2.48179 4.60486
171 2 0.182308 10.3767 0.724625 4.98932
172 2 0.188022 9.64084 2.20871 5.95788
178 2 0.158456 10.353 6.02384 3.63978
233 3 -0.865839 4.83738 6.25859 7.64482
180 2 0.182873 11.3403 6.17257 2.04183
184 2 0.196956 10.2828 4.41323 4.99455
185 2 0.151351 10.0253 4.04161 6.78043
186 2 0.142596 11.6521 5.09943 6.243
189 2 0.216304 9.46685 6.50054 8.77492
222 3 -0.824049 7.67162 1.62206 7.73992
230 3 -0.770955 6.66784 4.27107 7.60935
340 2 0.141086 9.95165 0.223938 1.57755
255 3 -0.850108 8.05106 1.26401 3.03971
256 3 -0.764483 7.42589 2.70811 5.23334
258 3 -0.789191 9.12814 3.69808 3.07084
259 3 -0.775455 10.8327 4.00765 0.857689
260 3 -0.875747 5.60254 5.6755 3.60049
263 3 -0.807112 8.3042 5.42055 0.880886
319 2 0.170268 12.4591 3.07031 3.33069
313 2 -0.0202369 11.1468 4.56142 7.86137
32 4 1.34377 8.16649 0.200885 8.2521
351 2 0.140908 11.9814 3.83827 5.07732
349 2 0.0487912 12.1942 1.3263 1.52853
339 1 -0.632981 10.8917 0.335327 2.24287
350 2 -0.0161466 10.4348 1.36717 0.645361
187 2 0.22223 7.71841 6.72272 8.20299
227 3 -0.806848 5.63543 3.69509 1.76231
334 2 0.243525 7.86127 3.95387 0.0812687
175 2 0.149852 10.5073 0.536067 13.7977
20 4 1.22971 10.9229 6.08427 15.8556
315 2 0.135291 9.54291 2.95408 11.0799
54 4 1.11269 12.7063 1.06864 12.9782
57 4 1.42856 8.44708 6.31034 17.5798
60 4 0.920189 10.9736 3.51428 13.8025
332 2 0.190289 7.36948 2.89747 16.7605
73 1 -0.650386 9.28534 0.756245 9.74886
331 1 -0.665872 7.65727 2.78849 17.8522
87 1 -0.661617 13.9318 0.288834 14.3859
105 2 0.0103629 6.91936 3.66537 11.1517
362 2 0.1415 13.3219 0.500197 15.3793
117 2 -0.0455749 9.84472 2.68317 14.7281
119 2 -0.0172949 10.2389 3.90104 12.3503
120 2 -0.00398592 9.7147 6.45287 13.3133
174 2 0.1581 10.5555 0.25669 11.9075
140 2 0.176122 10.2739 0.218434 9.39798
58 4 1.33331 6.20628 6.74113 11.0008
312 2 0.0253196 12.3212 3.4109 10.021
317 3 -0.831784 11.3581 6.01279 10.077
316 2 0.14101 9.01374 3.734 9.25683
355 2 0.13627 8.75296 0.253071 10.6167
257 3 -0.782935 13.5817 0.771726 11.6106
262 3 -0.827246 9.5172 5.57268 16.5649
264 3 -0.856011 6.06316 5.7475 9.81493
283 4 0.937143 13.7784 2.8236 16.7123
267 3 -0.806475 12.0587 2.48977 13.4424
268 3 -0.798982 11.545 4.86789 14.4882
269 3 -0.857387 5.42371 5.77403 15.061
270 3 -0.827552 6.90897 6.39178 16.9756
272 3 -0.855142 7.67784 6.46534 11.4093
284 2 0.0218282 14.0836 2.09901 15.194
86 1 -0.666011 11.0706 0.0981968 12.8911
265 3 -0.891784 4.99145 6.547 12.0415
310 4 0.7437 11.0832 4.56028 9.65293
311 1 -0.681879 9.53688 3.86712 10.4731
365 3 -0.820083 12.2877 2.51869 17.2169
314 2 0.212118 9.07348 4.76758 10.9995
309 2 0.00145205 9.54478 2.89107 17.2812
141 2 0.171206 9.37621 1.9183 9.95614
333 2 0.121045 8.25547 1.82305 18.0993
308 4 0.921459 11.0324 2.69833 18.1723
248 3 -0.844296 2.14063 10.7551 6.96561
273 3 -0.831363 3.39442 9.92227 9.11057
50 4 1.3277 1.58338 12.0501 6.21509
83 1 -0.663188 2.96714 12.5953 5.07323
89 1 -0.684484 9.89489 8.16068 5.51465
41 4 1.27282 4.57572 7.25914 6.4787
121 2 0.0131208 7.15298 7.78408 3.29945
48 4 1.24927 2.81511 9.51171 7.67161
166 2 0.173671 2.41993 13.0974 4.22936
167 2 0.150012 3.62872 11.6628 4.67367
3 2 0.1581 4.50834 13.5842 6.72353
181 2 0.140491 9.87864 7.74054 4.44621
179 2 0.237361 9.82443 7.30708 2.41208
183 2 0.186804 9.13763 8.92647 5.8087
306 3 -0.811883 5.85689 12.7027 1.2456
305 3 -0.743165 7.5388 10.4955 0.28868
188 2 0.184708 9.08555 8.03079 7.75913
168 2 0.175307 3.74399 13.4252 5.53662
244 3 -0.860874 3.84445 8.64719 6.79088
335 1 -0.663452 1.27332 11.4908 1.89001
249 3 -0.79991 1.4417 13.347 7.25802
261 3 -0.834621 5.84251 7.58983 5.50768
307 3 -0.762771 7.81261 10.6116 3.932
285 4 0.967374 9.29727 10.1778 3.16258
361 2 0.0616993 3.5633 12.6673 2.77047
287 4 1.31276 7.95105 8.96709 0.775449
286 4 1.00291 5.12246 13.6106 2.32557
289 4 0.835894 6.35792 10.8983 4.57286
290 1 -0.706896 6.33833 8.27037 1.51491
291 1 -0.675451 4.7536 10.1335 3.8523
292 1 -0.655361 6.40346 11.103 6.54865
293 2 0.0709173 6.19181 12.5006 5.30041
294 2 0.171942 6.47978 7.18813 1.82552
295 2 0.175001 5.51469 8.37448 0.797992
296 2 0.15884 6.11864 8.94328 2.45318
297 2 0.188431 4.06326 10.0417 4.7264
298 2 0.154604 5.10617 9.09587 3.36891
299 2 0.13664 4.58409 11.051 3.09649
300 2 0.168299 7.34336 11.3012 7.14491
301 2 0.19246 6.13453 9.89726 6.57957
302 2 0.155685 5.47356 11.7394 6.93072
336 2 0.144432 1.95875 12.6194 2.04091
304 3 -0.813347 9.09873 9.00478 2.05349
112 2 -0.00644778 0.369562 13.2376 1.211
329 2 0.184615 7.79912 10.3513 9.13969
91 1 -0.658669 8.81629 6.90115 7.97579
353 2 0.249187 9.59464 10.3748 8.45184
328 1 -0.693683 8.91579 10.287 9.37079
62 4 1.26752 8.8155 7.45083 12.1125
63 4 1.01728 4.09432 10.5301 10.3405
64 4 1.48135 7.4514 9.29723 14.1565
65 4 1.25055 4.34195 10.8191 16.5409
66 4 1.17844 6.42982 11.0337 12.052
71 1 -0.686353 10.2282 7.55174 14.8655
303 3 -0.77184 8.81108 7.89963 17.8522
93 1 -0.68872 4.24347 12.4384 10.1836
94 1 -0.70025 3.04531 10.1676 11.9603
95 1 -0.652195 3.85987 12.1143 15.3197
116 2 0.101701 6.14553 8.41953 10.5493
118 2 0.0919957 4.77754 7.92746 16.4522
122 2 0.0171153 5.3747 12.3748 11.8528
192 2 0.1696 3.51694 12.4186 9.25107
134 2 0.216074 9.09371 7.32941 14.8499
176 2 0.190753 6.43943 13.0887 14.2051
173 2 0.138777 3.61548 12.8375 12.9084
194 2 0.173096 3.86346 13.0346 11.1165
195 2 0.145547 3.77146 10.1445 12.852
342 1 -0.666346 8.01997 13.064 17.5672
197 2 0.152551 2.21526 10.9636 12.1062
198 2 0.154885 3.51955 11.628 14.3869
199 2 0.174959 4.79552 12.894 15.0682
200 2 0.16009 3.04236 12.6662 15.9799
360 2 0.164862 0.572511 13.4054 15.0616
271 3 -0.829601 9.90435 7.97514 11.0859
193 2 0.174608 5.26669 12.6984 9.90776
274 3 -0.845154 6.82232 8.06559 15.0247
275 3 -0.892047 8.28404 8.63326 12.9705
276 3 -0.734402 8.70598 10.0891 15.2954
277 3 -0.779006 3.86436 9.14223 15.8124
278 3 -0.748801 5.82597 11.2139 16.9952
279 3 -0.771715 3.28485 10.9813 17.9067
280 3 -0.816873 7.85263 11.7011 11.6694
281 3 -0.789252 5.95282 9.97565 10.8304
282 3 -0.823507 6.40039 10.512 13.6357
135 2 0.152753 10.6423 7.87964 13.8874
359 2 0.146192 0.892225 13.5248 16.8554
363 2 0.194109 8.26203 12.485 14.8849
330 2 0.270621 9.24016 9.42933 10.0667
344 2 0.191139 7.54444 13.235 16.5579
288 4 1.27712 6.87171 11.779 18.3024
61 4 1.3805 6.00955 6.97797 15.8273
136 2 0.22343 10.3986 8.35516 15.642
ITEM: TIMESTEP
200
ITEM: NUMBER OF ATOMS
365
ITEM: BOX BOUNDS xy xz yz pp pp pp
-7.7008728000000000e+00 1.5501245999999998e+01 -7.7008728000000000e+00
-1.3819999999999999e-01 1.3846299999999999e+01 2.4531480000000000e-01
0.0000000000000000e+00 1.8322199999999999e+01 -1.3819999999999999e-01
ITEM: ATOMS id type q x y z
320 2 0.16268 -1.37795 3.71966 4.3169
8 2 -0.00802344 1.16088 2.01191 1.28814
229 3 -0.874874 4.26234 3.96207 8.83435
160 2 0.215672 2.21278 5.5129 8.09994
11 4 1.46857 2.55467 0.370967 8.4313
13 4 1.50734 1.0432 2.15659 6.6124
9 2 -0.0114931 1.01156 4.50164 0.471753
37 4 1.26442 4.88208 4.7119 2.64748
30 4 1.01239 2.70361 2.6667 3.98586
31 4 1.36083 5.9432 2.589 0.709881
131 2 0.155051 -2.41518 5.70228 7.50426