ITEM: TIMESTEP
0
ITEM: NUMBER OF ATOMS
365
ITEM: BOX BOUNDS xy xz yz pp pp pp
-7.7317999999999998e+00 1.5563499999999999e+01 -7.7317999999999998e+00
-1.3819999999999999e-01 1.3846299999999999e+01 2.4629999999999999e-01
0.0000000000000000e+00 1.8322199999999999e+01 -1.3819999999999999e-01
ITEM: ATOMS id type x y z
7 4 0.758428 3.15783 0.262282
8 2 1.44203 2.45479 1.71524
9 2 1.28055 4.82087 0.394745
155 2 2.49475 6.02499 0.178952
11 4 2.83839 0.566693 8.66079
13 4 1.07635 2.66748 6.87995
351 2 -1.53717 3.61806 4.37021
29 4 6.84265 0.842669 2.64965
30 4 2.63344 3.0643 4.274
31 4 5.2077 2.5912 0.666525
161 2 2.14348 5.50664 8.30907
68 1 -2.75162 6.38429 4.43658
69 1 -1.95322 5.82183 7.29952
74 1 1.89791 1.36683 3.25309
75 1 5.24519 2.60687 6.02964
77 1 2.12922 6.30407 4.35058
96 2 -1.58859 4.9323 8.98411
102 2 1.09134 3.04892 3.34845
37 4 4.73885 4.88016 2.65617
109 2 3.10276 6.21338 6.07604
227 3 5.16245 4.02603 1.51027
128 2 -2.70239 5.26342 4.65691
129 2 -0.727856 6.00791 7.59634
130 2 -2.08803 4.76957 6.87995
142 2 1.8452 0.80063 2.28341
143 2 1.11327 0.853723 3.90365
144 2 3.07938 1.19219 3.90488
145 2 4.41209 3.05415 6.63534
146 2 5.05326 1.54457 5.69079
147 2 5.50119 3.26282 5.09464
151 2 1.85662 5.64046 5.26816
80 1 1.87596 6.59095 8.68793
153 2 1.80477 5.65835 3.37691
131 2 -2.71036 6.07255 8.1127
201 3 -0.137714 1.80594 6.1135
202 3 1.96796 1.57809 7.77081
205 3 0.347014 3.70385 7.81924
219 3 2.2306 3.26896 5.80665
220 3 5.71927 1.14271 1.64331
226 3 3.67394 3.96876 3.53032
156 2 2.23932 5.88123 2.04607
78 1 2.12723 6.4997 1.07759
347 2 -1.95187 6.90951 1.23077
10 3 -0.980087 2.96412 0.389447
107 2 3.99997 6.23724 1.83158
152 2 3.21208 6.56272 4.32613
126 2 -2.14918 6.57831 3.55409
111 2 0.436878 6.8543 1.07358
14 4 0.413235 2.68271 13.1905
36 4 5.59321 3.21206 12.6717
19 4 -1.12257 5.15239 13.7402
33 4 3.54483 2.90603 10.4032
35 4 3.38159 2.74553 16.7643
40 4 1.22097 6.27219 10.4417
42 4 4.59636 4.82477 14.8151
43 4 0.78931 6.17058 16.0147
15 4 -1.56903 6.68982 17.7618
67 1 0.422262 1.46131 14.6982
76 1 3.57473 1.32278 15.4556
229 3 3.9816 4.10091 9.30194
16 4 -0.232827 3.85593 9.29467
103 2 2.03632 3.40923 10.8693
104 2 1.71411 2.89802 14.2688
110 2 2.12317 5.01229 16.3156
123 2 1.01377 0.422902 14.4168
358 2 5.27494 0.924659 11.7424
125 2 0.877735 1.87751 15.7466
148 2 2.6524 0.675163 15.5938
149 2 4.67904 0.813455 15.574
150 2 3.50182 2.02058 14.5353
237 3 -0.0357863 6.26017 17.3143
203 3 0.765308 1.73274 11.7237
99 2 3.91059 -0.0193063 16.8528
206 3 -0.897631 3.54347 13.4664
207 3 -2.8598 5.91438 17.1555
209 3 -1.54556 5.9961 12.4717
221 3 3.57169 1.44397 9.78832
223 3 4.2949 2.16715 17.9647
224 3 1.5514 2.38279 17.2664
225 3 4.45654 3.00931 11.6745
231 3 0.843808 4.53894 10.2442
234 3 3.56937 4.36282 16.4202
235 3 5.3731 3.45189 14.2085
236 3 -0.063661 5.67464 14.8713
238 3 2.38743 6.50555 11.5837
239 3 3.37103 5.29007 13.7868
204 3 -0.8282 2.51617 9.86519
82 1 5.80532 0.0292661 12.1906
106 2 6.52339 1.78088 12.6956
357 2 6.50876 0.115253 13.1447
284 2 -0.651119 2.56432 15.9597
345 2 0.115985 0.0471925 9.87712
12 4 -0.53325 1.28459 10.8106
18 4 -1.70235 7.2233 5.91237
23 4 -2.73638 9.3748 7.72433
25 4 -3.775 12.4529 6.62222
38 4 1.28475 7.98567 4.59375
45 4 1.23777 8.43976 1.60598
46 4 -1.4031 12.0824 4.41185
70 1 -5.48983 12.6423 5.85776
162 2 2.82594 7.205 8.84144
79 1 -1.70767 10.4532 3.48175
354 2 -6.0701 13.5718 6.25886
353 2 -4.95672 10.6912 8.35108
113 2 1.70406 8.54652 8.45888
108 2 1.94417 9.22075 5.62256
338 2 0.642775 12.0135 2.03195
132 2 -5.46665 12.6296 4.72603
133 2 -5.98018 11.7099 6.29774
157 2 -0.686063 9.85537 3.43648
158 2 -2.07295 10.9953 2.4708
159 2 -2.47378 10.0255 4.10944
348 2 -4.95603 9.79574 4.69541
210 3 -3.81701 8.61479 8.72541
211 3 -2.47888 8.5021 6.39647
213 3 -3.72807 10.9535 7.24126
214 3 -3.76447 13.5564 7.72439
228 3 -0.177553 7.48737 5.37425
240 3 1.02838 8.67327 3.12168
241 3 -1.12461 13.1831 3.29375
242 3 -2.82583 12.5223 5.3244
243 3 0.723437 9.86192 0.546421
245 3 -1.36587 9.73163 8.36881
246 3 -0.285695 12.3796 8.82298
247 3 -0.0912762 11.8336 5.42169
321 1 -1.94342 8.52437 0.228216
322 2 -0.912018 9.03687 0.291169
160 2 1.12043 7.00635 7.97587
324 1 -5.48603 12.0556 2.66616
325 2 -5.82598 11.8323 1.56561
326 2 -4.37099 11.8901 2.82704
327 2 -5.76001 13.1306 2.90978
336 2 -0.0145879 13.0941 0.581967
323 2 -2.51228 8.70798 1.15596
154 2 2.98835 7.92036 1.2852
17 4 -3.87032 7.68499 10.0918
21 4 -1.3121 7.43368 11.7569
22 4 -2.9198 12.4064 16.6603
24 4 -5.75338 12.0085 10.3843
26 4 -1.03818 9.92535 13.686
27 4 -4.90588 10.9158 14.8907
28 4 -2.99692 12.2757 12.166
232 3 -0.088144 7.11827 10.595
253 3 0.644113 11.6794 16.6508
51 4 2.4496 8.62488 15.042
52 4 -0.0981252 12.2951 15.3947
72 1 -1.47722 9.23091 15.3782
81 1 0.594599 10.0583 10.4115
363 2 -5.04231 13.2942 14.0875
92 1 -5.76846 12.4598 14.1516
251 3 2.92847 8.26049 13.609
352 2 -2.34197 8.78131 17.5072
100 2 -3.92119 10.3264 13.5805
252 3 0.181315 11.0013 13.9779
114 2 -1.13483 10.8213 10.9709
356 2 -1.28807 13.1016 11.119
137 2 -0.680477 9.6848 16.0618
138 2 -1.54437 8.16289 15.4292
139 2 -2.49216 9.75901 15.5242
364 2 -7.16448 13.6928 17.59
47 4 1.47085 11.1756 18.1641
163 2 1.47789 10.3861 9.82487
164 2 0.344023 8.91713 10.3698
165 2 0.591475 10.4766 11.4292
190 2 -6.24456 12.2204 13.079
254 3 -1.61705 12.7497 15.8274
208 3 -2.69711 8.01806 11.1242
212 3 -6.16064 13.2287 9.49356
215 3 -0.763187 8.66882 12.7847
216 3 -3.95595 11.4108 16.1097
217 3 -4.24127 12.1029 11.1179
218 3 -2.48031 11.0113 13.0009
136 2 -3.14863 8.09962 15.0403
115 2 1.43709 9.9072 14.6945
250 3 1.56175 7.4908 15.683
49 4 -0.741327 10.9307 9.32161
101 2 -3.34937 13.532 13.3614
191 2 -6.58627 12.5474 14.9444
98 2 -2.47032 11.9938 18.1924
328 1 -5.74963 10.521 9.21946
44 4 3.38565 6.83609 12.8438
344 2 -6.47791 11.9676 17.1335
1 4 13.7409 1.58096 5.36747
2 1 12.5999 0.483054 6.54581
91 1 8.43714 6.69324 8.27923
4 2 11.9405 1.42463 6.82294
6 3 13.7951 0.559748 3.73747
318 1 12.8434 3.19897 5.00715
34 4 6.859 2.7686 6.98427
39 4 5.32248 4.89386 8.81448
320 2 11.8884 3.15485 4.3383
53 4 8.33084 2.85678 4.24303
55 4 9.36352 4.31616 1.29401
56 4 6.4903 6.6439 4.45963
59 4 9.09634 6.58758 6.49144
85 1 9.80397 1.80657 4.63409
88 1 10.7566 5.4365 1.77865
90 1 10.3622 5.00063 6.3329
112 2 8.27755 0.707002 1.71272
170 2 10.747 2.48903 4.79644
171 2 9.849 1.14644 3.67154
172 2 9.60015 1.14193 5.56092
178 2 10.8249 5.52338 2.88643
179 2 10.6128 6.44493 1.17766
180 2 11.6412 4.69204 1.37682
184 2 10.3677 4.69523 5.24566
185 2 9.70554 4.25978 6.92898
186 2 11.4654 5.33542 6.76722
189 2 8.74988 5.89997 9.03665
32 4 8.17534 0.00207984 8.2246
230 3 6.4867 3.68737 8.21261
233 3 4.9712 5.96283 7.70911
255 3 7.18257 1.8575 3.78881
256 3 7.94005 3.25126 5.91642
258 3 8.8269 3.80286 2.91187
259 3 10.0043 3.08598 0.0637455
260 3 5.76624 5.56319 3.64719
263 3 8.22396 5.19268 0.578666
266 3 7.81683 6.42462 5.33416
313 2 11.1706 3.96321 7.82676
5 2 13.2622 0.298178 7.4733
286 4 13.4282 0.291383 2.25666
341 2 11.3864 1.30248 1.9316
349 2 14.1656 1.57458 1.5036
187 2 7.33582 6.79208 8.23958
339 1 11.5896 0.174521 1.93462
319 2 12.703 3.74839 5.93931
222 3 7.26683 1.14944 7.43979
127 2 11.54 6.7845 4.2206
140 2 9.31624 1.87213 9.27226
20 4 10.9536 5.8914 15.9348
359 2 7.62389 0.866247 15.244
54 4 12.0765 1.02248 12.8251
57 4 8.44582 6.39962 17.7176
60 4 10.3112 3.18709 14.0275
169 2 8.30052 0.11776 13.5821
73 1 9.29825 0.729982 9.57475
365 3 12.4439 1.67239 17.5233
87 1 12.5529 0.721641 14.5842
105 2 6.69369 4.35322 12.1183
331 1 6.8881 2.56169 17.6649
117 2 9.38967 1.81582 14.6439
119 2 8.93536 3.9276 13.4399
120 2 9.17705 6.28165 13.0317
355 2 10.3643 0.12075 9.55113
350 2 10.1992 0.466201 17.5956
332 2 6.35883 2.85627 16.7608
316 2 8.83215 4.15986 9.43265
346 2 12.9355 4.35158 17.0432
124 2 14.497 1.17889 14.688
177 2 12.8938 1.78396 14.871
257 3 13.3922 0.615544 11.6964
262 3 9.46867 5.97294 16.6191
264 3 5.97794 5.52929 10.2087
333 2 7.37379 1.54303 17.5768
267 3 11.2552 2.3959 12.7043
268 3 11.0606 4.46052 14.7884
269 3 5.65948 5.96589 15.1383
174 2 10.0672 0.302159 11.373
283 4 13.6477 2.78098 17.3605
97 2 12.6554 4.93717 14.3803
308 4 10.8814 1.96487 17.3497
309 2 10.5448 2.53262 15.7406
310 4 11.1144 4.46308 9.49482
311 1 9.48061 4.40816 10.3604
312 2 12.3463 3.38677 10.0289
314 2 9.08391 5.28742 10.9776
315 2 10.0271 3.4484 11.149
141 2 8.57815 0.591389 10.4472
317 3 11.4873 5.94929 9.6121
84 1 8.38161 0.119495 14.7278
362 2 11.5932 0.466302 15.1889
334 2 7.55365 3.39706 18.0185
360 2 9.39978 -0.0191667 15.1528
270 3 6.92175 6.77378 17.2123
303 3 8.71646 7.88798 0.279334
48 4 3.01358 9.46461 7.82368
50 4 1.47491 12.0207 6.03683
83 1 2.55481 12.4586 4.55887
89 1 9.66061 8.50411 6.03548
306 3 6.08754 12.8244 1.46068
121 2 7.04969 7.84312 3.32149
3 2 4.19256 13.4773 6.1618
166 2 1.78665 12.5351 3.7084
167 2 3.45339 11.8011 4.31668
168 2 2.92823 13.4868 4.95745
181 2 8.70576 8.73289 5.37153
182 2 10.6387 7.9342 5.50068
335 1 0.911008 12.645 1.15024
329 2 8.51591 10.5687 8.74888
188 2 8.9416 7.76684 8.4601
192 2 3.69517 12.9749 8.74559
340 2 3.81844 13.5458 0.89395
244 3 4.0058 8.35872 7.35071
248 3 2.38435 10.3666 6.64003
249 3 1.75035 13.3007 6.92893
261 3 5.47344 7.39148 5.41935
273 3 3.71708 10.2388 8.9845
285 4 9.27148 10.5271 3.58985
361 2 3.29274 13.4235 2.90091
287 4 8.03369 9.03779 1.10125
307 3 7.97705 11.0571 4.43779
289 4 6.5412 11.2029 5.4597
290 1 6.28799 8.32121 1.59812
291 1 5.36203 10.3906 4.24332
292 1 6.95364 10.05 6.92278
293 2 6.02173 12.7019 6.14992
294 2 6.44181 7.21716 1.79928
295 2 5.62994 8.41945 0.745414
296 2 5.81786 8.75937 2.56061
297 2 4.65681 11.1582 3.76564
298 2 4.85054 9.81178 5.2034
299 2 5.92828 9.7818 3.53919
300 2 7.99102 9.4445 6.64042
301 2 5.98162 9.50245 7.14553
302 2 7.12878 10.9379 7.58569
337 2 1.86173 13.3274 1.2865
304 3 8.82715 9.3898 2.55759
305 3 7.53154 10.4768 0.477633
183 2 9.91491 9.13666 7.01608
41 4 4.49577 7.05126 6.68797
288 4 6.60364 11.7006 0.0601313
272 3 7.39237 7.25871 11.3883
62 4 8.79705 7.55896 11.9883
63 4 4.38364 10.9467 10.2062
64 4 7.7494 9.43794 14.1138
65 4 4.12389 10.8279 16.7681
66 4 6.84508 11.3567 11.9808
71 1 11.189 7.41569 14.9113
194 2 3.81534 13.2413 10.736
176 2 5.61117 13.7084 14.7826
94 1 3.41352 10.5179 11.9111
95 1 4.19792 11.8036 15.1471
116 2 5.56534 8.23982 9.80387
118 2 4.86543 8.14954 16.4729
122 2 6.13669 12.9177 12.2033
330 2 9.80415 9.59088 9.7602
134 2 10.1537 7.9555 15.1713
343 2 7.18667 12.6294 16.3438
173 2 3.19052 12.5868 12.1642
135 2 11.2068 6.88453 13.8169
195 2 3.05962 9.47357 11.704
196 2 2.44454 11.1449 11.9215
197 2 4.09179 10.5483 12.7951
198 2 3.31834 12.5269 15.2599
199 2 3.93342 11.1799 14.2229
200 2 5.21286 12.4045 15.041
58 4 5.93098 6.98121 10.9517
271 3 9.95022 7.79303 10.9239
265 3 4.85244 7.07485 12.148
274 3 7.03452 8.23649 14.9864
275 3 8.72722 8.82881 12.942
276 3 9.17067 10.0318 15.203
277 3 3.51411 9.16403 16.095
278 3 5.6146 10.9686 17.4117
279 3 3.05383 11.2595 17.8853
280 3 8.31063 11.6998 11.6009
281 3 5.97939 10.6521 10.6709
282 3 6.76187 10.5684 13.3986
93 1 4.28777 12.8036 9.67498
193 2 5.39892 13.0599 9.51985
342 1 7.94138 12.5852 17.2907
61 4 6.1807 7.24411 15.8992
175 2 2.12201 13.7044 13.3193
86 1 2.85872 13.7138 12.4153
ITEM: TIMESTEP
100
ITEM: NUMBER OF ATOMS
365
ITEM: BOX BOUNDS xy xz yz pp pp pp
-7.7387231500000002e+00 1.5563499999999999e+01 -7.7387231500000002e+00
-1.3819999999999999e-01 1.3846299999999999e+01 2.4629999999999999e-01
0.0000000000000000e+00 1.8322199999999999e+01 -1.3819999999999999e-01
ITEM: ATOMS id type x y z
7 4 0.727784 3.30631 0.323426
8 2 1.29799 2.34938 1.67817
9 2 1.19002 4.81852 0.764742
155 2 2.44433 5.8257 0.158971
11 4 2.84213 0.616829 8.67604
13 4 1.16818 2.73858 6.92396
351 2 -1.77323 4.0087 5.49186
29 4 6.83104 0.79491 2.64012
30 4 2.60139 3.0301 4.25501
31 4 5.37156 2.58066 0.675214
161 2 2.27149 5.41859 8.37337
68 1 -2.80717 6.36443 4.30205
69 1 -1.88969 5.7454 7.15162
74 1 1.51509 1.48333 3.41299
75 1 5.16277 2.51639 6.17939
77 1 2.11255 6.34339 4.41962
96 2 -1.56799 5.04746 8.98158
102 2 1.00598 3.10971 3.15419
37 4 4.76692 4.83134 2.7011
109 2 3.20625 5.89482 5.98089
227 3 5.32545 4.0306 1.58786
128 2 -2.61847 5.18447 4.51295
129 2 -0.804936 5.98134 7.56127
130 2 -2.02749 4.55212 6.923
142 2 1.21826 0.867284 2.5444
143 2 1.02175 1.10459 4.30547
144 2 3.20707 1.27442 3.69929
145 2 4.29556 3.07862 6.74939
146 2 5.11103 1.33807 6.2665
147 2 5.21498 2.89421 5.13778
151 2 1.67338 5.78661 5.34562
80 1 2.04255 6.48276 8.72917
153 2 1.88141 5.79174 3.40134
131 2 -2.68249 6.18347 7.89525
201 3 -0.0871119 1.86373 6.01394
202 3 1.97655 1.61121 7.82575
205 3 0.37308 3.77865 7.86566
219 3 2.20487 3.24508 5.75788
220 3 5.80466 1.26098 1.56428
226 3 3.62182 4.02727 3.49867
156 2 2.18211 5.83412 2.03873
78 1 2.17954 6.49217 1.09623
152 2 3.22378 6.71623 4.40405
10 3 -0.895034 3.10788 0.405424
107 2 3.78283 6.19957 2.10796
126 2 -2.00475 6.76288 3.51163
111 2 0.351354 6.76399 1.38643
14 4 0.413586 2.58562 13.2505
36 4 5.59661 3.21933 12.7133
19 4 -1.26844 5.10431 13.6803
33 4 3.44872 2.91358 10.4097
35 4 3.20935 2.68935 16.8746
40 4 1.22663 6.21145 10.4625
42 4 4.41224 4.84244 14.8083
43 4 0.696782 6.15957 15.8554
15 4 -1.59055 6.64867 17.7829
67 1 0.420679 1.33139 14.7587
76 1 3.61913 1.39894 15.4272
229 3 3.93505 4.03998 9.32765
16 4 -0.33331 3.83576 9.28173
103 2 1.81695 3.23861 10.7903
104 2 1.72523 2.77495 14.4195
110 2 1.94033 5.04376 16.0941
123 2 0.981279 0.281603 14.5102
358 2 5.63938 1.04196 11.7354
125 2 0.851773 1.78689 15.7267
148 2 3.03751 0.453539 15.2853
149 2 4.77263 1.28739 15.625
150 2 3.4612 2.14196 14.5114
237 3 -0.0890387 6.19255 17.2301
203 3 0.791714 1.97392 11.8068
99 2 4.15051 0.132943 16.7961
206 3 -0.772954 3.59859 13.316
207 3 -2.8752 5.97725 17.0979
209 3 -1.45711 6.122 12.4906
221 3 3.6253 1.42686 9.90363
223 3 4.22886 2.3242 18.1014
224 3 1.58388 2.61871 17.2585
225 3 4.44196 3.14304 11.6741
231 3 0.662065 4.4598 10.3846
234 3 3.3976 4.18115 16.2386
235 3 5.18781 3.54121 14.158
236 3 -0.245154 5.6551 14.733
238 3 2.29643 6.5169 11.6054
239 3 3.32323 5.59387 13.8001
204 3 -1.17151 2.56042 9.7973
82 1 5.85355 -0.0407133 12.2456
345 2 0.342889 0.2907 10.0001
357 2 6.63026 0.0181049 13.0784
284 2 -0.773445 2.49105 15.8366
106 2 6.53746 1.77677 12.7555
12 4 -0.58147 1.43434 10.8307
18 4 -1.74888 7.20385 5.79414
23 4 -2.83518 9.38327 7.69303
25 4 -3.86694 12.4352 6.6437
38 4 1.16167 7.95504 4.69812
45 4 1.30176 8.31369 1.65841
46 4 -1.43645 12.0899 4.48497
70 1 -5.60358 12.6539 6.03131
162 2 3.007 7.02316 8.91075
79 1 -1.9754 10.4736 3.54891
354 2 -6.05366 13.5802 6.52167
353 2 -5.07587 10.6679 8.38588
113 2 1.84617 8.44391 8.70439
108 2 1.7541 9.10882 5.84433
338 2 0.597325 11.9491 1.92339
132 2 -5.5976 12.6261 4.87492
133 2 -6.10201 11.6409 6.4224
157 2 -1.06143 9.76159 3.67113
158 2 -2.13973 10.8599 2.51316
159 2 -2.90978 10.0997 4.04192
348 2 -5.14018 9.82288 4.8601
210 3 -3.76618 8.44704 8.75838
211 3 -2.50322 8.50909 6.35095
213 3 -3.63599 10.7196 7.37872
214 3 -3.8515 13.577 7.70925
228 3 -0.231226 7.34449 5.42882
240 3 1.1171 8.60535 3.20198
241 3 -1.13342 13.2292 3.2864
242 3 -2.7816 12.4887 5.33968
243 3 0.932197 9.44635 0.4551
245 3 -1.44724 9.96513 8.34145
246 3 -0.360634 12.4084 9.02588
247 3 0.0445665 11.7609 5.22915
321 1 -1.91422 8.55577 0.151706
322 2 -0.77396 8.98842 0.206345
160 2 1.34786 6.92922 7.98953
324 1 -5.43275 12.1554 2.91844
325 2 -5.46635 11.8513 1.75605
326 2 -4.33779 11.989 3.26217
327 2 -5.80907 13.281 3.06603
154 2 3.06457 7.83478 1.27933
323 2 -2.51214 8.55799 1.12499
182 2 -4.49359 8.5032 5.88177
336 2 0.126572 13.264 0.537946
347 2 -1.79306 6.91525 1.17891
17 4 -3.79496 7.652 10.1614
21 4 -1.23882 7.54474 11.8279
22 4 -2.83547 12.412 16.6741
24 4 -5.85245 11.9468 10.3509
26 4 -1.05113 9.92391 13.6937
27 4 -4.94714 10.9239 14.9434
28 4 -3.04774 12.2154 12.1188
232 3 0.056756 7.26121 10.4291
253 3 0.618579 11.638 16.7243
51 4 2.37072 8.67849 15.0035
52 4 -0.00104042 12.2825 15.4314
72 1 -1.33666 9.15789 15.3722
81 1 0.590207 10.1351 10.4717
363 2 -4.84018 13.1459 14.0007
92 1 -5.76435 12.4082 14.0609
251 3 3.11159 8.22585 13.6869
352 2 -2.3781 8.73476 17.4731
100 2 -3.91183 10.2634 13.683
252 3 0.200837 11.0067 13.9673
114 2 -1.21423 10.7175 10.9655
356 2 -1.44926 12.8116 11.0871
137 2 -0.528252 9.37072 16.1557
138 2 -1.38717 8.03752 15.3171
139 2 -2.37976 9.64522 15.6243
344 2 -6.39305 11.9507 17.2726
47 4 1.4314 11.1573 18.0864
163 2 1.49758 10.3926 9.77115
164 2 0.366332 8.9758 10.4583
165 2 0.711844 10.4476 11.5267
190 2 -6.09898 12.0207 13.039
254 3 -1.62661 12.5455 15.7504
208 3 -2.56312 8.05805 11.0677
212 3 -6.1221 13.2982 9.38592
215 3 -0.773709 8.65777 12.8349
216 3 -3.87436 11.4248 16.0512
217 3 -4.25639 12.1744 11.0521
218 3 -2.64707 10.8711 12.9761
136 2 -3.05917 8.14226 15.004
115 2 1.35116 9.9153 14.4805
250 3 1.3223 7.6218 15.5956
49 4 -0.662868 10.9946 9.34236
101 2 -3.27292 13.5804 13.3182
191 2 -6.5951 12.7042 14.823
364 2 -7.22074 13.68 17.7186
98 2 -2.5353 11.926 18.2336
44 4 3.36109 6.87876 12.7367
1 4 13.7514 1.53787 5.37961
2 1 12.871 0.43068 6.67349
91 1 8.34634 6.62178 8.29618
4 2 12.3455 1.43734 7.13755
6 3 13.5557 0.691928 3.94915
318 1 12.7872 3.25976 5.1398
34 4 6.78721 2.73085 7.0109
39 4 5.37761 4.90357 8.87588
320 2 12.592 3.42471 4.00003
53 4 8.32521 2.85315 4.26258
55 4 9.34846 4.2762 1.43033
56 4 6.56225 6.60685 4.57545
59 4 9.04032 6.58314 6.5276
85 1 9.90028 1.83853 4.62541
88 1 10.6586 5.42058 2.07799
90 1 10.3507 5.10551 6.18967
112 2 8.27897 0.583861 1.7579
170 2 10.9991 2.4 4.72836
171 2 9.93357 1.13068 3.7283
172 2 9.57306 1.38588 5.6494
178 2 10.6763 5.19411 3.19534
179 2 10.5766 6.49658 1.8535
180 2 11.6214 5.02184 1.54415
184 2 10.3188 4.87748 5.11287
185 2 9.72138 4.34886 6.78386
186 2 11.5436 5.36293 6.60877
189 2 8.61442 5.64981 8.96196
32 4 8.28275 0.0194612 8.23601
230 3 6.46323 3.77717 8.07257
233 3 5.04173 6.09213 7.91393
255 3 6.95807 1.94865 3.75296
256 3 7.89024 3.4116 5.64601
258 3 8.87014 3.63103 2.81869
259 3 10.062 3.06712 0.206812
260 3 5.88175 5.36957 3.6478
263 3 8.27704 5.22496 0.555686
266 3 7.80836 6.48949 5.5077
313 2 11.0817 4.25198 7.8246
5 2 13.9736 0.0973049 7.12582
286 4 13.4043 0.439529 2.31841
341 2 11.2791 1.48578 2.23775
349 2 13.9132 1.82651 1.49511
222 3 7.47131 1.25662 7.65867
339 1 11.5304 0.345132 2.11815
319 2 11.8441 3.34254 5.83799
127 2 11.4876 6.75839 4.07693
41 4 4.47407 6.85546 6.66705
316 2 8.97172 3.6238 9.04654
187 2 7.26773 6.70814 8.27697
176 2 13.2751 0.0466956 14.9375
20 4 10.9137 6.09011 15.8982
359 2 7.9292 0.789287 15.9373
54 4 12.0826 1.00492 12.8331
57 4 8.45591 6.44212 17.7708
60 4 10.2775 3.21297 13.9197
169 2 8.02096 0.469788 13.9896
73 1 9.2464 0.679258 9.68007
365 3 12.475 1.75086 17.5192
87 1 12.5142 0.934114 14.6566
105 2 6.78158 4.32614 12.2511
331 1 7.03831 2.6318 17.6682
117 2 9.14581 1.96321 14.4957
119 2 8.84822 3.66667 13.117
120 2 9.29072 6.11951 12.6561
355 2 10.3698 0.0375635 9.73345
350 2 10.2077 0.581761 17.5758
360 2 9.49214 -0.0223966 15.2197
86 1 10.4977 -0.0759049 12.4456
175 2 9.71341 0.0683902 13.4076
124 2 14.4999 1.17329 14.772
177 2 12.8345 1.9767 14.8918
257 3 13.5112 0.628951 11.6929
262 3 9.53858 6.18197 16.5855
264 3 5.98363 5.50457 10.2021
333 2 7.69399 1.73002 17.7683
267 3 11.3876 2.45345 12.7329
268 3 10.8967 4.54924 14.7046
269 3 5.50082 5.93657 15.193
174 2 10.0358 0.409764 11.5546
283 4 13.651 2.86685 17.2524
97 2 12.4708 4.82308 14.3187
308 4 10.951 2.05324 17.4091
309 2 10.5649 2.57241 15.7347
310 4 11.0907 4.4321 9.54189
311 1 9.35304 4.16734 10.0997
312 2 12.0903 3.34978 10.3299
314 2 8.64779 5.01466 10.42
315 2 9.66675 3.36345 11.0162
141 2 8.5947 0.45691 10.5793
317 3 11.5244 5.86987 9.91956
84 1 8.41102 0.227656 15.0003
362 2 11.5041 0.645712 15.0636
334 2 7.62988 3.52673 17.9183
332 2 6.53935 2.70177 16.6436
140 2 9.38279 1.76464 9.309
346 2 12.9842 4.39588 16.9132
303 3 8.66025 7.95882 0.162266
48 4 3.038 9.38573 7.88352
50 4 1.5113 11.9854 5.96522
83 1 2.60413 12.3224 4.54885
89 1 9.77223 8.5543 6.2245
306 3 6.26475 13.1216 1.33445
121 2 6.87553 7.85577 3.38928
3 2 4.52404 13.4717 6.26983
166 2 1.79197 12.7218 3.78312
167 2 3.24674 11.4363 4.1817
168 2 3.20475 13.2082 4.97444
181 2 9.00735 8.66923 5.36862
328 1 9.26922 10.5684 9.03903
335 1 0.955235 12.6011 1.06314
329 2 8.35565 10.3643 8.30366
188 2 8.92189 7.59076 8.60588
192 2 3.60082 12.9662 8.82585
340 2 3.84626 13.738 0.976284
244 3 3.98526 8.33326 7.09249
248 3 2.23471 10.2107 6.75559
249 3 1.63322 13.1559 7.02426
261 3 5.4888 7.173 5.45661
273 3 3.76625 10.0728 9.07245
285 4 9.23269 10.5955 3.57608
361 2 3.3681 13.4464 2.9839
287 4 7.90062 8.98758 1.167
307 3 7.79362 11.1441 4.45113
289 4 6.56522 11.081 5.39411
290 1 6.13822 8.34365 1.6439
291 1 5.3255 10.3578 4.17493
292 1 6.90408 9.88647 6.91876
293 2 6.00477 12.5871 6.0978
294 2 6.48498 7.20052 1.62345
295 2 5.54758 8.56119 0.685352
296 2 5.51145 8.6404 2.54585
297 2 4.52164 11.0468 3.70806
298 2 4.82441 9.65437 5.11018
299 2 5.88283 9.71329 3.36058
300 2 7.94482 9.43056 6.67466
301 2 6.12427 9.08386 7.05206
302 2 6.83467 10.7474 7.66431
337 2 1.89688 13.2131 1.30176
304 3 8.71833 9.40681 2.5314
305 3 7.62559 10.5579 0.550258
183 2 9.64325 9.15916 7.15743
288 4 6.70401 11.9024 0.124042
272 3 7.42803 7.3347 11.3901
62 4 8.80139 7.61836 11.9538
63 4 4.47311 10.9645 10.1426
64 4 7.78395 9.43749 14.1093
65 4 4.14617 10.8797 16.7194
66 4 6.91654 11.3875 11.982
71 1 11.213 7.57988 14.876
194 2 3.76612 13.2453 10.8393
270 3 6.94019 6.83019 17.0812
94 1 3.46065 10.6643 11.8997
95 1 4.19004 11.9548 15.1907
116 2 5.62458 8.20786 9.84796
118 2 4.76724 8.09271 16.1369
122 2 6.32082 12.9403 12.2125
330 2 9.34514 9.6979 9.75527
134 2 10.2806 8.18677 15.1479
343 2 7.45679 12.5523 16.2584
173 2 3.01266 12.6025 12.2353
135 2 11.1413 7.00842 13.8197
195 2 3.5259 9.50535 11.9143
196 2 2.41445 11.0524 11.7103
197 2 3.95497 11.1426 12.818
198 2 3.18364 12.5132 15.4168
199 2 4.25386 11.3616 14.2549
200 2 5.08684 12.6582 15.362
58 4 5.96969 6.99051 10.95
271 3 10.0573 7.88059 10.8884
265 3 4.8377 6.97304 12.0535
274 3 6.95594 8.1761 14.8607
275 3 8.77025 8.83307 12.9746
276 3 8.98339 10.1515 15.186
277 3 3.54173 9.17636 15.9428
278 3 5.55571 11.1548 17.3356
279 3 3.01025 11.4453 17.6917
280 3 8.30095 11.6983 11.4138
281 3 6.07913 10.6538 10.8706
282 3 6.8683 10.714 13.4647
93 1 4.25791 12.7731 9.75961
193 2 5.27861 13.2278 9.58554
342 1 8.01547 12.6135 17.2667
61 4 6.17615 7.18616 15.797
ITEM: TIMESTEP
200
ITEM: NUMBER OF ATOMS
365
ITEM: BOX BOUNDS xy xz yz pp pp pp
0.0000000000000000e+00 2.3135053700000000e+01 7.5715536999999991e+00
-1.3819999999999999e-01 1.3846299999999999e+01 2.4629999999999999e-01
0.0000000000000000e+00 1.8322199999999999e+01 -1.3819999999999999e-01
ITEM: ATOMS id type x y z
107 2 4.1167 6.19722 2.09539
226 3 3.78567 3.90477 3.49736
220 3 5.75072 1.26462 1.47872
219 3 2.14845 3.33177 5.76623
11 4 2.82313 0.593381 8.64412
202 3 1.92675 1.56769 7.74715
147 2 5.26523 2.55636 5.18738
29 4 6.73468 0.625693 2.51576
30 4 2.58809 3.03366 4.22995
31 4 5.46453 2.67391 0.586286
146 2 5.09917 1.17815 6.45677
145 2 4.40407 2.86898 6.88968
144 2 3.00571 1.05682 4.15216
74 1 1.69312 1.45887 3.25485
75 1 5.21006 2.30424 6.25222
230 3 6.59545 3.79993 8.21086
142 2 1.66023 0.94537 2.25131
227 3 5.39326 4.0718 1.49614
37 4 4.87234 4.80472 2.75276
91 1 8.46562 6.62024 8.26886
187 2 7.32023 6.68184 8.16239
316 2 9.18907 3.49195 8.91211
189 2 8.76805 5.68255 8.94512
34 4 6.87754 2.73848 7.01288
39 4 5.48385 4.77395 8.9554
53 4 8.28647 2.67975 4.18337
222 3 7.33072 1.20816 7.56376
55 4 9.33792 4.45622 1.35918
56 4 6.62222 6.59133 4.50811
59 4 9.09202 6.63691 6.45352
185 2 9.70208 4.44532 6.90477
90 1 10.3363 5.13441 6.2029
266 3 7.9091 6.47414 5.37086
263 3 8.21494 5.34926 0.429416
260 3 6.07038 5.34386 3.73154
179 2 10.5125 6.59887 2.02198
258 3 8.79904 3.56092 2.80496
256 3 7.88704 3.34168 5.66559
255 3 7.09164 1.68605 3.7578
233 3 5.09688 6.1471 7.99516
184 2 10.333 4.9073 5.06448
88 1 10.6649 5.52658 2.05583
109 2 3.3791 5.92733 5.82356
106 2 6.19941 1.57637 12.9973
36 4 5.45442 3.1046 12.7714
357 2 6.41855 -0.116457 13.0573
33 4 3.45866 2.98043 10.4248
35 4 3.17076 2.79069 16.8259
270 3 6.83319 6.78723 17.0795
42 4 4.40546 4.90302 14.8063
264 3 6.2729 5.3215 10.437
239 3 3.28292 5.4785 13.7408
235 3 5.13115 3.60339 14.2181
76 1 3.5623 1.3698 15.5894
229 3 4.09724 3.97307 9.30661
234 3 3.29804 4.26941 16.2925
225 3 4.18797 3.0402 11.8042
223 3 4.3039 2.45183 17.931
221 3 3.3651 1.43303 9.97886
123 2 1.02172 0.560297 14.5573
358 2 5.12959 0.746252 11.9824
99 2 4.24497 0.197468 17.0193
148 2 2.67179 0.681343 15.9375
149 2 4.49609 0.790131 15.4545
150 2 3.28383 1.91007 14.6487
20 4 10.8901 6.09914 15.9205
359 2 8.18178 0.870703 15.7447
57 4 8.36768 6.57995 17.602
332 2 6.675 2.78665 16.6328
334 2 7.69679 3.68768 17.861
269 3 5.46915 5.96526 15.1306
105 2 6.60152 4.03312 12.0624
331 1 7.17011 2.76085 17.6456
119 2 8.66107 3.74226 13.329
333 2 7.87131 1.84742 17.8178
314 2 8.60426 4.8349 10.3542
120 2 9.29249 6.42212 12.9656
311 1 9.39779 3.99862 10.0333
262 3 9.42827 6.24101 16.5208
364 2 0.503621 0.137534 17.7803
182 2 10.7146 8.45708 5.90483
23 4 12.5888 9.40257 7.85117
25 4 11.5585 12.4453 6.73178
327 2 9.58372 13.2971 2.92005
326 2 10.8876 11.8856 3.2133
46 4 13.7669 12.0663 4.46579
70 1 9.85633 12.5985 5.92821
325 2 9.65005 11.8287 1.68852
79 1 13.168 10.4208 3.68828
354 2 9.47997 13.6483 6.24179
353 2 10.3044 10.45 8.30798
324 1 9.82598 12.1732 2.79679
242 3 12.5371 12.5472 5.47879
241 3 13.7928 13.1335 3.21737
132 2 9.8634 12.5007 4.82555
133 2 9.30842 11.7915 6.5148
214 3 11.5594 13.6637 7.79152
158 2 13.1422 10.4831 2.56261
159 2 12.1048 10.4358 4.20853
348 2 10.1896 9.7439 4.61065
210 3 11.6472 8.3996 8.77731
213 3 11.7003 10.7117 7.38237
303 3 8.62223 8.03419 0.253996
261 3 5.48532 7.17329 5.46308
183 2 9.52651 9.26128 7.22616
305 3 7.28426 10.5892 0.532495
304 3 8.6969 9.54263 2.43705
89 1 9.68218 8.65748 6.20386
302 2 6.81116 10.8633 7.70165
301 2 6.07786 9.13049 7.28491
300 2 7.89839 9.38358 6.74753
41 4 4.50035 6.91212 6.64304
121 2 7.06537 7.80172 3.36244
181 2 8.90231 8.88434 5.37289
296 2 5.7495 8.76619 2.70778
295 2 5.56963 8.63501 0.720342
294 2 6.38626 7.29357 1.747
328 1 9.37855 10.3577 8.95307
292 1 6.82538 9.87388 6.97982
329 2 8.40709 10.222 8.22411
290 1 6.21958 8.36076 1.65893
289 4 6.55351 11.0651 5.47929
307 3 7.84346 10.9382 4.61958
287 4 7.83354 9.19017 1.01056
188 2 8.97464 7.65075 8.51556
285 4 9.10569 10.5791 3.55873
17 4 11.4838 7.61732 10.1837
98 2 12.8123 11.805 18.148
22 4 12.4367 12.4955 16.6568
24 4 9.46675 11.9008 10.0659
135 2 11.055 6.9029 13.7685
27 4 10.2883 11.0753 14.9548
28 4 12.1765 12.1406 12.165
191 2 8.63194 12.7071 14.3587
101 2 11.6552 13.4095 13.2587
136 2 12.1546 8.0517 14.943
218 3 12.6079 10.9003 13.0042
217 3 11.0144 11.9479 11.0237
216 3 11.3308 11.5971 16.0727
363 2 10.2209 13.6276 14.6975
92 1 9.7144 12.7641 14.1785
212 3 9.06801 13.1507 9.16735
254 3 13.7268 12.6966 15.8655
100 2 11.2185 10.287 13.705
190 2 9.95205 12.7093 13.0832
344 2 8.9912 12.4409 17.3344
356 2 13.8715 13.1126 11.088
139 2 12.8111 9.56195 15.6375
272 3 7.58373 7.38672 11.2331
61 4 6.17724 7.24148 15.758
342 1 8.02714 12.9233 17.2947
62 4 8.93852 7.71706 11.9751
64 4 7.91166 9.50317 14.1244
282 3 6.82872 10.7205 13.4164
82 1 13.3092 13.6696 12.1606
280 3 8.28158 11.7921 11.2729
66 4 6.93525 11.3651 11.8644
71 1 11.1229 7.51928 14.7841
343 2 7.51242 12.9337 16.2431
276 3 9.1157 10.0478 15.3516
275 3 8.8931 8.91016 13.0543
274 3 7.03028 8.22866 14.8506
265 3 4.96041 6.96074 12.0111
271 3 10.1047 7.96036 10.8839
58 4 6.13904 6.89105 10.8733
116 2 5.61758 7.75776 9.56973
118 2 4.81611 8.14943 16.2846
330 2 9.54921 9.45794 9.66477
134 2 10.1878 8.17619 14.9563
288 4 6.90311 11.8195 18.3026
1 4 13.7707 1.45657 5.3712
2 1 12.8962 0.331609 6.66771
152 2 18.5029 6.8675 4.46107
4 2 11.9979 1.25315 6.70417
6 3 13.8277 0.695055 3.70825
318 1 12.694 3.08288 5.02272
319 2 12.1087 3.46017 5.90644
339 1 11.6624 0.0837882 2.08168
320 2 12.0275 3.27996 4.09524
349 2 13.6381 1.92543 1.35337
341 2 11.2171 1.12438 1.93782
286 4 13.4899 0.459784 2.11798
5 2 13.5624 0.479197 7.53779
85 1 9.77979 1.57455 4.66242
313 2 11.0393 4.23881 7.89863
259 3 10.1146 3.36725 0.232358
112 2 8.24751 0.412729 1.72331
170 2 10.8934 2.18194 4.75829
171 2 9.7112 0.828034 3.83609
172 2 9.38429 1.10052 5.66765
178 2 10.6372 5.21392 3.22194
32 4 8.08604 -0.01181 8.26247
180 2 11.604 5.13124 1.53028
186 2 11.475 5.30274 6.55353
7 4 15.918 3.35107 0.313666
111 2 15.8928 6.76201 0.94713
126 2 13.2085 6.75308 3.52304
143 2 16.0747 1.31101 3.90676
10 3 14.3385 3.31539 0.463305
8 2 16.4783 2.51083 1.72979
78 1 17.7172 6.48677 1.06425
156 2 17.7404 5.94853 2.11498
9 2 16.4177 5.00006 0.663408
155 2 18.0704 5.81794 0.256401
13 4 16.4441 2.67776 6.93136
205 3 15.7516 3.77886 7.90814
351 2 13.8222 3.69635 4.98009
201 3 15.1734 1.94614 6.06118
131 2 12.5845 5.9737 7.90932
153 2 17.2396 5.75412 3.40133
80 1 17.2948 6.42485 8.73669
151 2 16.9617 5.89787 5.31407
161 2 17.5332 5.31637 8.57401
68 1 12.5351 6.39798 4.39696
69 1 13.4294 5.67773 7.20347
77 1 17.3999 6.39765 4.378
96 2 13.801 5.03484 9.03876
102 2 16.3923 3.21802 3.31518
130 2 13.2879 4.59921 6.76326
129 2 14.4768 5.78476 7.6396
128 2 12.5219 5.23939 4.64043
160 2 16.8854 6.9457 7.79121
347 2 13.5507 6.6699 1.19825
176 2 13.2438 -0.0775867 14.7864
346 2 12.7535 4.43704 17.037
140 2 9.32148 1.86998 9.81519
54 4 12.0155 1.10701 12.8608
362 2 11.2957 0.570177 14.9431
60 4 10.1386 3.24901 13.9676
84 1 8.526 0.172498 14.964
73 1 9.17619 0.722713 9.66271
365 3 12.4041 1.80055 17.4669
87 1 12.4593 0.827874 14.6481
317 3 11.4408 5.80604 9.92007
141 2 8.47509 0.352377 10.5058
117 2 9.08228 2.08712 14.6261
312 2 12.6192 3.36771 9.88524
310 4 11.2039 4.34364 9.60214
355 2 10.2185 0.0708545 9.73367
350 2 10.1393 0.71225 17.7467
104 2 17.13 2.79637 14.2098
86 1 10.4752 0.0504373 12.4872
175 2 9.74923 0.18455 13.377
124 2 14.4712 1.28676 14.8614
177 2 12.7783 1.96849 14.7955