ITEM: TIMESTEP
0
ITEM: NUMBER OF ATOMS
365
ITEM: BOX BOUNDS xy xz yz pp pp pp
-7.7317999999999998e+00 1.5563499999999999e+01 -7.7317999999999998e+00
-1.3819999999999999e-01 1.3846299999999999e+01 2.4629999999999999e-01
0.0000000000000000e+00 1.8322199999999999e+01 -1.3819999999999999e-01
ITEM: ATOMS id type q x y z
80 1 -0.689823 1.86804 6.33046 8.76709
8 2 -0.0257984 0.038277 3.57488 1.70347
226 3 -0.830054 3.656 3.97764 3.55573
153 2 0.144734 2.24253 6.75848 2.41328
11 4 1.46892 2.98352 0.207179 8.8988
13 4 1.485 1.65269 2.02372 6.88208
160 2 0.203606 1.91201 5.26189 8.26945
29 4 1.26647 6.9939 0.650436 2.56662
30 4 1.03707 2.40112 3.16275 4.17527
31 4 1.35099 5.48673 2.81024 0.829643
319 2 0.164869 -1.25681 3.9979 5.85602
220 3 -0.860103 5.93606 1.51304 1.75695
69 1 -0.679728 -0.348407 5.66336 6.51994
74 1 -0.669532 1.07387 2.34013 2.94779
75 1 -0.676788 5.17976 1.90973 5.55802
77 1 -0.683941 2.52071 6.77047 3.5637
96 2 0.00388456 -0.774929 4.78224 8.21665
102 2 0.045375 0.581381 3.78314 3.41325
131 2 0.127839 -1.48521 5.49997 6.79224
109 2 0.0136981 2.94688 6.44752 5.48067
126 2 0.145174 -2.16785 6.06901 4.78425
107 2 -0.0145707 3.98467 6.36353 2.34179
129 2 0.1632 0.492783 5.87266 7.35447
130 2 0.153086 -0.00987949 5.10681 5.6187
142 2 0.187802 1.14777 2.28657 1.80403
143 2 0.240526 0.338521 1.5467 3.27488
144 2 0.0571257 2.57882 1.48248 3.45681
145 2 0.298517 5.22875 0.683411 5.71142
146 2 0.222377 5.12509 2.26221 4.51002
147 2 0.249387 4.35811 2.3696 6.11024
151 2 0.166051 2.13092 5.92809 4.19014
37 4 1.24595 4.74179 4.95423 2.88544
347 2 0.0632882 -2.22956 5.8235 1.08454
16 4 1.2174 0.000944391 3.47724 9.09914
201 3 -0.786157 0.312284 1.2142 6.25436
202 3 -0.837674 2.75256 0.894755 7.48136
205 3 -0.860384 1.13159 2.95698 8.14123
219 3 -0.834994 2.29951 2.98925 5.7611
161 2 0.219827 2.95838 6.71342 9.01363
179 2 0.20078 -3.7855 6.90108 2.28764
14 4 1.12764 0.497993 2.55892 12.8154
360 2 0.181842 6.02919 0.726488 15.1664
19 4 1.36626 -0.854682 5.16687 13.745
33 4 1.35508 3.74588 2.87314 10.1741
35 4 1.33753 3.19405 2.71718 17.2774
40 4 1.27838 1.23535 6.10672 10.5139
42 4 1.41069 4.42027 4.34181 14.7712
229 3 -0.874846 4.42645 3.88939 9.17114
44 4 1.48511 3.84205 6.32563 12.7469
67 1 -0.69493 0.952477 1.56027 14.3953
76 1 -0.673765 3.40537 0.9981 16.3038
43 4 1.28514 0.971045 6.36142 15.8928
36 4 0.9526 5.48201 2.66995 12.6834
103 2 0.129137 2.16082 3.52985 10.2227
104 2 0.0534782 2.23573 2.5189 13.3916
110 2 0.0917245 2.30703 5.32869 16.1758
123 2 0.161658 0.561438 0.549288 13.9759
124 2 0.165649 0.17302 2.10425 15.0384
125 2 0.177668 1.8047 1.29257 15.0987
15 4 0.897212 -1.69204 6.50822 17.819
149 2 0.174395 4.41844 0.659602 16.758
150 2 0.183931 3.54244 1.40182 15.2649
10 3 -0.844711 -0.872898 2.5357 17.781
203 3 -0.85041 0.182528 1.5217 11.6074
207 3 -0.800848 -2.9169 6.14659 16.7846
206 3 -0.880968 -0.385637 3.75004 13.2529
223 3 -0.836727 4.4971 2.60488 18.1663
209 3 -0.914683 -1.33177 6.31171 12.8301
221 3 -0.873235 3.43566 1.31869 9.88658
7 4 0.929739 0.387093 3.23841 18.2851
224 3 -0.832803 1.74749 2.54311 18.0095
225 3 -0.84827 4.32402 2.88456 11.5976
231 3 -0.838612 0.711722 4.21051 10.2243
234 3 -0.802728 3.26109 4.02217 16.3206
106 2 -0.0188518 6.22145 1.18415 12.423
236 3 -0.88205 0.0463849 5.71438 14.8402
238 3 -0.804211 2.49854 6.34258 11.4728
239 3 -0.839087 3.49839 4.93815 13.5979
235 3 -0.806201 5.20634 2.79907 14.2884
356 2 0.17236 4.18171 0.62232 12.5615
148 2 0.152364 2.60262 0.207644 16.4317
237 3 -0.830817 0.17162 6.3307 17.2652
84 1 -0.673049 7.05814 0.081663 15.1253
97 2 0.0980498 -2.44713 4.82548 14.3221
9 2 0.0415586 0.375513 4.80671 17.7307
18 4 1.11097 -0.805893 7.48883 5.90871
23 4 1.53762 -2.22952 9.34121 8.15948
25 4 1.25821 -3.5544 12.0612 6.98075
38 4 0.997349 1.78583 8.47941 4.11948
45 4 1.04403 1.06578 9.22656 1.09813
46 4 1.26716 -1.39318 12.1098 4.70168
70 1 -0.69252 -5.29525 11.7292 6.39427
78 1 -0.668018 2.36622 8.16176 0.297501
79 1 -0.697323 -2.13602 10.5641 3.95646
354 2 0.210494 -6.10288 12.325 6.90555
353 2 0.214872 -4.92452 10.403 8.33687
113 2 0.0313432 0.963806 8.86856 7.78911
98 2 -0.0290159 -4.0789 11.5679 0.532201
111 2 0.0180361 -0.65526 8.63839 0.927996
132 2 0.14896 -5.1677 12.1114 5.30894
133 2 0.156017 -5.47922 10.5518 6.48277
157 2 0.197986 -1.1389 10.0334 3.73662
158 2 0.150789 -2.78236 10.6162 3.06643
159 2 0.190114 -2.68148 10.0272 4.76421
348 2 0.00233917 -5.21205 9.9101 4.43115
210 3 -0.839699 -3.37363 8.35051 8.77366
211 3 -0.81656 -1.41182 8.3938 7.05919
213 3 -0.830714 -2.96732 10.5833 7.3308
214 3 -0.801575 -3.57624 12.9678 8.78598
228 3 -0.789374 0.551724 8.01443 5.06215
240 3 -0.789164 1.28849 9.14052 2.65554
241 3 -0.822168 -1.14605 13.3146 3.57864
242 3 -0.787684 -2.65149 12.8545 5.93998
155 2 0.134439 1.73107 7.14631 0.327291
152 2 0.0972709 3.59835 7.20353 3.85138
246 3 -0.798828 -0.344156 12.8354 8.85154
247 3 -0.791412 -0.0808666 11.6772 5.42
321 1 -0.643154 -2.14864 7.55395 1.24257
322 2 0.151981 -1.67161 7.89438 2.25023
323 2 0.165302 -3.12673 8.06661 1.12467
324 1 -0.672308 -6.01468 12.3489 3.00306
68 1 -0.653187 -2.17758 7.20373 4.62682
326 2 0.131201 -4.90941 12.53 3.42828
127 2 0.167043 -1.76929 7.63953 3.61312
182 2 0.203404 -3.91755 8.51134 6.24018
162 2 0.164077 1.24323 7.09315 8.25826
112 2 0.0144998 -0.0078111 13.5814 1.2621
243 3 -0.806867 1.30232 10.6688 0.408765
128 2 0.17694 -3.1877 7.66479 5.01259
325 2 0.174008 -6.11533 12.3406 1.87033
327 2 0.20772 -6.8459 12.8912 3.60676
17 4 1.55786 -3.63169 7.37733 10.033
21 4 1.54185 -1.21821 7.53177 11.8298
22 4 0.933321 -3.85412 12.094 17.3421
24 4 1.28687 -6.03932 11.629 10.1781
26 4 1.29532 -1.41144 9.80464 13.921
27 4 1.03684 -5.60877 10.6822 14.9866
28 4 1.04333 -3.78497 11.9182 12.472
92 1 -0.68861 -6.37996 12.1908 14.1719
49 4 1.09797 -1.12501 11.7323 9.71674
51 4 1.2217 2.88281 8.37707 14.7027
52 4 1.22899 -0.861653 12.2289 15.8958
72 1 -0.688077 -1.28287 8.70747 15.3895
81 1 -0.638014 -0.0880088 11.5568 11.2822
163 2 0.160273 0.777056 12.2815 11.2946
254 3 -0.779502 -2.43208 12.0381 16.6756
352 2 0.0295723 -1.64273 8.35534 17.9898
190 2 0.151339 -5.95318 13.1491 14.728
100 2 0.101531 -4.32028 10.0455 14.063
101 2 0.0143778 -4.59902 12.8853 13.6542
114 2 0.103714 -2.73389 12.3627 10.0627
115 2 0.0247823 2.31056 9.66965 13.7229
137 2 0.206645 -0.416592 9.19764 15.9982
138 2 0.235092 -0.990471 7.69383 14.9361
139 2 0.143878 -2.2313 8.60053 16.0179
232 3 -0.812419 0.0494726 7.12991 10.7224
154 2 0.256378 3.01867 8.32748 17.5553
191 2 0.190571 -6.42823 12.3221 13.035
164 2 0.252258 0.27262 10.4682 11.5881
165 2 0.137585 -1.02309 12.0389 11.9635
136 2 0.139594 -3.85373 8.117 15.6081
99 2 -0.0109922 -4.2391 13.6306 17.882
208 3 -0.846373 -2.55666 7.89165 11.1705
212 3 -0.821953 -6.35669 13.0038 9.29012
215 3 -0.785199 -0.800789 9.09788 12.7142
216 3 -0.779872 -4.93135 11.3362 16.5184
217 3 -0.816307 -4.72232 11.6046 11.2231
218 3 -0.772952 -3.14518 10.6632 13.2558
357 2 0.0991064 -2.24878 13.3749 11.6502
245 3 -0.79642 -1.30311 10.151 9.20036
250 3 -0.861268 1.53386 7.66953 15.2309
252 3 -0.766253 -0.642363 11.0157 14.4847
253 3 -0.824469 0.2085 12.1515 16.9803
82 1 -0.692804 -2.83273 13.5496 12.7314
364 2 0.243985 -6.51137 12.1988 16.9576
358 2 0.171402 -1.99992 13.6193 13.5744
359 2 0.160536 -0.426386 13.7172 14.0591
135 2 0.16197 -4.04569 7.56245 13.6037
196 2 0.174329 1.69552 10.8159 11.7509
1 4 1.01245 14.1931 1.17483 5.42238
350 2 0.0239837 9.67235 1.54823 1.21779
286 4 1.07966 13.5489 0.0579169 2.25116
4 2 0.154531 12.4108 1.19639 6.80002
6 3 -0.794914 14.2167 0.476515 3.60496
56 4 1.29482 6.51438 6.72189 4.63751
34 4 1.37291 6.67287 2.67163 6.4638
39 4 1.56469 5.34597 4.90667 8.4323
349 2 0.0686368 13.3021 1.518 1.30792
53 4 1.36601 8.64288 2.68504 4.02554
55 4 1.20009 9.57596 4.99204 1.93356
316 2 0.137922 9.28074 3.8475 9.14854
340 2 0.199046 11.4576 0.465483 1.01673
85 1 -0.67387 10.3109 2.16751 4.86368
88 1 -0.658268 10.496 6.44718 2.67643
90 1 -0.657936 10.6351 5.17902 6.06065
166 2 0.197783 10.2923 0.127437 4.59568
170 2 0.176039 10.8387 3.04319 5.27081
171 2 0.145185 10.9721 1.63359 3.99442
172 2 0.193957 9.90836 1.49365 5.69554
2 1 -0.6596 12.7262 0.232474 6.33429
227 3 -0.784312 5.39679 4.27617 1.59448
180 2 0.175822 10.634 5.952 3.70734
184 2 0.161163 11.1424 4.93368 5.01477
185 2 0.165589 9.86972 4.37284 6.45056
186 2 0.13933 11.381 5.65701 6.82823
189 2 0.184651 9.42576 6.29731 8.5825
222 3 -0.802766 7.28285 1.4063 7.36341
230 3 -0.785393 6.27865 3.95468 7.39904
341 2 0.155601 11.346 1.53265 2.66149
255 3 -0.870667 8.2268 1.46397 3.14573
256 3 -0.797237 7.67042 3.1093 5.25139
258 3 -0.808803 9.13684 4.0362 3.08937
259 3 -0.753239 10.7531 4.0939 0.968188
260 3 -0.814696 5.95007 5.46811 3.88578
263 3 -0.783586 8.21791 5.48678 0.576315
308 4 0.955797 10.3542 2.75216 0.231054
313 2 -0.0314068 11.125 4.1774 7.69184
339 1 -0.663111 11.7452 0.58849 2.10741
320 2 0.133541 12.572 2.64796 5.91573
187 2 0.225472 7.68698 6.80973 7.96838
266 3 -0.792711 7.93144 6.64707 5.42296
32 4 1.31167 8.17844 0.212719 8.05069
59 4 0.937261 9.30817 6.67887 6.22864
318 1 -0.649196 13.6198 2.95659 5.43558
233 3 -0.840237 4.52097 5.94543 7.44555
336 2 0.17574 10.6024 0.0262246 0.0390085
351 2 0.14454 13.5799 3.04707 4.262
12 4 1.23126 14.4521 1.08183 10.5515
20 4 1.23358 11.036 5.90873 15.8159
331 1 -0.671633 7.22372 2.91733 17.8933
54 4 1.07334 11.9622 0.958228 12.7186
57 4 1.56795 8.52285 6.36447 17.6912
60 4 0.931541 10.7621 3.77012 13.2434
317 3 -0.84312 11.9566 5.83102 9.68358
73 1 -0.667636 9.17714 0.869959 9.5267
310 4 0.730262 11.4741 4.39639 9.34502
87 1 -0.681439 12.9974 0.544399 14.2984
105 2 -0.0170243 6.8756 3.46496 12.08
169 2 0.160578 7.87561 0.616646 15.7622
117 2 -0.0332118 9.0579 3.48365 13.4726
119 2 -0.0203806 10.657 4.72034 11.9122
120 2 -0.0127656 10.006 6.45039 13.2159
365 3 -0.846986 11.8435 1.96962 17.8914
346 2 -0.00727588 12.7817 3.11409 15.7548
140 2 0.17344 10.211 0.37281 9.26864
332 2 0.207665 6.66045 2.95245 16.9131
272 3 -0.850026 7.86087 6.29307 11.5201
176 2 0.122939 13.3038 1.5844 14.7707
173 2 0.157192 9.56036 0.0691244 12.275
257 3 -0.759083 13.0308 0.567518 11.3087
262 3 -0.82606 9.67647 5.8707 16.646
264 3 -0.841707 6.22958 5.76786 9.58327
58 4 1.35643 6.44383 6.51954 10.9209
267 3 -0.828305 11.4314 2.4117 12.8802
268 3 -0.820827 11.2636 4.55642 14.4887
269 3 -0.86382 5.38241 5.51384 15.2379
204 3 -0.831664 14.0635 2.27236 9.56573
283 4 0.943018 13.11 2.0895 17.0364
284 2 -0.00240153 13.4025 0.592203 16.2673
265 3 -0.834183 5.31646 6.08942 11.8904
309 2 -0.0271797 9.23447 2.6577 17.5469
315 2 0.107193 10.3804 3.07807 10.7581
311 1 -0.678487 9.81949 4.10765 10.2006
312 2 0.0600572 12.6766 3.27111 9.67446
314 2 0.217882 9.15102 4.75305 10.7793
270 3 -0.823161 7.0564 6.48473 16.8823
333 2 0.127768 7.80102 2.00107 18.0654
355 2 0.158818 8.66602 0.426522 10.4365
61 4 1.36052 6.2156 6.799 15.5732
177 2 0.156089 12.2815 -0.0856648 14.883
334 2 0.275165 7.74083 3.92202 18.2369
141 2 0.167134 9.43716 1.91309 9.67065
362 2 0.167006 13.8875 0.0447946 14.0091
338 2 0.125153 8.96634 0.269765 18.2957
361 2 0.135405 3.77385 13.2623 2.73445
335 1 -0.668752 1.78675 13.551 0.431339
50 4 1.29239 1.58898 12.0088 6.01391
83 1 -0.676044 2.60243 12.7946 4.55249
89 1 -0.661444 10.3845 8.42101 5.67192
91 1 -0.647585 8.78157 7.06792 7.9926
121 2 0.0213114 6.75197 8.00543 3.4375
307 3 -0.78867 7.40348 10.5997 4.23743
249 3 -0.78998 1.56015 13.3128 6.98424
167 2 0.158391 1.90376 12.332 3.72425
168 2 0.153518 3.57834 12.3657 4.51449
181 2 0.157734 10.4987 8.19551 4.55044
3 2 0.180601 4.11694 13.5862 5.65887
183 2 0.153892 9.67943 9.23493 5.9023
303 3 -0.803829 8.66787 7.87547 0.0293914
188 2 0.196423 9.05768 8.18526 8.33898
178 2 0.189081 9.60038 7.18586 2.56733
306 3 -0.808707 6.14595 12.8343 1.22459
108 2 0.0278345 3.11779 9.39228 4.81806
248 3 -0.855818 2.43399 10.7571 6.5813
273 3 -0.811971 3.00369 9.85641 8.9851
261 3 -0.901957 5.38816 7.38364 5.47481
5 2 0.154566 5.38645 13.2965 7.06294
285 4 0.998812 8.80218 10.5813 3.47464
305 3 -0.775509 7.27492 10.4499 0.193185
287 4 1.3334 7.86816 9.07527 0.913183
337 2 0.164569 1.66662 13.1282 1.49855
289 4 0.839807 6.03058 10.7759 5.0266
290 1 -0.674663 6.23403 8.33262 1.5936
291 1 -0.679006 4.57461 10.2012 3.69525
292 1 -0.648851 6.33432 9.82644 6.60494
293 2 -0.00218554 5.75805 12.364 5.54153
294 2 0.154092 6.4756 7.26321 1.97457
295 2 0.173941 5.52914 8.22614 0.652009
296 2 0.165005 5.63989 8.99651 2.38828
297 2 0.156697 3.56665 10.6565 3.8564
298 2 0.146244 4.6711 9.08106 3.98171
299 2 0.183096 4.86179 10.4712 2.6567
300 2 0.179343 7.32954 9.24474 6.32252
301 2 0.225274 5.56871 9.11667 7.09009
302 2 0.134162 6.47116 10.6937 7.36206
329 2 0.162014 8.48957 10.1216 8.44993
304 3 -0.78891 8.7669 9.48714 2.19518
41 4 1.31352 4.20944 7.1297 6.45132
244 3 -0.902166 3.36176 8.33719 6.99483
156 2 0.160376 3.18471 8.22871 1.09208
328 1 -0.689352 9.49532 10.1151 8.97789
48 4 1.30596 2.49521 9.49778 7.55356
192 2 0.192962 3.37305 12.3564 9.15905
345 2 0.0973856 7.53812 13.6628 9.75909
62 4 1.23837 9.15627 7.22427 11.9066
63 4 1.00837 3.85968 10.3311 10.2747
64 4 1.42831 7.51449 8.93501 13.8448
65 4 1.24193 4.12183 10.8303 16.1509
66 4 1.18575 6.52203 10.7823 11.6272
71 1 -0.671467 10.8206 7.42397 14.7203
195 2 0.162829 2.82451 9.0731 11.8201
93 1 -0.636157 4.04433 12.2855 10.0898
94 1 -0.660057 2.85017 10.3337 11.9025
95 1 -0.704748 4.61497 11.4314 14.4257
116 2 0.11169 6.30879 8.22876 10.6078
118 2 0.0944671 5.03069 7.85873 15.9764
122 2 0.0176889 5.4425 12.1559 11.5024
47 4 1.31969 1.64492 11.7559 17.7441
175 2 0.15506 2.78192 12.3079 12.559
363 2 0.169144 7.80111 12.0627 14.4891
342 1 -0.674711 7.77701 12.7038 17.1177
194 2 0.185708 3.50025 12.8368 11.1205
344 2 0.152763 7.16836 12.7264 16.1392
193 2 0.162161 5.10828 12.6799 9.83447
197 2 0.136882 3.46441 10.8261 12.8385
198 2 0.157889 3.93934 12.2704 13.8921
199 2 0.188284 4.6519 10.3992 13.8986
200 2 0.183258 5.61184 11.8376 14.5156
288 4 1.28645 6.65786 11.616 18.1504
271 3 -0.850894 10.2063 7.52649 10.6362
134 2 0.218469 9.69113 7.54213 14.7708
274 3 -0.86161 7.05528 7.48662 14.4172
275 3 -0.830082 8.57009 8.48787 12.6356
276 3 -0.783546 8.52884 9.69358 15.1114
277 3 -0.826323 3.76917 8.96487 15.9858
278 3 -0.774087 5.35082 11.0882 17.2211
279 3 -0.804083 2.90015 11.6767 16.6925
280 3 -0.820056 7.93336 11.3207 11.1021
281 3 -0.769271 5.69439 9.67493 10.5356
282 3 -0.840221 6.54768 10.1302 13.0956
86 1 -0.663513 2.71317 13.4881 12.8017
330 2 0.259449 9.72505 9.22854 9.60951
174 2 0.149108 2.58293 13.5851 13.9721
251 3 -0.912756 3.84321 7.58864 13.6868
343 2 0.185037 7.79172 13.6805 17.6465
ITEM: TIMESTEP
100
ITEM: NUMBER OF ATOMS
365
ITEM: BOX BOUNDS xy xz yz pp pp pp
-7.7292227333333328e+00 1.5558312166666665e+01 -7.7292227333333328e+00
-1.3819999999999999e-01 1.3846299999999999e+01 2.4621789999999999e-01
0.0000000000000000e+00 1.8322199999999999e+01 -1.3819999999999999e-01
ITEM: ATOMS id type q x y z
80 1 -0.682846 1.86271 6.55169 8.85624
8 2 -0.0138006 0.102517 3.35489 1.74638
226 3 -0.83894 3.64074 4.04867 3.66844
153 2 0.141187 2.01347 6.70665 2.46196
11 4 1.46203 2.96028 0.22162 8.80722
13 4 1.43389 1.40931 1.8863 6.94186
160 2 0.181932 1.88786 5.47225 8.43664
29 4 1.27853 7.03751 0.55665 2.47167
30 4 1.05263 2.39092 3.22482 4.21881
31 4 1.33301 5.59528 2.78399 0.917298
319 2 0.162795 -1.29313 3.94111 5.89256
220 3 -0.826437 5.95504 1.56462 1.93437
69 1 -0.68047 -0.354699 5.60539 6.62781
74 1 -0.658443 1.00102 2.30435 3.03691
75 1 -0.676088 5.09004 1.89471 5.9269
77 1 -0.653889 2.39412 6.70986 3.6
96 2 -0.0127694 -0.802933 4.53055 8.22722
102 2 0.0372842 0.637051 3.88756 3.47173
131 2 0.133907 -1.44554 5.43339 6.88682
109 2 0.0162402 3.20258 6.07682 5.28337
126 2 0.131669 -2.12366 6.07688 4.47041
107 2 -0.00888495 3.8101 6.21305 2.34633
129 2 0.159728 0.396422 5.93204 7.48449
130 2 0.151627 0.177473 4.89985 5.83998
142 2 0.173277 1.32784 2.25176 2.00215
143 2 0.254872 0.23115 1.49106 3.35178
144 2 0.055861 2.51575 1.47534 3.62905
145 2 0.293438 5.13162 0.704332 5.92758
146 2 0.219522 5.07968 2.25805 4.83515
147 2 0.245441 4.28299 2.24656 6.58231
151 2 0.155812 1.79804 6.05291 4.31041
37 4 1.26614 4.78107 4.94502 3.01331
347 2 0.0845982 -2.3269 6.10113 1.08706
219 3 -0.808498 1.99425 3.04489 5.71197
201 3 -0.781131 0.0467792 1.09376 6.32087
202 3 -0.827024 2.56181 0.796172 7.29603
205 3 -0.850332 1.09394 2.70763 8.37266
7 4 0.930386 0.205825 3.40743 0.00306655
14 4 1.14805 0.529016 2.68606 12.801
360 2 0.184683 5.94477 0.675189 15.1364
19 4 1.35806 -0.924513 5.20477 13.7745
33 4 1.34605 3.6589 2.86035 10.2421
35 4 1.28924 3.21238 2.45363 17.2967
40 4 1.25808 1.22902 6.17309 10.5791
42 4 1.44758 4.43209 4.35301 14.7728
9 2 0.0406667 0.59584 4.94554 18.097
44 4 1.54852 3.75866 6.22553 12.5467
67 1 -0.675583 0.773928 1.78362 14.4908
76 1 -0.694233 3.40375 0.941159 16.0832
43 4 1.28225 0.997309 6.28277 15.8882
36 4 0.970901 5.54927 2.75697 12.6569
103 2 0.119792 2.10142 3.53524 10.5111
104 2 0.0452217 2.24366 2.44863 13.4807
110 2 0.0953393 2.16143 5.01279 15.991
123 2 0.158148 0.135022 0.796769 14.0986
124 2 0.155427 0.0901459 2.47425 15.0975
125 2 0.173683 1.7431 1.44468 15.0384
15 4 0.925362 -1.68611 6.78396 17.6767
149 2 0.166345 4.38479 0.306771 16.2613
150 2 0.188626 3.42897 1.59842 15.1029
10 3 -0.834902 -0.891029 2.68916 17.7841
203 3 -0.857194 0.118784 1.64282 11.729
207 3 -0.807694 -2.87976 6.31718 16.7755
206 3 -0.877692 -0.150119 4.04138 13.1057
223 3 -0.808431 4.40589 2.44074 18.3076
209 3 -0.873612 -1.51348 6.35911 12.9452
221 3 -0.866559 3.38751 1.41988 9.77168
229 3 -0.816164 4.44602 3.79053 9.16256
224 3 -0.826221 1.70064 2.48192 17.9027
225 3 -0.859082 4.44688 2.90918 11.5962
231 3 -0.834786 0.714022 4.24573 10.3393
234 3 -0.760181 3.27777 3.85866 16.2385
106 2 -0.014602 6.13068 1.16364 12.4905
236 3 -0.868142 -0.0841404 5.79344 14.9204
238 3 -0.848742 2.53943 6.28649 11.4968
239 3 -0.830505 3.40117 4.97666 13.645
235 3 -0.835537 5.00973 3.03981 14.1943
356 2 0.161221 4.01777 0.589749 12.6233
148 2 0.148906 2.46715 0.377423 16.2058
237 3 -0.807252 0.225694 6.32621 17.3472
84 1 -0.69159 6.89454 0.176869 15.0462
97 2 0.0851445 -2.38687 4.55631 14.3753
359 2 0.144594 7.35861 0.0174647 13.9525
16 4 1.17685 -0.00249786 3.4414 9.23389
343 2 0.184648 0.266019 0.0388025 17.7369
18 4 1.0605 -0.833714 7.40892 5.77003
23 4 1.43917 -2.35434 9.28292 8.03097
25 4 1.23246 -3.37367 12.0022 7.02186
38 4 0.997872 1.84174 8.50331 4.10754
45 4 1.05803 1.14614 9.22458 1.08412
46 4 1.26146 -1.29445 12.2731 4.75031
70 1 -0.681872 -5.09497 11.8301 6.22468
78 1 -0.662193 2.46858 8.26561 0.243413
79 1 -0.653292 -2.16226 10.6863 4.04523
354 2 0.195901 -5.81447 12.1821 7.03622
353 2 0.184352 -4.84253 10.426 8.59081
113 2 0.0382853 0.963947 9.2132 7.88396
98 2 -0.0285197 -4.07158 11.6509 0.474232
111 2 0.018353 -0.402611 8.30976 0.918753
132 2 0.184727 -5.03137 12.5598 5.33708
133 2 0.177753 -5.2552 10.8192 6.00865
157 2 0.208579 -1.34522 9.95424 4.53829
158 2 0.161613 -2.27181 10.4814 2.9391
159 2 0.184186 -3.15074 10.6867 4.62773
348 2 -0.00091398 -5.0235 10.1601 4.41035
210 3 -0.8781 -3.49238 8.4347 8.71469
211 3 -0.772729 -1.45689 8.3504 6.92681
213 3 -0.852205 -2.99418 10.4098 7.10482
214 3 -0.82102 -3.60471 13.0044 8.74293
228 3 -0.766554 0.550958 8.17739 5.06258
240 3 -0.804915 1.53683 9.11477 2.58336
241 3 -0.815705 -1.2935 13.2982 3.4555
242 3 -0.80688 -2.54343 12.8322 5.94349
155 2 0.1456 1.94808 7.23135 0.120321
327 2 0.190884 -6.58165 12.8812 3.52234
246 3 -0.802144 -0.4716 12.7925 8.94116
247 3 -0.825706 0.185844 11.8901 5.42069
321 1 -0.638165 -2.24545 7.7168 1.08687
322 2 0.150255 -1.81081 8.15251 2.08598
323 2 0.148391 -3.25614 8.27964 0.715311
324 1 -0.671162 -5.97065 12.2496 2.76384
68 1 -0.646776 -2.18874 7.26808 4.47896
326 2 0.146714 -4.85129 12.4029 2.88283
127 2 0.168902 -1.89427 7.7447 3.46712
182 2 0.218493 -4.0227 8.65598 5.93944
162 2 0.165772 1.01163 7.22954 8.44432
112 2 -0.00419498 -0.17665 13.5186 1.12176
243 3 -0.758715 1.08333 10.5975 0.30065
128 2 0.181682 -3.24999 7.64054 4.89897
325 2 0.179535 -6.38804 12.3345 1.64809
152 2 0.0700605 3.61459 7.18449 3.85662
161 2 0.23436 2.8484 7.10198 8.97778
245 3 -0.78359 -1.09566 10.1525 9.11701
17 4 1.41837 -3.61836 7.49568 9.99407
21 4 1.49365 -1.27297 7.5766 11.9035
22 4 0.968993 -3.81307 12.0379 17.2104
24 4 1.31163 -6.10991 11.5966 10.2326
26 4 1.27379 -1.39396 9.85949 14.0477
27 4 1.10723 -5.62574 10.6577 15.1722
28 4 1.05655 -3.86755 11.886 12.6305
92 1 -0.672479 -6.51315 12.101 14.2623
49 4 1.0798 -1.18803 11.599 9.7197
51 4 1.21393 2.79484 8.31799 14.5912
52 4 1.28703 -0.964167 12.337 15.8966
72 1 -0.694702 -1.86403 8.88109 15.5254
81 1 -0.668831 -0.0663361 11.3971 11.2116
163 2 0.163116 0.970149 11.8684 11.0762
254 3 -0.836483 -2.40255 12.1248 16.6034
352 2 0.025031 -1.72523 8.55394 17.7891
190 2 0.143813 -6.03341 12.9693 14.8663
100 2 0.106821 -4.42633 10.0691 14.077
101 2 0.00185976 -4.82483 12.9818 13.68
114 2 0.0939754 -2.87054 12.0608 9.95026
358 2 0.177957 -2.11678 13.6769 13.4671
137 2 0.175293 -0.78314 8.76742 16.0193
138 2 0.209404 -2.1658 7.87443 15.1305
139 2 0.174625 -2.60093 9.38614 16.2359
232 3 -0.821618 -0.0366355 7.19554 10.7607
115 2 0.0382277 2.17413 9.62471 13.6307
191 2 0.170915 -6.37847 12.2217 13.1418
164 2 0.243286 -0.0390535 10.3154 11.4213
165 2 0.15812 -0.714987 11.9208 11.9776
136 2 0.175832 -4.04198 8.07654 15.4866
99 2 -0.0114831 -4.35412 13.6399 17.6623
208 3 -0.844315 -2.73336 7.95818 11.3208
212 3 -0.819351 -6.27689 13.0081 9.4233
215 3 -0.79196 -0.7216 8.88497 12.9474
216 3 -0.844194 -4.80142 11.1715 16.4081
217 3 -0.808118 -4.66391 11.615 11.3187
218 3 -0.777591 -3.12246 10.7322 13.4477
357 2 0.116431 -2.44299 13.2049 11.5684
135 2 0.209354 -3.68156 7.20816 13.8991
250 3 -0.877138 1.72679 7.56652 15.3545
252 3 -0.762432 -0.608655 11.132 14.5595
253 3 -0.82394 0.178406 12.2846 16.9677
82 1 -0.677564 -2.94536 13.4988 12.695
364 2 0.185031 -6.52251 12.2983 17.1425
196 2 0.173092 1.81228 10.656 11.6606
1 4 1.02875 14.0051 1.17976 5.48407
350 2 0.0256304 9.71614 1.58916 1.22535
286 4 1.0738 13.6938 0.0198818 2.31309
4 2 0.168026 12.3363 0.653367 7.19344
6 3 -0.78813 14.2419 0.451716 3.71005
56 4 1.21283 6.49713 6.82897 4.63647
34 4 1.38694 6.71117 2.61685 6.54477
39 4 1.54606 5.48466 4.88816 8.41132
349 2 0.0420831 13.4527 1.4487 1.3883
53 4 1.37037 8.66756 2.64785 3.98022
55 4 1.18006 9.5505 5.0176 1.90667
316 2 0.125931 9.33973 3.61614 8.91954
340 2 0.171611 11.7076 0.619622 1.1077
85 1 -0.674813 10.2716 2.2203 4.87357
88 1 -0.665526 10.3465 6.62098 2.42276
90 1 -0.669167 10.7877 5.26867 5.895
166 2 0.187079 10.3518 0.203837 4.57096
170 2 0.175162 10.5709 3.32882 5.25507
171 2 0.138863 11.0742 1.84574 4.11258
172 2 0.211212 10.1853 1.566 5.7469
334 2 0.266545 7.5859 4.02126 0.0176269
227 3 -0.777243 5.47618 4.16019 1.75087
180 2 0.163712 10.4221 6.35542 3.53371
184 2 0.179821 10.8417 5.0411 4.79999
185 2 0.144181 9.96511 4.67092 6.57299
186 2 0.1544 11.7472 5.55941 6.35531
189 2 0.192019 9.74839 6.31171 8.28097
222 3 -0.787857 7.4448 1.44614 7.53863
230 3 -0.798482 6.37436 3.98049 7.35147
341 2 0.152822 11.6441 1.49406 2.89021
255 3 -0.848468 8.2326 1.36138 3.07741
256 3 -0.787836 7.66249 2.76934 5.25315
258 3 -0.795635 9.01873 4.05802 3.14379
259 3 -0.773798 10.7068 3.9989 1.05589
260 3 -0.8252 5.87772 5.509 3.9815
263 3 -0.790012 8.25944 5.52255 0.548734
308 4 0.950659 10.363 2.76295 0.163936
313 2 -0.0248819 11.4231 4.17568 7.3649
339 1 -0.668634 11.9188 0.564605 2.25264
320 2 0.136524 12.4122 2.80129 5.93724
338 2 0.111919 8.71144 0.507003 0.086552
266 3 -0.752573 8.10411 6.56559 5.33417
32 4 1.27875 8.21097 0.193079 8.18944
59 4 0.932732 9.45806 6.80729 6.0749
318 1 -0.654594 13.4488 3.00904 5.3748
233 3 -0.834593 4.59377 5.95969 7.63546
336 2 0.179336 10.6231 0.065039 0.434363
351 2 0.150428 13.4187 3.01939 4.21743
187 2 0.249696 7.85291 6.69294 8.16447
310 4 0.727742 11.438 4.35453 9.09071
12 4 1.2086 14.4355 1.08566 10.5839
20 4 1.21183 11.0319 5.84058 15.8083
331 1 -0.687285 7.2924 2.84583 18.0239
54 4 1.05658 12.0377 0.865891 12.7546
57 4 1.54912 8.58708 6.33018 17.5929
60 4 0.906518 10.6345 3.6344 13.3148
317 3 -0.78836 11.7538 5.75927 9.60569
73 1 -0.662121 9.33923 0.927759 9.5724
141 2 0.173261 9.29608 2.05713 9.62475
87 1 -0.667374 13.0898 0.604177 14.3592
105 2 -0.0221803 6.96744 3.5043 12.1487
169 2 0.157131 7.69168 0.714179 15.6208
117 2 -0.0388143 8.99271 3.40251 13.6698
119 2 -0.0129275 10.3944 4.54188 11.8852
120 2 -0.0120322 10.1221 6.486 13.0169
365 3 -0.843649 11.825 2.03572 17.6535
346 2 -0.0132489 13.0447 3.34161 15.7484
140 2 0.187863 10.3206 0.455201 9.30638
332 2 0.189418 6.88605 2.85331 16.9868
272 3 -0.809895 7.86417 6.08187 11.4928
176 2 0.119194 13.4787 1.69342 14.6828
173 2 0.166667 9.87101 0.189808 11.9854
257 3 -0.781771 13.1224 0.602069 11.4157
262 3 -0.850494 9.63671 5.67893 16.5194
264 3 -0.850163 6.48746 5.75102 9.42638
58 4 1.30011 6.42577 6.4912 10.7578
267 3 -0.813718 11.2935 2.28887 12.9446
268 3 -0.799446 11.3309 4.44404 14.5296
269 3 -0.850702 5.60619 5.36743 15.34
204 3 -0.812577 13.9506 2.18961 9.4679
283 4 0.968456 13.1539 2.2306 16.9575
284 2 0.0221497 13.5745 0.688865 16.2722
265 3 -0.863347 5.17044 6.16147 11.6723
309 2 -0.0115139 9.22466 2.82394 17.4968
315 2 0.120278 10.2051 3.28446 10.6936
311 1 -0.636752 9.80784 4.16225 9.9889
312 2 0.0607051 12.6829 3.273 9.51577
314 2 0.257904 9.0627 4.89061 10.4608
270 3 -0.818498 7.02719 6.59078 17.0311
333 2 0.109012 7.96386 1.94175 18.2192
355 2 0.146331 8.8304 0.333642 10.4271
61 4 1.32923 6.22778 6.77508 15.6958
177 2 0.15275 12.1762 0.10746 14.9269
362 2 0.156326 13.8947 -0.104648 14.0834
361 2 0.157405 3.82254 13.3165 2.70115
335 1 -0.680247 1.77517 13.5806 0.499469
50 4 1.30327 1.64505 12.1128 6.10916
83 1 -0.649628 2.46498 12.8371 4.52638
89 1 -0.680708 10.3259 8.48124 5.4169
91 1 -0.625495 8.90509 7.06 7.90971
121 2 0.00646492 6.68438 7.9707 3.30681
307 3 -0.769408 7.44821 10.5618 4.31037
249 3 -0.773288 1.71691 13.4953 7.14433
167 2 0.189355 1.68926 12.5874 3.73781
168 2 0.1331 3.46618 12.2513 4.33907
181 2 0.158061 10.4204 8.44335 4.258
3 2 0.169607 4.05842 13.4002 5.60625
183 2 0.144532 9.43184 9.13905 5.80272
192 2 0.188791 3.55119 12.3644 9.11274
188 2 0.195182 9.13884 8.20237 8.3111
178 2 0.195658 9.42494 7.33136 2.31813
306 3 -0.787372 6.19926 12.6975 1.34354
108 2 0.0357232 3.07836 9.39529 4.85232
248 3 -0.843671 2.5487 10.8638 6.62168
273 3 -0.808131 3.2824 9.91854 8.90263
261 3 -0.893429 5.39513 7.4493 5.55696
5 2 0.163448 5.56369 12.9502 6.82245
285 4 0.988536 8.90147 10.5615 3.4243
305 3 -0.788818 7.43848 10.3642 0.0638921
287 4 1.30361 7.83617 9.00269 0.858835
337 2 0.149628 1.53562 13.0828 1.52407
289 4 0.853409 6.11073 10.6203 5.12568
290 1 -0.681348 6.12354 8.39367 1.51294
291 1 -0.667104 4.61884 10.1833 3.84313
292 1 -0.664954 5.98951 9.66842 6.72024
293 2 0.0187147 5.56767 12.2562 5.28182
294 2 0.163908 6.3343 7.35784 1.71831
295 2 0.173811 5.55227 8.53167 0.433868
296 2 0.15556 5.56623 9.05402 2.44742
297 2 0.149641 3.74313 10.8858 4.21007
298 2 0.148134 4.69461 9.09992 4.28861
299 2 0.170739 4.50056 10.1078 2.73705
300 2 0.182741 6.89763 9.00807 6.84136
301 2 0.279639 5.05231 9.13977 6.9155
302 2 0.137398 6.1446 10.6239 7.39798
329 2 0.158712 8.61161 9.97886 8.46209
304 3 -0.784737 8.70567 9.50741 2.17345
41 4 1.26445 4.1966 6.9677 6.42744
244 3 -0.860181 3.27682 8.23781 6.91761
156 2 0.153867 3.25793 8.2837 1.14225
179 2 0.204445 11.3628 7.03848 1.9391
48 4 1.25031 2.55125 9.5536 7.55014
2 1 -0.64268 4.98957 13.7963 6.38649
328 1 -0.670111 9.47495 10.0785 9.15993
345 2 0.0860663 7.52624 13.6433 9.87711
62 4 1.20428 9.12623 7.22582 11.8203
63 4 1.00963 3.96467 10.3635 10.2869
64 4 1.40354 7.61117 8.91537 13.829
65 4 1.28534 4.13089 10.9004 16.3596
66 4 1.25341 6.54779 10.709 11.632
71 1 -0.705551 10.9095 7.3465 14.6338
195 2 0.183161 2.97692 9.05345 11.8625
93 1 -0.65962 4.30449 12.2484 10.0489
94 1 -0.691401 2.94175 10.2513 11.9005
95 1 -0.641327 4.4068 11.4187 14.5074
116 2 0.103009 6.32393 8.17848 10.4218
118 2 0.0940076 4.91785 7.77203 15.9893
122 2 0.0182369 5.57374 12.1645 11.5549
47 4 1.27673 1.58875 11.9701 17.6492
175 2 0.163222 2.73709 12.2626 12.2999
363 2 0.167647 7.5806 11.9804 14.616
342 1 -0.667208 7.76361 12.8462 17.2803
194 2 0.173463 3.75093 12.7166 11.0291
344 2 0.16059 7.09017 12.7559 16.2941
193 2 0.18124 5.2512 12.7258 9.85157
197 2 0.149768 3.43439 10.7779 12.8628
198 2 0.173902 3.77422 12.2103 13.9306
199 2 0.202166 4.56983 10.4164 13.9756
200 2 0.157146 5.49673 11.9456 14.8252
288 4 1.26012 6.82653 11.5519 18.2002
271 3 -0.799623 9.95948 7.5472 10.5239
134 2 0.196362 9.91531 7.62834 14.2341
274 3 -0.848074 6.92572 7.54923 14.4566
275 3 -0.842502 8.69714 8.57963 12.5945
276 3 -0.784588 8.50834 9.64988 15.1438
277 3 -0.780864 3.91488 9.07671 15.962
278 3 -0.796557 5.38502 11.3161 17.1869
279 3 -0.801615 2.84693 11.7906 16.6362
280 3 -0.846894 7.90393 11.2023 10.9503
281 3 -0.77402 5.82577 9.70457 10.5982
282 3 -0.825962 6.55475 10.179 13.1237
86 1 -0.67105 2.7035 13.359 12.6616
330 2 0.288443 9.63116 9.10029 9.76225
174 2 0.170777 2.20532 13.4219 13.6623
251 3 -0.878893 3.63616 7.53165 13.4898
303 3 -0.778005 8.96284 7.77335 18.127
154 2 0.253709 3.17781 8.48673 17.5433
ITEM: TIMESTEP
200
ITEM: NUMBER OF ATOMS
365
ITEM: BOX BOUNDS xy xz yz pp pp pp
-7.7266454666666657e+00 1.5553124333333333e+01 -7.7266454666666657e+00
-1.3819999999999999e-01 1.3846299999999999e+01 2.4613579999999999e-01
0.0000000000000000e+00 1.8322199999999999e+01 -1.3819999999999999e-01
ITEM: ATOMS id type q x y z
80 1 -0.711405 1.56069 6.74183 8.74079
8 2 -0.0252783 0.128803 3.19286 1.69722
226 3 -0.863757 3.63939 3.9381 3.80297
233 3 -0.832011 4.3059 5.86633 7.64087
11 4 1.44411 2.95584 0.156651 8.90816
13 4 1.43828 1.42386 1.93189 7.01483
160 2 0.187805 1.83494 5.83111 8.13945
29 4 1.21273 7.10819 0.495529 2.33761
30 4 1.05446 2.42144 3.09085 4.32692
31 4 1.30925 5.43013 2.68718 0.970021
319 2 0.165718 -0.996888 3.41303 5.7801
220 3 -0.807061 5.82723 1.37592 1.94065