ITEM: TIMESTEP
0
ITEM: NUMBER OF ATOMS
365
ITEM: BOX BOUNDS xy xz yz pp pp pp
-7.7317999999999998e+00 1.5563499999999999e+01 -7.7317999999999998e+00
-1.3819999999999999e-01 1.3846299999999999e+01 2.4629999999999999e-01
0.0000000000000000e+00 1.8322199999999999e+01 -1.3819999999999999e-01
ITEM: ATOMS id type q x y z
320 2 0.165698 -1.5169 3.72367 4.60886
8 2 0.00428001 1.09506 1.96024 1.36953
229 3 -0.874496 4.19216 4.03474 8.84169
160 2 0.198797 1.84327 5.40977 8.1087
11 4 1.46829 2.67559 0.416375 8.54564
13 4 1.46978 1.20127 2.30395 6.71773
9 2 -0.0137994 0.935318 4.51143 0.388861
37 4 1.26496 4.60993 4.55513 2.596
30 4 1.06074 2.77155 2.57812 4.13831
31 4 1.31338 5.81559 2.43939 0.728183
131 2 0.158428 -2.61664 5.78412 7.40429
16 4 1.22603 -0.261552 3.85413 8.90903
69 1 -0.677393 -1.86378 5.61765 6.5746
74 1 -0.641806 1.9091 1.14089 2.91486
75 1 -0.674694 5.09039 1.92042 6.3575
77 1 -0.676502 1.63946 5.70416 5.05009
96 2 -0.0020591 -1.4898 4.96398 8.40849
102 2 0.0663299 1.0833 2.53261 3.08992
107 2 -0.00769666 3.50518 5.52618 1.69726
109 2 -0.0118769 3.38743 6.22989 5.59324
78 1 -0.629343 1.76208 6.14941 1.00999
154 2 0.163317 2.39515 6.85646 0.333914
129 2 0.152056 -0.777856 5.45435 6.95743
130 2 0.166359 -2.14228 4.74136 5.90136
142 2 0.15451 2.5136 1.09925 1.97342
143 2 0.193156 1.253 0.216141 3.11414
144 2 0.0491778 3.45548 0.859602 3.87004
145 2 0.264761 4.71852 1.01205 6.94414
146 2 0.181013 5.25799 1.67615 5.24586
147 2 0.227904 4.4535 2.88083 6.55995
151 2 0.204523 2.44672 5.06969 5.49691
152 2 0.164707 1.5291 5.37219 3.94227
153 2 0.166941 0.62652 5.56928 5.71139
155 2 0.0347664 0.153217 6.19536 0.628475
201 3 -0.757415 -0.158958 1.84917 5.57524
202 3 -0.881734 1.68216 1.02267 7.50749
205 3 -0.879925 0.659803 3.55464 7.67059
219 3 -0.836584 2.36381 2.76384 5.66699
220 3 -0.822142 6.03735 0.951544 1.34683
226 3 -0.864436 3.6566 3.6172 3.36123
156 2 0.164358 2.08198 5.99577 2.08201
29 4 1.23671 7.19481 0.244873 2.26187
80 1 -0.705466 1.66563 6.56843 8.42856
128 2 0.145335 -2.64652 6.22225 3.93934
227 3 -0.815426 5.49986 3.74839 1.59684
14 4 1.14615 1.03771 3.04223 12.7635
106 2 -0.012166 6.08265 1.34483 11.9044
19 4 1.34892 -0.639821 5.41544 13.9548
33 4 1.33515 3.52161 3.05811 9.83088
35 4 1.33389 3.73106 2.39637 16.6891
40 4 1.33466 1.15238 6.39114 10.2572
42 4 1.44811 4.73127 4.44316 14.3399
346 2 0.00221584 -1.57503 4.52229 16.7512
44 4 1.53211 3.55026 6.34045 12.5423
67 1 -0.680269 1.3629 1.70338 14.104
76 1 -0.653268 4.15522 0.664862 15.9073
7 4 0.925588 1.01658 2.67285 18.1903
10 3 -0.837895 -0.450793 2.36843 17.7593
103 2 0.0958108 2.0172 3.91052 10.0465
104 2 0.124601 2.46373 3.86561 12.2702
110 2 -0.00303837 1.60653 5.89205 17.4222
123 2 0.176186 1.07686 0.621738 13.9377
124 2 0.198347 0.989313 2.07401 15.1058
125 2 0.140695 2.56647 1.8323 13.9401
221 3 -0.882548 3.29116 1.56219 9.4833
97 2 0.0887414 -2.18899 4.98918 14.4271
150 2 0.15796 4.34345 0.963383 14.8096
207 3 -0.806593 -3.37927 6.73853 16.9099
203 3 -0.84584 0.446942 2.19541 11.5567
169 2 0.153541 7.16048 0.160683 16.4334
206 3 -0.814962 0.0337725 4.12242 13.3533
204 3 -0.854577 -1.12844 2.53867 9.4273
209 3 -0.88185 -0.807526 6.53752 12.8775
99 2 0.0205291 4.00589 -0.11572 17.7243
223 3 -0.798125 4.82259 2.20216 17.8414
224 3 -0.825593 2.19813 2.32131 17.2598
225 3 -0.865705 4.27192 3.07804 11.2217
231 3 -0.814154 0.535716 4.59317 10.1043
234 3 -0.818536 3.98435 3.40531 15.4665
36 4 0.986198 5.70829 3.01846 11.8491
236 3 -0.874667 0.0905817 5.71176 15.3068
238 3 -0.834567 2.33338 6.38647 11.2029
239 3 -0.838673 3.2949 4.98237 13.2596
357 2 0.153275 4.41392 0.643665 11.6684
12 4 1.25437 -0.677425 1.58642 10.6569
149 2 0.181172 5.09457 0.207634 16.3921
148 2 0.159777 3.21472 0.07145 16.1394
345 2 0.107986 0.295344 0.314406 10.0257
343 2 0.204507 0.206567 0.203848 18.1682
18 4 1.12555 -1.71698 7.51306 5.66287
23 4 1.49948 -3.25991 9.51537 7.9306
25 4 1.2176 -3.93986 12.0759 6.51122
38 4 0.997001 1.21533 7.56022 4.74366
45 4 0.970035 0.765388 7.8667 1.57579
46 4 1.29375 -1.23929 12.0467 4.61309
70 1 -0.658115 -5.41479 12.62 5.47138
338 2 0.164192 0.209452 11.6666 2.10325
79 1 -0.653241 -1.47867 10.4129 3.70765
323 2 0.207818 -3.85295 8.60893 1.22976
348 2 0.00759239 -4.92982 9.76359 4.57059
113 2 0.00701999 1.57058 8.60388 8.26591
127 2 0.156781 -3.38897 8.16171 3.91857
126 2 0.168187 -1.69976 7.64266 3.17015
132 2 0.168839 -5.37795 12.3148 4.25648
161 2 0.17335 2.67408 7.11705 8.622
157 2 0.209625 -0.595647 9.7433 4.00029
158 2 0.148891 -1.56982 10.5975 2.57234
159 2 0.169721 -2.51709 10.1168 4.19468
108 2 0.00204103 2.33666 8.80011 5.20375
347 2 0.0317236 -2.2446 7.07342 1.02418
211 3 -0.796529 -2.63514 8.53461 6.55379
213 3 -0.821721 -4.38296 10.5034 7.32793
214 3 -0.789588 -3.83363 13.4063 7.86561
228 3 -0.809814 -0.188608 7.82778 5.52777
240 3 -0.818286 1.04669 7.63643 3.17781
241 3 -0.81932 -1.13157 13.0952 3.32749
242 3 -0.803738 -2.72721 12.1382 5.46043
243 3 -0.806757 1.47024 8.96374 0.650823
245 3 -0.826856 -2.01753 10.3453 8.57081
246 3 -0.807847 -0.63694 12.8816 8.90063
247 3 -0.813858 0.196064 11.7719 5.43906
321 1 -0.654511 -2.7978 8.76029 0.952656
322 2 0.158915 -2.30974 9.33942 1.81554
47 4 1.30224 1.5572 10.5562 0.235207
324 1 -0.661394 -5.35172 11.8205 2.34117
182 2 0.242524 -4.1753 8.21704 5.86891
326 2 0.112665 -4.20074 11.3361 2.56946
327 2 0.163519 -5.40755 13.0197 2.54538
325 2 0.19296 -5.81837 11.5534 1.32807
111 2 0.00345042 -0.998834 8.31083 1.42865
98 2 -0.0046989 -4.16502 11.7378 0.784431
68 1 -0.658854 -2.46694 7.37698 3.9477
133 2 0.182056 -6.25913 12.1328 6.08749
210 3 -0.844853 -3.83802 8.52402 9.06662
162 2 0.164239 0.916184 7.05963 7.71031
354 2 0.203032 -5.42309 13.7707 5.61312
163 2 0.181599 0.367888 9.65755 9.15771
17 4 1.53416 -3.79293 7.58557 10.3435
21 4 1.49456 -0.962776 7.7531 11.8725
22 4 0.937243 -3.5533 12.0658 17.5069
24 4 1.25595 -6.15298 11.7987 10.5971
26 4 1.30301 -1.36602 10.118 13.7056
27 4 1.09189 -5.45028 10.8245 15.1919
28 4 1.01607 -3.53986 12.2858 12.3307
352 2 0.0847047 -2.36628 9.42602 17.8808
232 3 -0.825477 0.0287256 7.46472 10.5082
51 4 1.30237 2.70458 8.54301 14.7568
52 4 1.2429 -0.422661 11.5738 16.4674
72 1 -0.704682 -2.68257 9.02709 14.5809
81 1 -0.67535 0.399885 10.5017 10.0602
358 2 0.245259 -2.85374 13.559 10.0919
92 1 -0.678239 -6.20339 12.3597 14.3291
82 1 -0.677587 -2.68309 13.6154 11.2269
356 2 0.152671 -1.61033 13.4284 11.5682
100 2 0.0283116 -4.27267 10.1342 14.1135
101 2 -0.0280838 -4.37315 12.9432 13.7136
114 2 0.0685325 -1.19441 11.2069 11.053
237 3 -0.882607 -0.671327 7.23186 17.0989
137 2 0.168101 -2.98831 9.57867 15.4997
138 2 0.177911 -1.98209 8.15421 14.8494
139 2 0.179501 -3.49428 8.70992 13.8465
251 3 -0.860406 3.2074 7.57962 13.6575
49 4 1.10891 -1.08624 11.4097 9.32487
165 2 0.170688 1.33685 11.1796 10.0714
164 2 0.249632 0.16001 10.0205 11.117
364 2 0.169648 -6.37768 12.493 17.5961
254 3 -0.794877 -2.11426 11.7724 17.1421
191 2 0.174109 -5.96582 12.6457 13.2582
208 3 -0.845069 -2.52192 7.8247 11.2746
212 3 -0.795462 -6.19761 13.1719 9.57801
215 3 -0.823293 -0.460806 9.2801 12.6458
216 3 -0.818785 -4.60516 11.428 16.4126
217 3 -0.788025 -4.59457 11.5955 11.3851
218 3 -0.782903 -2.37906 11.3162 12.8588
84 1 -0.672665 0.244993 13.2463 16.1007
196 2 0.22244 1.92344 9.46045 11.5576
250 3 -0.824917 1.47351 7.94498 15.518
252 3 -0.780883 -0.578256 10.8417 14.8604
253 3 -0.812662 0.624147 10.9607 17.444
15 4 1.02331 -2.11347 7.5405 17.5901
190 2 0.161985 -5.8 13.1526 15.0247
43 4 1.3059 0.602261 6.81205 16.2902
115 2 0.0237628 2.22465 9.89858 13.8493
136 2 0.203031 -4.47609 8.36995 15.6836
1 4 1.10807 13.6983 1.44085 5.09864
2 1 -0.673091 12.7971 0.584947 6.51736
341 2 0.161565 10.532 0.849477 3.20891
4 2 0.163146 11.6848 0.809811 6.21285
6 3 -0.780109 13.5973 0.563527 3.68994
59 4 0.979028 9.12678 6.42771 6.16376
34 4 1.2988 6.75882 2.62952 6.76004
39 4 1.51556 5.47005 5.09455 8.45297
318 1 -0.667929 12.8106 3.16932 4.59326
53 4 1.373 8.50388 2.54511 3.99532
55 4 1.24525 9.65201 4.90061 1.75264
56 4 1.27204 6.59776 6.53572 4.37247
5 2 0.183745 13.0153 1.07373 7.53161
85 1 -0.646445 9.99941 1.72199 4.89976
88 1 -0.677786 10.5148 6.35967 2.54781
90 1 -0.671417 10.3964 4.84057 5.95688
266 3 -0.798165 7.89224 6.2577 5.21417
170 2 0.165835 11.0027 2.28389 4.83989
171 2 0.163638 10.2009 0.514801 4.81026
172 2 0.183001 9.51251 1.98249 5.98678
178 2 0.164701 10.5434 6.09693 3.65535
233 3 -0.8494 5.054 6.35319 7.58483
180 2 0.19258 11.5275 6.3739 2.07992
184 2 0.197498 10.2801 4.55026 4.8565
185 2 0.154798 9.9609 4.01261 6.60481
186 2 0.154103 11.5088 5.12474 6.21243
189 2 0.199874 8.88751 6.11478 8.72477
222 3 -0.786512 7.4851 1.52119 7.77617
230 3 -0.783182 6.45242 4.04878 7.53336
334 2 0.254452 7.86659 3.89354 0.0757638
255 3 -0.838145 8.11202 1.30963 2.98125
256 3 -0.802334 7.59987 2.8688 5.18859
258 3 -0.777064 9.14406 3.77978 3.09193
259 3 -0.802465 10.7063 4.2544 0.81139
260 3 -0.814216 5.58268 5.48256 3.58768
263 3 -0.788799 8.34769 5.53789 0.722263
319 2 0.165528 12.5276 2.78865 3.54202
313 2 -0.0207087 10.9923 4.35078 7.7885
32 4 1.26042 8.23455 0.152031 8.35882
351 2 0.160337 11.9111 3.79492 5.04098
349 2 0.0656042 12.1591 1.14959 1.22482
339 1 -0.624465 10.9082 0.217481 2.06369
350 2 -0.0102576 10.2796 1.4637 0.726648
91 1 -0.656398 8.531 6.79797 7.90136
340 2 0.143878 9.99799 0.15277 1.40739
175 2 0.133877 10.4088 0.689157 13.6555
20 4 1.22348 10.8267 6.01257 15.936
315 2 0.129131 9.4485 2.95631 11.1677
54 4 1.13497 12.6904 1.11803 13.0972
57 4 1.4528 8.34035 6.32358 17.6618
60 4 0.907587 11.0882 3.53752 13.7138
332 2 0.181766 7.14819 2.70153 16.994
73 1 -0.67617 9.30047 0.658746 9.80401
331 1 -0.683413 7.69548 2.69866 18.029
87 1 -0.681871 13.7818 0.375531 14.6541
105 2 0.0126846 6.90841 3.67649 10.9334
362 2 0.164203 13.254 0.709325 15.5837
117 2 -0.0446935 9.74094 2.76278 14.2996
119 2 -0.0244944 10.453 4.06658 12.1817
120 2 -0.00956521 9.70541 6.38782 13.5386
174 2 0.165008 10.4137 0.222536 11.8399
140 2 0.175003 10.267 0.115871 9.73088
58 4 1.35211 6.35603 6.68752 11.0202
312 2 0.0198154 12.2875 3.30421 10.0753
317 3 -0.781575 11.3553 5.88654 9.91477
316 2 0.14542 8.94853 3.64572 9.3548
355 2 0.138284 8.63035 0.197921 10.6309
257 3 -0.804909 13.4428 1.03749 11.6915
262 3 -0.810301 9.35974 5.54862 16.5349
264 3 -0.844938 6.25779 5.69735 9.75487
283 4 0.963011 13.6736 2.84003 16.8566
267 3 -0.816255 12.2991 2.5366 13.5469
268 3 -0.803146 11.5102 4.72197 14.6821
269 3 -0.880468 5.52228 5.62735 14.9954
270 3 -0.818106 6.72106 6.4798 17.0581
272 3 -0.875176 7.65818 6.55879 11.7954
284 2 0.0267098 14.0882 2.28783 15.2647
86 1 -0.664742 11.0018 0.164472 12.811
265 3 -0.873637 5.00217 6.49555 11.8057
310 4 0.703684 11.0872 4.35807 9.53763
311 1 -0.672577 9.53323 3.81572 10.4341
365 3 -0.822785 12.2263 2.47917 17.3698
314 2 0.186974 9.31277 4.95089 10.8611
309 2 -0.000721664 9.47713 2.71228 17.1749
141 2 0.166559 9.43861 1.81295 9.96856
177 2 0.171963 14.8524 0.932654 14.4423
308 4 0.920648 10.8972 2.80101 18.1542
333 2 0.130592 8.31559 1.86846 18.2764
235 3 -0.795448 5.84978 3.50005 13.3515
248 3 -0.83569 2.27148 10.723 6.83742
273 3 -0.840591 3.47697 9.97994 9.05327
50 4 1.32666 1.64786 12.0101 6.14057
83 1 -0.664984 3.09335 12.3749 4.94573
89 1 -0.681825 10.0472 8.04763 5.42114
41 4 1.26445 4.57811 7.28344 6.33744
121 2 0.02283 7.19063 7.52701 3.02126
48 4 1.28418 2.86362 9.53223 7.68976
166 2 0.147986 2.52173 12.8734 4.08679
167 2 0.166434 3.73323 11.4524 4.5908
3 2 0.161678 5.30505 13.2836 6.57895
181 2 0.169666 10.132 7.83508 4.32104
179 2 0.248948 9.91881 7.3569 2.41938
183 2 0.174995 9.33799 8.91107 5.62192
306 3 -0.802925 5.96037 12.8284 1.20807
305 3 -0.766466 7.72689 10.5569 0.420945
188 2 0.167834 9.08098 7.89232 7.91035
168 2 0.170455 3.84606 13.1461 5.51747
244 3 -0.869663 3.80612 8.5534 6.8901
335 1 -0.684203 1.31941 11.4454 1.91222
249 3 -0.763424 1.66261 13.3273 7.20759
261 3 -0.844744 5.72738 7.52558 5.24769
307 3 -0.792236 7.8362 10.5827 3.99437
285 4 1.01546 9.28238 10.1987 3.26341
361 2 0.0686882 3.67195 12.6765 2.60564
287 4 1.2744 8.06388 9.0589 0.857684
286 4 0.976847 5.204 13.7015 2.28452
289 4 0.85145 6.44957 10.9174 4.6588
290 1 -0.690448 6.38319 8.39159 1.45012
291 1 -0.65478 4.95328 9.95102 4.13549
292 1 -0.67605 6.48406 11.2085 6.6584
293 2 0.0602863 6.4674 12.5867 5.4416
294 2 0.174393 6.36046 7.24757 1.5047
295 2 0.187507 5.70084 8.7173 0.551836
296 2 0.154452 6.03568 8.97749 2.41582
297 2 0.184018 3.96758 9.69267 4.70459
298 2 0.1791 5.44431 8.99387 3.63776
299 2 0.10905 4.73043 10.7871 3.23125
300 2 0.169205 7.51838 10.9066 6.88849
301 2 0.185759 5.72856 10.1821 6.67195
302 2 0.177078 6.12079 11.8281 7.45289
336 2 0.162997 1.9399 12.4621 2.0278
304 3 -0.822856 9.26358 9.02646 2.29316
112 2 -0.0190617 0.451138 13.1432 1.31794
187 2 0.229976 7.40441 6.96114 7.88868
353 2 0.253867 9.62896 10.32 8.62052
337 2 0.16461 1.79507 10.6729 2.61854
328 1 -0.671581 8.82954 10.2737 9.51321
62 4 1.2879 8.98803 7.37845 12.225
63 4 1.06018 4.09695 10.4719 10.3657
64 4 1.55551 7.47779 9.20268 14.119
65 4 1.25021 4.20776 10.7841 16.6737
66 4 1.23055 6.51736 11.0432 11.9527
71 1 -0.659024 10.487 7.55774 14.9121
303 3 -0.78732 8.86842 7.85689 18.0282
93 1 -0.687187 4.30233 12.3761 10.1976
94 1 -0.677777 2.84483 10.0109 11.9184
95 1 -0.663706 3.72093 12.0423 15.3954
116 2 0.107828 6.18926 8.33897 10.637
118 2 0.105436 4.55911 7.58787 16.2448
122 2 0.00364299 5.3348 12.3104 11.8672
192 2 0.189471 3.6621 12.484 9.30016
134 2 0.192804 9.25464 7.44444 14.9611
176 2 0.167406 6.18763 13.1289 14.6696
173 2 0.130752 3.73976 12.9996 13.2467
194 2 0.168288 3.95417 13.0747 11.1612
195 2 0.184365 3.50201 9.46598 12.6535
342 1 -0.65269 7.89622 13.0756 17.4827
197 2 0.125875 2.63609 11.17 12.2333
198 2 0.145532 3.43826 11.4967 14.4891
199 2 0.161098 4.65932 12.8884 15.1477
200 2 0.163117 2.76085 12.4783 15.9146
360 2 0.170645 0.438176 13.3479 15.0024
271 3 -0.853708 10.1433 7.71055 11.2249
193 2 0.156242 5.38689 12.5495 9.91723
274 3 -0.874127 6.78194 8.00958 14.8779
275 3 -0.84794 8.35123 8.67694 12.8606
276 3 -0.815744 8.64976 9.84019 15.0587
277 3 -0.787815 3.84707 8.99886 15.8407
278 3 -0.743051 5.78379 11.0424 16.9777
279 3 -0.803235 3.26932 10.8287 17.9733
280 3 -0.847194 7.85798 11.7724 11.5849
281 3 -0.79367 5.81517 9.94419 10.8412
282 3 -0.819443 6.43993 10.4161 13.414
135 2 0.147399 10.9491 7.6828 13.8322
359 2 0.14386 1.17013 13.3099 16.7986
363 2 0.202862 8.00554 12.177 14.5351
330 2 0.24242 9.10833 9.45881 10.2332
344 2 0.187123 7.72044 13.3027 16.3985
288 4 1.21178 6.86047 11.7961 18.2552
61 4 1.38621 6.0012 6.91038 15.7158
329 2 0.190525 7.70376 10.374 9.26481
ITEM: TIMESTEP
100
ITEM: NUMBER OF ATOMS
365
ITEM: BOX BOUNDS xy xz yz pp pp pp
-7.7472636000000001e+00 1.5594626999999999e+01 -7.7472636000000001e+00
-1.3819999999999999e-01 1.3846299999999999e+01 2.4679260000000000e-01
0.0000000000000000e+00 1.8322199999999999e+01 -1.3819999999999999e-01
ITEM: ATOMS id type q x y z
320 2 0.148077 -1.47928 3.96896 4.28743
8 2 -0.00601127 1.08407 2.1046 1.32367
229 3 -0.84935 4.27531 4.00531 8.90452
160 2 0.213326 1.96963 5.2495 8.1709
11 4 1.476 2.64032 0.443211 8.52965
13 4 1.45767 1.12464 2.20009 6.65791
9 2 -0.0158497 1.00107 4.612 0.211905
37 4 1.26624 4.79724 4.70728 2.6732
30 4 1.03587 2.67766 2.68575 4.00948
31 4 1.326 5.80728 2.59019 0.608088
131 2 0.155023 -2.60156 5.72363 7.41486
16 4 1.20946 -0.305814 3.67743 8.92888
69 1 -0.678566 -1.75848 5.58368 6.63566
74 1 -0.64254 1.91516 1.11205 2.8126
75 1 -0.678949 5.10798 1.91473 6.56716
77 1 -0.680811 1.66003 5.71292 5.07288
96 2 -0.00161075 -1.62887 4.61132 8.31028
102 2 0.0295155 1.02556 2.59791 3.05144
107 2 -0.00608377 3.77488 5.68284 1.61393
109 2 -0.00162133 3.42254 6.34365 5.37484
78 1 -0.624119 1.92798 6.07267 1.00635
154 2 0.148633 2.78118 6.72496 0.53058
129 2 0.154752 -0.711226 5.59038 7.02045
130 2 0.150892 -1.98879 4.65247 5.85265
142 2 0.147638 2.3553 1.11893 1.73307
143 2 0.187297 1.16087 0.324904 3.06818
144 2 0.0655425 3.35159 0.887549 3.72438
145 2 0.257674 4.75035 0.992022 7.1566
146 2 0.197349 5.15903 1.69255 5.44306
147 2 0.227506 4.44024 2.80992 6.73813
151 2 0.216156 2.4344 5.03943 5.48704
152 2 0.164381 1.47535 5.39007 3.98248
153 2 0.157923 0.674408 5.68997 5.77566
155 2 0.00458235 0.219017 6.16574 0.653185
201 3 -0.789706 -0.278066 1.8685 5.71812
202 3 -0.881319 1.56764 0.908909 7.45957
205 3 -0.864296 0.70307 3.33537 7.7694
219 3 -0.815062 2.3672 2.74735 5.54364
220 3 -0.804839 6.1031 1.01515 1.26308
226 3 -0.824355 3.62924 3.79012 3.37798
156 2 0.160536 2.07861 5.71416 2.05371
29 4 1.26844 7.0773 0.258048 2.28999
80 1 -0.689721 1.78072 6.37954 8.46308
128 2 0.125655 -2.82035 6.04598 4.29144
347 2 0.0111974 -2.09404 6.71867 0.996257
162 2 0.158099 1.02938 6.82767 7.70446
14 4 1.11025 1.07577 3.07018 12.8298
106 2 -0.031429 6.20364 1.34648 11.8731
19 4 1.29366 -0.60919 5.43494 14.0054
33 4 1.30583 3.49884 3.09499 9.9134
35 4 1.38543 3.81883 2.40686 16.6576
40 4 1.2913 1.18457 6.35134 10.2519
42 4 1.50059 4.8187 4.39855 14.4226
346 2 -0.0162988 -1.39782 4.44094 16.2532
44 4 1.5547 3.52718 6.43354 12.5555
67 1 -0.6919 1.55937 1.81024 14.1754
76 1 -0.67082 3.93632 0.579706 15.8093
7 4 0.931436 1.1262 2.80914 18.145
10 3 -0.83296 -0.305362 2.46622 17.6651
103 2 0.0890236 2.01988 3.96629 10.0957
104 2 0.110507 2.34842 4.12854 12.3513
110 2 -0.00159938 1.779 6.06966 17.4313
123 2 0.19127 1.5085 0.793531 13.7643
124 2 0.198576 1.05337 1.95814 15.1811
125 2 0.167487 2.64744 2.23477 14.2636
221 3 -0.883879 3.19217 1.65809 9.32126
97 2 0.0859065 -2.17773 5.1952 14.6181
150 2 0.151883 3.9889 1.01349 14.7586
207 3 -0.831804 -3.35939 6.76522 16.8646
203 3 -0.830263 0.622977 2.05626 11.6388
169 2 0.15353 6.83753 0.122599 16.2217
206 3 -0.805839 -0.131609 3.99899 13.3981
204 3 -0.844522 -1.17629 2.41551 9.57786
209 3 -0.841045 -0.731499 6.62029 12.9415
345 2 0.0939124 0.309963 0.10995 9.87403
223 3 -0.828678 4.88263 2.4077 17.7965
224 3 -0.826783 2.31162 2.38043 17.2454
225 3 -0.862029 4.23938 3.08889 11.3434
231 3 -0.812913 0.534545 4.57045 10.0354
234 3 -0.848943 4.26916 3.42693 15.5871
36 4 0.984493 5.66472 2.93316 12.0348
236 3 -0.860559 0.269492 5.68051 15.2992
238 3 -0.861468 2.40901 6.58249 11.2717
239 3 -0.783278 3.25878 4.9166 13.4557
357 2 0.127878 4.60922 0.650801 11.9657
12 4 1.23607 -0.496096 1.43013 10.6643
149 2 0.169606 4.91665 0.0681773 16.1414
177 2 0.175589 -0.305524 0.935714 14.25
343 2 0.191562 0.467047 0.137677 18.207
235 3 -0.84868 5.77167 3.46606 13.4854
148 2 0.160759 2.99274 -0.0777339 16.0099
18 4 1.07181 -1.7564 7.43215 5.73182
23 4 1.53312 -3.25152 9.43679 7.84317
25 4 1.25653 -3.91965 12.1556 6.67084
38 4 1.01451 1.24994 7.57652 4.64986
45 4 0.997869 0.824131 7.77507 1.53001
46 4 1.21909 -1.34928 11.8456 4.38167
70 1 -0.68117 -5.4035 12.3835 5.50748
338 2 0.177147 0.248742 11.643 2.21298
79 1 -0.695127 -1.61617 10.2572 3.46226
323 2 0.201598 -3.86334 8.12414 1.33949
348 2 0.0116745 -4.83433 9.60018 4.27723
113 2 0.000875838 1.67593 8.34843 8.01647
127 2 0.174126 -3.4023 7.89649 3.98551
126 2 0.160011 -1.69 7.45924 3.20435
132 2 0.178925 -5.28916 12.2815 4.34473
161 2 0.17813 2.78244 6.99555 8.61109
157 2 0.198051 -0.636764 9.69362 3.72464
158 2 0.148941 -1.63513 10.6251 2.35192
159 2 0.174257 -2.51208 9.68187 3.79089
108 2 0.00515032 2.57945 8.56835 5.03525
163 2 0.166473 0.523755 9.66484 9.12648
211 3 -0.811307 -2.66545 8.39284 6.5629
213 3 -0.801824 -4.29141 10.3934 7.23783
214 3 -0.82012 -3.86518 13.3574 7.94916
228 3 -0.769709 0.00407795 7.94218 5.5462
240 3 -0.836931 1.06338 7.62237 3.09829
241 3 -0.819379 -1.31595 13.098 3.2966
242 3 -0.747561 -2.67628 11.9611 5.68352
243 3 -0.769772 1.4294 8.93109 0.668304
245 3 -0.822522 -2.12662 10.4229 8.53526
246 3 -0.816914 -0.588027 12.7845 8.77857
247 3 -0.753124 0.204652 11.8849 5.2056
321 1 -0.652292 -2.80859 8.39092 1.12313
322 2 0.170562 -2.35862 8.96056 2.06395
47 4 1.26709 1.59468 10.6844 0.234893
324 1 -0.650053 -5.25574 11.8013 2.35239
182 2 0.250559 -4.35983 8.25476 5.91901
326 2 0.116514 -4.13964 11.401 2.72736
327 2 0.169901 -5.4011 13.0124 2.58078
325 2 0.170061 -5.61189 11.5262 1.23066
111 2 0.014041 -0.977395 8.0874 1.63335
98 2 -0.00268521 -3.93762 11.658 0.89838
68 1 -0.658169 -2.50466 7.28868 4.05642
133 2 0.19319 -6.15421 11.6201 5.86928
210 3 -0.818527 -3.78015 8.42053 9.02394
337 2 0.155598 1.76711 10.5569 2.54737
354 2 0.200775 -5.71832 13.4392 5.77449
17 4 1.52863 -3.85245 7.58176 10.4106
21 4 1.49771 -0.992955 7.7486 11.7234
22 4 0.954077 -3.57669 11.9067 17.4863
24 4 1.27761 -6.21516 11.7598 10.5405
26 4 1.29952 -1.34494 10.211 13.6126
27 4 1.05448 -5.34979 10.8926 15.1363
28 4 1.03803 -3.46447 12.2945 12.3726
352 2 0.0928553 -2.55953 9.32311 18.2668
232 3 -0.829424 -0.0179937 7.37384 10.4016
51 4 1.27511 2.65506 8.50244 14.697
52 4 1.22918 -0.498999 11.6184 16.409
72 1 -0.682584 -2.47948 8.98906 14.4986
81 1 -0.693355 0.448472 10.5085 10.0292
115 2 0.0351498 2.11601 9.78647 13.7249
92 1 -0.684174 -5.96805 12.5477 14.3798
82 1 -0.691287 -2.61218 13.6267 11.3433
356 2 0.146649 -1.53391 13.4907 11.6109
100 2 0.0137788 -3.99394 10.2559 14.2311
101 2 -0.0124733 -4.2439 13.1623 13.7035
114 2 0.0583275 -1.21034 11.1575 10.9497
237 3 -0.835734 -0.653987 7.36155 17.0852
137 2 0.178099 -2.76993 9.47146 15.4248
138 2 0.211413 -1.80634 8.11874 14.7161
139 2 0.163555 -3.41237 8.63126 13.8568
251 3 -0.880205 3.21106 7.51074 13.6326
49 4 1.13734 -1.00173 11.3352 9.19378
165 2 0.187715 1.40728 11.1137 9.98672
164 2 0.26468 0.215232 10.004 11.0238
364 2 0.198558 -6.28735 12.5338 17.5807
254 3 -0.818012 -2.12868 11.7627 16.9587
191 2 0.214925 -6.12029 12.4931 13.2507
208 3 -0.861416 -2.55676 7.81166 11.3062
212 3 -0.813582 -6.06222 13.0723 9.69243
215 3 -0.806205 -0.533244 9.27925 12.4411
216 3 -0.788818 -4.70078 11.2392 16.6884
217 3 -0.763905 -4.67931 11.7074 11.5308
218 3 -0.83646 -2.36778 11.3322 13.0176
84 1 -0.675476 0.120299 13.3316 16.07
196 2 0.213527 2.60947 9.14626 11.7998
250 3 -0.815515 1.38724 8.04298 15.5039
252 3 -0.75576 -0.398277 10.8332 14.8715
253 3 -0.762319 0.556047 11.003 17.6328
15 4 1.02316 -2.12889 7.35216 17.7274
190 2 0.158844 -5.344 13.4612 14.8751
43 4 1.27342 0.690255 6.85577 16.2934
99 2 0.00967779 -4.02088 13.5742 17.5793
358 2 0.23612 -2.77253 13.7089 10.2501
1 4 1.06637 13.6078 1.55285 5.06351
2 1 -0.645009 12.7433 0.752358 6.47855
341 2 0.186101 10.5865 0.864176 3.27047
4 2 0.125603 11.8642 1.69819 6.48908
6 3 -0.772315 13.4127 0.331878 3.74561
59 4 0.91953 9.17572 6.36025 6.17296
34 4 1.29954 6.82429 2.64345 6.78682
39 4 1.53998 5.54041 5.07576 8.48513
318 1 -0.659811 12.8854 3.28994 4.35191
53 4 1.36825 8.52568 2.42248 3.94348
55 4 1.24178 9.45055 4.78047 1.76486
56 4 1.26094 6.55608 6.60926 4.47568
5 2 0.189555 13.5028 0.912762 7.35865
85 1 -0.66114 10.054 1.85189 4.91578
88 1 -0.671992 10.2966 6.29334 2.53846
90 1 -0.673112 10.4677 4.77811 6.03246
266 3 -0.754021 7.78236 6.04228 5.33316
170 2 0.159777 11.0454 2.48179 4.60485
171 2 0.182306 10.3767 0.724629 4.98932
172 2 0.188022 9.64084 2.2087 5.95788
178 2 0.158456 10.353 6.02385 3.63976
233 3 -0.865843 4.83737 6.25859 7.64483
180 2 0.182884 11.3403 6.17257 2.04177
184 2 0.196958 10.2828 4.41322 4.99456
185 2 0.151352 10.0253 4.04161 6.78044
186 2 0.142597 11.6521 5.09944 6.24299
189 2 0.216292 9.46685 6.50057 8.77493
222 3 -0.82405 7.67162 1.62206 7.73992
230 3 -0.770951 6.66784 4.27107 7.60935
340 2 0.14109 9.95167 0.223905 1.57754
255 3 -0.850108 8.05106 1.26401 3.03971
256 3 -0.764485 7.42588 2.7081 5.23334
258 3 -0.789194 9.12814 3.69807 3.07085
259 3 -0.775471 10.8326 4.00765 0.857746
260 3 -0.87574 5.60255 5.67551 3.60049
263 3 -0.807115 8.30423 5.42053 0.88081
319 2 0.170262 12.4591 3.07032 3.3307
313 2 -0.0202355 11.1468 4.56145 7.86138
32 4 1.34376 8.16648 0.200882 8.2521
351 2 0.14091 11.9814 3.83827 5.07732
349 2 0.0487962 12.1942 1.32629 1.52859
339 1 -0.632978 10.8917 0.335328 2.24288
350 2 -0.0161402 10.4346 1.36718 0.645431
187 2 0.222222 7.71843 6.72271 8.203
227 3 -0.806847 5.63542 3.69509 1.7623
334 2 0.243507 7.86125 3.95378 0.0813452
175 2 0.149782 10.5071 0.536039 13.7981
20 4 1.22957 10.9232 6.08429 15.8557
315 2 0.135281 9.54291 2.95411 11.0799
54 4 1.11267 12.7062 1.06874 12.9781
57 4 1.42866 8.4471 6.31038 17.5797
60 4 0.92017 10.9735 3.51434 13.8025
332 2 0.190258 7.36946 2.8975 16.7605
73 1 -0.650381 9.28531 0.756259 9.74881
331 1 -0.665896 7.65729 2.78847 17.8522
87 1 -0.661809 13.9315 0.28848 14.3861
105 2 0.0103632 6.91937 3.66538 11.1517
362 2 0.141503 13.3224 0.501332 15.38
117 2 -0.0456018 9.84471 2.68319 14.7281
119 2 -0.017315 10.2389 3.90122 12.3504
120 2 -0.00414196 9.71211 6.45318 13.3159
174 2 0.158037 10.556 0.257516 11.9072
140 2 0.176119 10.2739 0.218445 9.39793
58 4 1.33332 6.20626 6.74114 11.0008
312 2 0.0252968 12.3212 3.41093 10.0211
317 3 -0.831802 11.3581 6.0128 10.0771
316 2 0.141015 9.01373 3.734 9.25685
355 2 0.136269 8.75298 0.253079 10.6167
257 3 -0.783007 13.5817 0.771933 11.6107
262 3 -0.827415 9.51706 5.57343 16.5644
264 3 -0.856023 6.06316 5.74751 9.81492
283 4 0.937144 13.7785 2.8236 16.7124
267 3 -0.8065 12.0587 2.48992 13.4423
268 3 -0.798999 11.5452 4.86763 14.4883
269 3 -0.857387 5.4237 5.77402 15.0611
270 3 -0.827557 6.90894 6.39179 16.9756
272 3 -0.855129 7.67776 6.46531 11.4094
284 2 0.0218229 14.0825 2.09905 15.1935
86 1 -0.66589 11.0707 0.0980511 12.8912
265 3 -0.891774 4.99145 6.54701 12.0416
310 4 0.7437 11.0832 4.56031 9.65294
311 1 -0.681878 9.53689 3.86712 10.4731
365 3 -0.820046 12.2876 2.5187 17.217
314 2 0.212106 9.07351 4.76762 10.9995
309 2 0.0014178 9.54482 2.89114 17.2811
141 2 0.171203 9.3762 1.9183 9.95613
333 2 0.121041 8.25538 1.82298 18.0994
308 4 0.921476 11.0324 2.69834 18.1724
248 3 -0.844288 2.14062 10.7551 6.96561
273 3 -0.831356 3.39442 9.92228 9.11057
50 4 1.32769 1.58338 12.0501 6.21509
83 1 -0.663184 2.96714 12.5953 5.07323
89 1 -0.684495 9.8949 8.16067 5.51467
41 4 1.27281 4.57572 7.25914 6.4787
121 2 0.0131087 7.15295 7.78401 3.29945
48 4 1.24925 2.81511 9.51171 7.67163
166 2 0.173671 2.41993 13.0974 4.22935
167 2 0.150014 3.62873 11.6628 4.67367
3 2 0.158101 4.50833 13.5842 6.72353
181 2 0.140483 9.87872 7.74048 4.44623
179 2 0.237353 9.82439 7.3072 2.41209
183 2 0.186806 9.13763 8.92647 5.80865
306 3 -0.811846 5.85701 12.7028 1.24553
305 3 -0.743231 7.53873 10.4956 0.288582
188 2 0.184688 9.08551 8.03078 7.75912
168 2 0.175307 3.74399 13.4252 5.53661
244 3 -0.860877 3.84444 8.64718 6.79088
335 1 -0.663443 1.27333 11.4908 1.89001
249 3 -0.799909 1.44171 13.347 7.25802
261 3 -0.834623 5.84251 7.58982 5.50769
307 3 -0.762781 7.81259 10.6116 3.93203
285 4 0.967396 9.29723 10.1777 3.16261
361 2 0.0616957 3.56339 12.6673 2.77045
287 4 1.31275 7.95106 8.9671 0.77543
286 4 1.00287 5.12247 13.6107 2.32557
289 4 0.83589 6.35792 10.8983 4.57287
290 1 -0.706895 6.33826 8.27038 1.51493
291 1 -0.675447 4.7536 10.1335 3.85229
292 1 -0.65536 6.40346 11.103 6.54865
293 2 0.0709165 6.19179 12.5006 5.30041
294 2 0.171959 6.47993 7.18828 1.82547
295 2 0.175 5.51439 8.37444 0.798178
296 2 0.158851 6.11881 8.94331 2.45315
297 2 0.188435 4.06329 10.0417 4.72642
298 2 0.154616 5.1062 9.09592 3.36885
299 2 0.136636 4.58407 11.051 3.09652
300 2 0.168309 7.34335 11.3013 7.14491
301 2 0.192464 6.13452 9.89725 6.57959
302 2 0.155684 5.47354 11.7394 6.93068
336 2 0.144435 1.95877 12.6194 2.04089
304 3 -0.813377 9.09872 9.00483 2.05353
112 2 -0.00643914 0.369575 13.2376 1.211
329 2 0.184549 7.79901 10.3528 9.13926
91 1 -0.658686 8.81629 6.90115 7.9758
353 2 0.249336 9.59531 10.3735 8.45202
328 1 -0.6937 8.91548 10.2872 9.37079
62 4 1.26741 8.81557 7.45086 12.1124
63 4 1.01728 4.09434 10.5301 10.3405
64 4 1.48144 7.45129 9.29725 14.1565
65 4 1.25058 4.34191 10.819 16.541
66 4 1.17844 6.42985 11.0338 12.052
71 1 -0.686839 10.2295 7.55261 14.8652
303 3 -0.771786 8.81104 7.89962 17.8523
93 1 -0.688758 4.24344 12.4384 10.1836
94 1 -0.700244 3.04531 10.1676 11.9604
95 1 -0.65229 3.85998 12.1143 15.3197
116 2 0.101699 6.14551 8.41953 10.5493
118 2 0.0920134 4.77754 7.92749 16.4522
122 2 0.0171124 5.37472 12.3748 11.8528
192 2 0.169608 3.51693 12.4186 9.25102
134 2 0.215863 9.09716 7.3249 14.8509
176 2 0.190795 6.43923 13.0883 14.2053
173 2 0.138766 3.61465 12.8369 12.9081
194 2 0.173115 3.86358 13.0345 11.1163
195 2 0.145543 3.77147 10.1445 12.852
342 1 -0.666441 8.01965 13.0647 17.567
197 2 0.152538 2.21527 10.9636 12.1061
198 2 0.154886 3.51993 11.6281 14.3868
199 2 0.175153 4.79478 12.8938 15.0684
200 2 0.160127 3.04218 12.666 15.9796
360 2 0.164869 0.572442 13.4063 15.0617
271 3 -0.829618 9.90432 7.97503 11.0861
193 2 0.174592 5.26668 12.6985 9.90773
274 3 -0.845065 6.82228 8.06562 15.0246
275 3 -0.891831 8.28365 8.63388 12.97
276 3 -0.734263 8.7064 10.0883 15.2954
277 3 -0.779025 3.8644 9.14219 15.8124
278 3 -0.74875 5.82588 11.214 16.9952
279 3 -0.7717 3.28486 10.9813 17.9068
280 3 -0.816794 7.85265 11.7013 11.6695
281 3 -0.789246 5.9528 9.97571 10.8304
282 3 -0.823503 6.40032 10.5121 13.6357
135 2 0.153164 10.6388 7.87972 13.8875
359 2 0.146256 0.892064 13.5259 16.8548
363 2 0.194107 8.26287 12.4856 14.8856
330 2 0.270523 9.23767 9.42894 10.0667
344 2 0.191118 7.54432 13.234 16.5568
288 4 1.27699 6.87194 11.7791 18.3024
61 4 1.3805 6.00957 6.97797 15.8273
136 2 0.223582 10.4009 8.35424 15.6418
ITEM: TIMESTEP
200
ITEM: NUMBER OF ATOMS
365
ITEM: BOX BOUNDS xy xz yz pp pp pp
0.0000000000000000e+00 2.3241495600000000e+01 7.6157416000000007e+00
-1.3819999999999999e-01 1.3846299999999999e+01 2.4728519999999998e-01
0.0000000000000000e+00 1.8322199999999999e+01 -1.3819999999999999e-01
ITEM: ATOMS id type q x y z
29 4 1.25444 7.06475 0.130303 2.32986
226 3 -0.808005 3.81644 3.77609 3.44875
229 3 -0.873066 4.264 3.9641 8.83671
220 3 -0.81571 6.18207 1.14289 1.44806
11 4 1.46745 2.55058 0.376084 8.43115
219 3 -0.82208 2.12882 2.58093 5.52279
202 3 -0.865554 1.44313 0.814578 7.39783
37 4 1.25763 4.87774 4.71158 2.64855
30 4 1.01513 2.70689 2.65823 3.98397
31 4 1.35388 5.95206 2.58333 0.707706
147 2 0.227048 4.29975 3.03726 6.71005