ITEM: TIMESTEP
0
ITEM: NUMBER OF ATOMS
365
ITEM: BOX BOUNDS xy xz yz pp pp pp
-7.7317999999999998e+00 1.5563499999999999e+01 -7.7317999999999998e+00
-1.3819999999999999e-01 1.3846299999999999e+01 2.4629999999999999e-01
0.0000000000000000e+00 1.8322199999999999e+01 -1.3819999999999999e-01
ITEM: ATOMS id type x y z
7 4 0.758428 3.15783 0.262282
8 2 1.44203 2.45479 1.71524
9 2 1.28055 4.82087 0.394745
155 2 2.49475 6.02499 0.178952
11 4 2.83839 0.566693 8.66079
13 4 1.07635 2.66748 6.87995
351 2 -1.53717 3.61806 4.37021
29 4 6.84265 0.842669 2.64965
30 4 2.63344 3.0643 4.274
31 4 5.2077 2.5912 0.666525
161 2 2.14348 5.50664 8.30907
68 1 -2.75162 6.38429 4.43658
69 1 -1.95322 5.82183 7.29952
74 1 1.89791 1.36683 3.25309
75 1 5.24519 2.60687 6.02964
77 1 2.12922 6.30407 4.35058
96 2 -1.58859 4.9323 8.98411
102 2 1.09134 3.04892 3.34845
37 4 4.73885 4.88016 2.65617
109 2 3.10276 6.21338 6.07604
227 3 5.16245 4.02603 1.51027
128 2 -2.70239 5.26342 4.65691
129 2 -0.727856 6.00791 7.59634
130 2 -2.08803 4.76957 6.87995
142 2 1.8452 0.80063 2.28341
143 2 1.11327 0.853723 3.90365
144 2 3.07938 1.19219 3.90488
145 2 4.41209 3.05415 6.63534
146 2 5.05326 1.54457 5.69079
147 2 5.50119 3.26282 5.09464
151 2 1.85662 5.64046 5.26816
80 1 1.87596 6.59095 8.68793
153 2 1.80477 5.65835 3.37691
131 2 -2.71036 6.07255 8.1127
201 3 -0.137714 1.80594 6.1135
202 3 1.96796 1.57809 7.77081
205 3 0.347014 3.70385 7.81924
219 3 2.2306 3.26896 5.80665
220 3 5.71927 1.14271 1.64331
226 3 3.67394 3.96876 3.53032
156 2 2.23932 5.88123 2.04607
78 1 2.12723 6.4997 1.07759
347 2 -1.95187 6.90951 1.23077
10 3 -0.980087 2.96412 0.389447
107 2 3.99997 6.23724 1.83158
152 2 3.21208 6.56272 4.32613
126 2 -2.14918 6.57831 3.55409
111 2 0.436878 6.8543 1.07358
14 4 0.413235 2.68271 13.1905
36 4 5.59321 3.21206 12.6717
19 4 -1.12257 5.15239 13.7402
33 4 3.54483 2.90603 10.4032
35 4 3.38159 2.74553 16.7643
40 4 1.22097 6.27219 10.4417
42 4 4.59636 4.82477 14.8151
43 4 0.78931 6.17058 16.0147
15 4 -1.56903 6.68982 17.7618
67 1 0.422262 1.46131 14.6982
76 1 3.57473 1.32278 15.4556
229 3 3.9816 4.10091 9.30194
16 4 -0.232827 3.85593 9.29467
103 2 2.03632 3.40923 10.8693
104 2 1.71411 2.89802 14.2688
110 2 2.12317 5.01229 16.3156
123 2 1.01377 0.422902 14.4168
358 2 5.27494 0.924659 11.7424
125 2 0.877735 1.87751 15.7466
148 2 2.6524 0.675163 15.5938
149 2 4.67904 0.813455 15.574
150 2 3.50182 2.02058 14.5353
237 3 -0.0357863 6.26017 17.3143
203 3 0.765308 1.73274 11.7237
99 2 3.91059 -0.0193063 16.8528
206 3 -0.897631 3.54347 13.4664
207 3 -2.8598 5.91438 17.1555
209 3 -1.54556 5.9961 12.4717
221 3 3.57169 1.44397 9.78832
223 3 4.2949 2.16715 17.9647
224 3 1.5514 2.38279 17.2664
225 3 4.45654 3.00931 11.6745
231 3 0.843808 4.53894 10.2442
234 3 3.56937 4.36282 16.4202
235 3 5.3731 3.45189 14.2085
236 3 -0.063661 5.67464 14.8713
238 3 2.38743 6.50555 11.5837
239 3 3.37103 5.29007 13.7868
204 3 -0.8282 2.51617 9.86519
82 1 5.80532 0.0292661 12.1906
106 2 6.52339 1.78088 12.6956
357 2 6.50876 0.115253 13.1447
284 2 -0.651119 2.56432 15.9597
345 2 0.115985 0.0471925 9.87712
12 4 -0.53325 1.28459 10.8106
18 4 -1.70235 7.2233 5.91237
23 4 -2.73638 9.3748 7.72433
25 4 -3.775 12.4529 6.62222
38 4 1.28475 7.98567 4.59375
45 4 1.23777 8.43976 1.60598
46 4 -1.4031 12.0824 4.41185
70 1 -5.48983 12.6423 5.85776
162 2 2.82594 7.205 8.84144
79 1 -1.70767 10.4532 3.48175
354 2 -6.0701 13.5718 6.25886
353 2 -4.95672 10.6912 8.35108
113 2 1.70406 8.54652 8.45888
108 2 1.94417 9.22075 5.62256
338 2 0.642775 12.0135 2.03195
132 2 -5.46665 12.6296 4.72603
133 2 -5.98018 11.7099 6.29774
157 2 -0.686063 9.85537 3.43648
158 2 -2.07295 10.9953 2.4708
159 2 -2.47378 10.0255 4.10944
348 2 -4.95603 9.79574 4.69541
210 3 -3.81701 8.61479 8.72541
211 3 -2.47888 8.5021 6.39647
213 3 -3.72807 10.9535 7.24126
214 3 -3.76447 13.5564 7.72439
228 3 -0.177553 7.48737 5.37425
240 3 1.02838 8.67327 3.12168
241 3 -1.12461 13.1831 3.29375
242 3 -2.82583 12.5223 5.3244
243 3 0.723437 9.86192 0.546421
245 3 -1.36587 9.73163 8.36881
246 3 -0.285695 12.3796 8.82298
247 3 -0.0912762 11.8336 5.42169
321 1 -1.94342 8.52437 0.228216
322 2 -0.912018 9.03687 0.291169
160 2 1.12043 7.00635 7.97587
324 1 -5.48603 12.0556 2.66616
325 2 -5.82598 11.8323 1.56561
326 2 -4.37099 11.8901 2.82704
327 2 -5.76001 13.1306 2.90978
336 2 -0.0145879 13.0941 0.581967
323 2 -2.51228 8.70798 1.15596
154 2 2.98835 7.92036 1.2852
17 4 -3.87032 7.68499 10.0918
21 4 -1.3121 7.43368 11.7569
22 4 -2.9198 12.4064 16.6603
24 4 -5.75338 12.0085 10.3843
26 4 -1.03818 9.92535 13.686
27 4 -4.90588 10.9158 14.8907
28 4 -2.99692 12.2757 12.166
232 3 -0.088144 7.11827 10.595
253 3 0.644113 11.6794 16.6508
51 4 2.4496 8.62488 15.042
52 4 -0.0981252 12.2951 15.3947
72 1 -1.47722 9.23091 15.3782
81 1 0.594599 10.0583 10.4115
363 2 -5.04231 13.2942 14.0875
92 1 -5.76846 12.4598 14.1516
251 3 2.92847 8.26049 13.609
352 2 -2.34197 8.78131 17.5072
100 2 -3.92119 10.3264 13.5805
252 3 0.181315 11.0013 13.9779
114 2 -1.13483 10.8213 10.9709
356 2 -1.28807 13.1016 11.119
137 2 -0.680477 9.6848 16.0618
138 2 -1.54437 8.16289 15.4292
139 2 -2.49216 9.75901 15.5242
364 2 -7.16448 13.6928 17.59
47 4 1.47085 11.1756 18.1641
163 2 1.47789 10.3861 9.82487
164 2 0.344023 8.91713 10.3698
165 2 0.591475 10.4766 11.4292
190 2 -6.24456 12.2204 13.079
254 3 -1.61705 12.7497 15.8274
208 3 -2.69711 8.01806 11.1242
212 3 -6.16064 13.2287 9.49356
215 3 -0.763187 8.66882 12.7847
216 3 -3.95595 11.4108 16.1097
217 3 -4.24127 12.1029 11.1179
218 3 -2.48031 11.0113 13.0009
136 2 -3.14863 8.09962 15.0403
115 2 1.43709 9.9072 14.6945
250 3 1.56175 7.4908 15.683
49 4 -0.741327 10.9307 9.32161
101 2 -3.34937 13.532 13.3614
191 2 -6.58627 12.5474 14.9444
98 2 -2.47032 11.9938 18.1924
328 1 -5.74963 10.521 9.21946
44 4 3.38565 6.83609 12.8438
344 2 -6.47791 11.9676 17.1335
1 4 13.7409 1.58096 5.36747
2 1 12.5999 0.483054 6.54581
91 1 8.43714 6.69324 8.27923
4 2 11.9405 1.42463 6.82294
6 3 13.7951 0.559748 3.73747
318 1 12.8434 3.19897 5.00715
34 4 6.859 2.7686 6.98427
39 4 5.32248 4.89386 8.81448
320 2 11.8884 3.15485 4.3383
53 4 8.33084 2.85678 4.24303
55 4 9.36352 4.31616 1.29401
56 4 6.4903 6.6439 4.45963
59 4 9.09634 6.58758 6.49144
85 1 9.80397 1.80657 4.63409
88 1 10.7566 5.4365 1.77865
90 1 10.3622 5.00063 6.3329
112 2 8.27755 0.707002 1.71272
170 2 10.747 2.48903 4.79644
171 2 9.849 1.14644 3.67154
172 2 9.60015 1.14193 5.56092
178 2 10.8249 5.52338 2.88643
179 2 10.6128 6.44493 1.17766
180 2 11.6412 4.69204 1.37682
184 2 10.3677 4.69523 5.24566
185 2 9.70554 4.25978 6.92898
186 2 11.4654 5.33542 6.76722
189 2 8.74988 5.89997 9.03665
32 4 8.17534 0.00207984 8.2246
230 3 6.4867 3.68737 8.21261
233 3 4.9712 5.96283 7.70911
255 3 7.18257 1.8575 3.78881
256 3 7.94005 3.25126 5.91642
258 3 8.8269 3.80286 2.91187
259 3 10.0043 3.08598 0.0637455
260 3 5.76624 5.56319 3.64719
263 3 8.22396 5.19268 0.578666
266 3 7.81683 6.42462 5.33416
313 2 11.1706 3.96321 7.82676
5 2 13.2622 0.298178 7.4733
286 4 13.4282 0.291383 2.25666
341 2 11.3864 1.30248 1.9316
349 2 14.1656 1.57458 1.5036
187 2 7.33582 6.79208 8.23958
339 1 11.5896 0.174521 1.93462
319 2 12.703 3.74839 5.93931
222 3 7.26683 1.14944 7.43979
127 2 11.54 6.7845 4.2206
140 2 9.31624 1.87213 9.27226
20 4 10.9536 5.8914 15.9348
359 2 7.62389 0.866247 15.244
54 4 12.0765 1.02248 12.8251
57 4 8.44582 6.39962 17.7176
60 4 10.3112 3.18709 14.0275
169 2 8.30052 0.11776 13.5821
73 1 9.29825 0.729982 9.57475
365 3 12.4439 1.67239 17.5233
87 1 12.5529 0.721641 14.5842
105 2 6.69369 4.35322 12.1183
331 1 6.8881 2.56169 17.6649
117 2 9.38967 1.81582 14.6439
119 2 8.93536 3.9276 13.4399
120 2 9.17705 6.28165 13.0317
355 2 10.3643 0.12075 9.55113
350 2 10.1992 0.466201 17.5956
332 2 6.35883 2.85627 16.7608
316 2 8.83215 4.15986 9.43265
346 2 12.9355 4.35158 17.0432
124 2 14.497 1.17889 14.688
177 2 12.8938 1.78396 14.871
257 3 13.3922 0.615544 11.6964
262 3 9.46867 5.97294 16.6191
264 3 5.97794 5.52929 10.2087
333 2 7.37379 1.54303 17.5768
267 3 11.2552 2.3959 12.7043
268 3 11.0606 4.46052 14.7884
269 3 5.65948 5.96589 15.1383
174 2 10.0672 0.302159 11.373
283 4 13.6477 2.78098 17.3605
97 2 12.6554 4.93717 14.3803
308 4 10.8814 1.96487 17.3497
309 2 10.5448 2.53262 15.7406
310 4 11.1144 4.46308 9.49482
311 1 9.48061 4.40816 10.3604
312 2 12.3463 3.38677 10.0289
314 2 9.08391 5.28742 10.9776
315 2 10.0271 3.4484 11.149
141 2 8.57815 0.591389 10.4472
317 3 11.4873 5.94929 9.6121
84 1 8.38161 0.119495 14.7278
362 2 11.5932 0.466302 15.1889
334 2 7.55365 3.39706 18.0185
360 2 9.39978 -0.0191667 15.1528
270 3 6.92175 6.77378 17.2123
303 3 8.71646 7.88798 0.279334
48 4 3.01358 9.46461 7.82368
50 4 1.47491 12.0207 6.03683
83 1 2.55481 12.4586 4.55887
89 1 9.66061 8.50411 6.03548
306 3 6.08754 12.8244 1.46068
121 2 7.04969 7.84312 3.32149
3 2 4.19256 13.4773 6.1618
166 2 1.78665 12.5351 3.7084
167 2 3.45339 11.8011 4.31668
168 2 2.92823 13.4868 4.95745
181 2 8.70576 8.73289 5.37153
182 2 10.6387 7.9342 5.50068
335 1 0.911008 12.645 1.15024
329 2 8.51591 10.5687 8.74888
188 2 8.9416 7.76684 8.4601
192 2 3.69517 12.9749 8.74559
340 2 3.81844 13.5458 0.89395
244 3 4.0058 8.35872 7.35071
248 3 2.38435 10.3666 6.64003
249 3 1.75035 13.3007 6.92893
261 3 5.47344 7.39148 5.41935
273 3 3.71708 10.2388 8.9845
285 4 9.27148 10.5271 3.58985
361 2 3.29274 13.4235 2.90091
287 4 8.03369 9.03779 1.10125
307 3 7.97705 11.0571 4.43779
289 4 6.5412 11.2029 5.4597
290 1 6.28799 8.32121 1.59812
291 1 5.36203 10.3906 4.24332
292 1 6.95364 10.05 6.92278
293 2 6.02173 12.7019 6.14992
294 2 6.44181 7.21716 1.79928
295 2 5.62994 8.41945 0.745414
296 2 5.81786 8.75937 2.56061
297 2 4.65681 11.1582 3.76564
298 2 4.85054 9.81178 5.2034
299 2 5.92828 9.7818 3.53919
300 2 7.99102 9.4445 6.64042
301 2 5.98162 9.50245 7.14553
302 2 7.12878 10.9379 7.58569
337 2 1.86173 13.3274 1.2865
304 3 8.82715 9.3898 2.55759
305 3 7.53154 10.4768 0.477633
183 2 9.91491 9.13666 7.01608
41 4 4.49577 7.05126 6.68797
288 4 6.60364 11.7006 0.0601313
272 3 7.39237 7.25871 11.3883
62 4 8.79705 7.55896 11.9883
63 4 4.38364 10.9467 10.2062
64 4 7.7494 9.43794 14.1138
65 4 4.12389 10.8279 16.7681
66 4 6.84508 11.3567 11.9808
71 1 11.189 7.41569 14.9113
194 2 3.81534 13.2413 10.736
176 2 5.61117 13.7084 14.7826
94 1 3.41352 10.5179 11.9111
95 1 4.19792 11.8036 15.1471
116 2 5.56534 8.23982 9.80387
118 2 4.86543 8.14954 16.4729
122 2 6.13669 12.9177 12.2033
330 2 9.80415 9.59088 9.7602
134 2 10.1537 7.9555 15.1713
343 2 7.18667 12.6294 16.3438
173 2 3.19052 12.5868 12.1642
135 2 11.2068 6.88453 13.8169
195 2 3.05962 9.47357 11.704
196 2 2.44454 11.1449 11.9215
197 2 4.09179 10.5483 12.7951
198 2 3.31834 12.5269 15.2599
199 2 3.93342 11.1799 14.2229
200 2 5.21286 12.4045 15.041
58 4 5.93098 6.98121 10.9517
271 3 9.95022 7.79303 10.9239
265 3 4.85244 7.07485 12.148
274 3 7.03452 8.23649 14.9864
275 3 8.72722 8.82881 12.942
276 3 9.17067 10.0318 15.203
277 3 3.51411 9.16403 16.095
278 3 5.6146 10.9686 17.4117
279 3 3.05383 11.2595 17.8853
280 3 8.31063 11.6998 11.6009
281 3 5.97939 10.6521 10.6709
282 3 6.76187 10.5684 13.3986
93 1 4.28777 12.8036 9.67498
193 2 5.39892 13.0599 9.51985
342 1 7.94138 12.5852 17.2907
61 4 6.1807 7.24411 15.8992
175 2 2.12201 13.7044 13.3193
86 1 2.85872 13.7138 12.4153
ITEM: TIMESTEP
100
ITEM: NUMBER OF ATOMS
365
ITEM: BOX BOUNDS xy xz yz pp pp pp
-7.7248768500000011e+00 1.5563499999999999e+01 -7.7248768500000011e+00
-1.3819999999999999e-01 1.3846299999999999e+01 2.4629999999999999e-01
0.0000000000000000e+00 1.8322199999999999e+01 -1.3819999999999999e-01
ITEM: ATOMS id type x y z
7 4 0.731093 3.30631 0.323426
8 2 1.30035 2.34938 1.67817
9 2 1.19485 4.81852 0.764742
155 2 2.45016 5.8257 0.158971
11 4 2.84281 0.616829 8.67604
13 4 1.17098 2.73858 6.92396
351 2 -1.76918 4.0087 5.49186
29 4 6.83186 0.79491 2.64012
30 4 2.60445 3.0301 4.25501
31 4 5.37414 2.58066 0.675214
161 2 2.27697 5.41859 8.37337
68 1 -2.80078 6.36443 4.30205
69 1 -1.88389 5.7454 7.15162
74 1 1.5166 1.48333 3.41299
75 1 5.16533 2.51639 6.17939
77 1 2.11893 6.34339 4.41962
96 2 -1.56287 5.04746 8.98158
102 2 1.00911 3.10971 3.15419
37 4 4.77177 4.83134 2.7011
109 2 3.21219 5.89482 5.98089
227 3 5.32949 4.0306 1.58786
128 2 -2.61326 5.18447 4.51295
129 2 -0.798898 5.98134 7.56127
130 2 -2.02289 4.55212 6.923
142 2 1.21915 0.867284 2.5444
143 2 1.02288 1.10459 4.30547
144 2 3.20837 1.27442 3.69929
145 2 4.29869 3.07862 6.74939
146 2 5.11242 1.33807 6.2665
147 2 5.21792 2.89421 5.13778
151 2 1.6792 5.78661 5.34562
80 1 2.0491 6.48276 8.72917
153 2 1.88723 5.79174 3.40134
131 2 -2.67625 6.18347 7.89525
201 3 -0.0852028 1.86373 6.01394
202 3 1.97822 1.61121 7.82575
205 3 0.376918 3.77865 7.86566
219 3 2.20816 3.24508 5.75788
220 3 5.80593 1.26098 1.56428
226 3 3.62587 4.02727 3.49867
156 2 2.18796 5.83412 2.03873
78 1 2.18604 6.49217 1.09623
152 2 3.23053 6.71623 4.40405
10 3 -0.891923 3.10788 0.405424
107 2 3.78904 6.19957 2.10796
126 2 -1.99796 6.76288 3.51163
111 2 0.358129 6.76399 1.38643
14 4 0.416271 2.58562 13.2505
36 4 5.59993 3.21933 12.7133
19 4 -1.26324 5.10431 13.6803
33 4 3.45171 2.91358 10.4097
35 4 3.21216 2.68935 16.8746
40 4 1.23292 6.21145 10.4625
42 4 4.4172 4.84244 14.8083
43 4 0.703062 6.15957 15.8554
15 4 -1.58376 6.64867 17.7829
67 1 0.422121 1.33139 14.7587
76 1 3.62065 1.39894 15.4272
229 3 3.93916 4.03998 9.32765
16 4 -0.329404 3.83576 9.28173
103 2 1.82027 3.23861 10.7903
104 2 1.72812 2.77495 14.4195
110 2 1.9455 5.04376 16.0941
123 2 0.98167 0.281603 14.5102
358 2 5.64051 1.04196 11.7354
125 2 0.853679 1.78689 15.7267
148 2 3.03808 0.453539 15.2853
149 2 4.77404 1.28739 15.625
150 2 3.46345 2.14196 14.5114
237 3 -0.0827162 6.19255 17.2301
203 3 0.793777 1.97392 11.8068
99 2 4.15077 0.132943 16.7961
206 3 -0.769255 3.59859 13.316
207 3 -2.86909 5.97725 17.0979
209 3 -1.4509 6.122 12.4906
221 3 3.6268 1.42686 9.90363
223 3 4.23132 2.3242 18.1014
224 3 1.58663 2.61871 17.2585
225 3 4.44519 3.14304 11.6741
231 3 0.666603 4.4598 10.3846
234 3 3.40191 4.18115 16.2386
235 3 5.19146 3.54121 14.158
236 3 -0.239388 5.6551 14.733
238 3 2.30304 6.5169 11.6054
239 3 3.32892 5.59387 13.8001
204 3 -1.16888 2.56042 9.7973
82 1 5.8536 -0.0407133 12.2456
345 2 0.343255 0.2907 10.0001
357 2 6.63038 0.0181049 13.0784
284 2 -0.770835 2.49105 15.8366
106 2 6.53933 1.77677 12.7555
12 4 -0.579954 1.43434 10.8307
18 4 -1.74164 7.20385 5.79414
23 4 -2.82574 9.38327 7.69303
25 4 -3.85445 12.4352 6.6437
38 4 1.16966 7.95504 4.69812
45 4 1.31009 8.31369 1.65841
46 4 -1.42433 12.0899 4.48497
70 1 -5.59088 12.6539 6.03131
162 2 3.01409 7.02316 8.91075
79 1 -1.9649 10.4736 3.54891
354 2 -6.04003 13.5802 6.52167
353 2 -5.06513 10.6679 8.38588
113 2 1.85468 8.44391 8.70439
108 2 1.76326 9.10882 5.84433
338 2 0.609288 11.9491 1.92339
132 2 -5.58494 12.6261 4.87492
133 2 -6.09032 11.6409 6.4224
157 2 -1.05164 9.76159 3.67113
158 2 -2.12885 10.8599 2.51316
159 2 -2.89965 10.0997 4.04192
348 2 -5.13032 9.82288 4.8601
210 3 -3.75767 8.44704 8.75838
211 3 -2.49466 8.50909 6.35095
213 3 -3.62521 10.7196 7.37872
214 3 -3.83786 13.577 7.70925
228 3 -0.223841 7.34449 5.42882
240 3 1.12573 8.60535 3.20198
241 3 -1.12016 13.2292 3.2864
242 3 -2.76907 12.4887 5.33968
243 3 0.941647 9.44635 0.4551
245 3 -1.43721 9.96513 8.34145
246 3 -0.348158 12.4084 9.02588
247 3 0.0563669 11.7609 5.22915
321 1 -1.90566 8.55577 0.151706
322 2 -0.76497 8.98842 0.206345
160 2 1.35485 6.92922 7.98953
324 1 -5.42057 12.1554 2.91844
325 2 -5.45449 11.8513 1.75605
326 2 -4.32577 11.989 3.26217
327 2 -5.79576 13.281 3.06603
154 2 3.07241 7.83478 1.27933
323 2 -2.50357 8.55799 1.12499
182 2 -4.48504 8.5032 5.88177
336 2 0.13984 13.264 0.537946
347 2 -1.78614 6.91525 1.17891
17 4 -3.78723 7.652 10.1614
21 4 -1.23119 7.54474 11.8279
22 4 -2.82293 12.412 16.6741
24 4 -5.84043 11.9468 10.3509
26 4 -1.04111 9.92391 13.6937
27 4 -4.93611 10.9239 14.9434
28 4 -3.03544 12.2154 12.1188
232 3 0.0640959 7.26121 10.4291
253 3 0.630343 11.638 16.7243
51 4 2.37951 8.67849 15.0035
52 4 0.0113585 12.2825 15.4314
72 1 -1.32739 9.15789 15.3722
81 1 0.600421 10.1351 10.4717
363 2 -4.82693 13.1459 14.0007
92 1 -5.75184 12.4082 14.0609
251 3 3.11992 8.22585 13.6869
352 2 -2.36923 8.73476 17.4731
100 2 -3.90147 10.2634 13.683
252 3 0.211949 11.0067 13.9673
114 2 -1.20342 10.7175 10.9655
356 2 -1.43636 12.8116 11.0871
137 2 -0.51876 9.37072 16.1557
138 2 -1.37902 8.03752 15.3171
139 2 -2.37 9.64522 15.6243
344 2 -6.38097 11.9507 17.2726
47 4 1.44269 11.1573 18.0864
163 2 1.50804 10.3926 9.77115
164 2 0.375386 8.9758 10.4583
165 2 0.722379 10.4476 11.5267
190 2 -6.08686 12.0207 13.039
254 3 -1.61395 12.5455 15.7504
208 3 -2.55498 8.05805 11.0677
212 3 -6.10873 13.2982 9.38592
215 3 -0.764955 8.65777 12.8349
216 3 -3.86281 11.4248 16.0512
217 3 -4.24414 12.1744 11.0521
218 3 -2.63611 10.8711 12.9761
136 2 -3.05091 8.14226 15.004
115 2 1.36119 9.9153 14.4805
250 3 1.33004 7.6218 15.5956
49 4 -0.651803 10.9946 9.34236
101 2 -3.25923 13.5804 13.3182
191 2 -6.58228 12.7042 14.823
364 2 -7.20692 13.68 17.7186
98 2 -2.52323 11.926 18.2336
44 4 3.36807 6.87876 12.7367
1 4 13.753 1.53787 5.37961
2 1 12.8715 0.43068 6.67349
91 1 8.35303 6.62178 8.29618
4 2 12.347 1.43734 7.13755
6 3 13.5564 0.691928 3.94915
318 1 12.7905 3.25976 5.1398
34 4 6.78999 2.73085 7.0109
39 4 5.38258 4.90357 8.87588
320 2 12.5954 3.42471 4.00003
53 4 8.32809 2.85315 4.26258
55 4 9.35275 4.2762 1.43033
56 4 6.5689 6.60685 4.57545
59 4 9.04695 6.58314 6.5276
85 1 9.90215 1.83853 4.62541
88 1 10.664 5.42058 2.07799
90 1 10.3559 5.10551 6.18967
112 2 8.27957 0.583861 1.7579
170 2 11.0015 2.4 4.72836
171 2 9.93473 1.13068 3.7283
172 2 9.57449 1.38588 5.6494
178 2 10.6815 5.19411 3.19534
179 2 10.5831 6.49658 1.8535
180 2 11.6264 5.02184 1.54415
184 2 10.3237 4.87748 5.11287
185 2 9.72578 4.34886 6.78386
186 2 11.549 5.36293 6.60877
189 2 8.62014 5.64981 8.96196
32 4 8.28283 0.0194612 8.23601
230 3 6.46707 3.77717 8.07257
233 3 5.04788 6.09213 7.91393
255 3 6.96005 1.94865 3.75296
256 3 7.89369 3.4116 5.64601
258 3 8.87379 3.63103 2.81869
259 3 10.0651 3.06712 0.206812
260 3 5.88715 5.36957 3.6478
263 3 8.28227 5.22496 0.555686
266 3 7.81489 6.48949 5.5077
313 2 11.086 4.25198 7.8246
5 2 13.9738 0.0973049 7.12582
286 4 13.4048 0.439529 2.31841
341 2 11.2806 1.48578 2.23775
349 2 13.915 1.82651 1.49511
222 3 7.47262 1.25662 7.65867
339 1 11.5308 0.345132 2.11815
319 2 11.8475 3.34254 5.83799
127 2 11.4944 6.75839 4.07693
41 4 4.48098 6.85546 6.66705
316 2 8.97541 3.6238 9.04654
187 2 7.2745 6.70814 8.27697
176 2 13.2753 0.0466956 14.9375
20 4 10.9199 6.09011 15.8982
359 2 7.93011 0.789287 15.9373
54 4 12.0837 1.00492 12.8331
57 4 8.46249 6.44212 17.7708
60 4 10.2808 3.21297 13.9197
169 2 8.02154 0.469788 13.9896
73 1 9.24715 0.679258 9.68007
365 3 12.4769 1.75086 17.5192
87 1 12.5152 0.934114 14.6566
105 2 6.78599 4.32614 12.2511
331 1 7.04107 2.6318 17.6682
117 2 9.14788 1.96321 14.4957
119 2 8.85199 3.66667 13.117
120 2 9.29694 6.11951 12.6561
355 2 10.3699 0.0375635 9.73345
350 2 10.2084 0.581761 17.5758
360 2 9.49224 -0.0223966 15.2197
86 1 10.4977 -0.0759049 12.4456
175 2 9.71358 0.0683902 13.4076
124 2 14.5012 1.17329 14.772
177 2 12.8366 1.9767 14.8918
257 3 13.5119 0.628951 11.6929
262 3 9.54489 6.18197 16.5855
264 3 5.98922 5.50457 10.2021
333 2 7.69586 1.73002 17.7683
267 3 11.3902 2.45345 12.7329
268 3 10.9013 4.54924 14.7046
269 3 5.50687 5.93657 15.193
174 2 10.0363 0.409764 11.5546
283 4 13.654 2.86685 17.2524
97 2 12.4757 4.82308 14.3187
308 4 10.9532 2.05324 17.4091
309 2 10.5676 2.57241 15.7347
310 4 11.0952 4.4321 9.54189
311 1 9.35728 4.16734 10.0997
312 2 12.0938 3.34978 10.3299
314 2 8.65288 5.01466 10.42
315 2 9.6702 3.36345 11.0162
141 2 8.59524 0.45691 10.5793
317 3 11.5303 5.86987 9.91956
84 1 8.41136 0.227656 15.0003
362 2 11.5048 0.645712 15.0636
334 2 7.63354 3.52673 17.9183
332 2 6.54217 2.70177 16.6436
140 2 9.38463 1.76464 9.309
346 2 12.9887 4.39588 16.9132
303 3 8.66821 7.95882 0.162266
48 4 3.04744 9.38573 7.88352
50 4 1.52333 11.9854 5.96522
83 1 2.61649 12.3224 4.54885
89 1 9.78083 8.5543 6.2245
306 3 6.27789 13.1216 1.33445
121 2 6.88341 7.85577 3.38928
3 2 4.53756 13.4717 6.26983
166 2 1.80472 12.7218 3.78312
167 2 3.25821 11.4363 4.1817
168 2 3.218 13.2082 4.97444
181 2 9.01606 8.66923 5.36862
328 1 9.27986 10.5684 9.03903
335 1 0.967844 12.6011 1.06314
329 2 8.36608 10.3643 8.30366
188 2 8.92955 7.59076 8.60588
192 2 3.61385 12.9662 8.82585
340 2 3.86001 13.738 0.976284
244 3 3.99365 8.33326 7.09249
248 3 2.24497 10.2107 6.75559
249 3 1.64643 13.1559 7.02426
261 3 5.49601 7.173 5.45661
273 3 3.77639 10.0728 9.07245
285 4 9.24332 10.5955 3.57608
361 2 3.38157 13.4464 2.9839
287 4 7.90962 8.98758 1.167
307 3 7.80479 11.1441 4.45113
289 4 6.57634 11.081 5.39411
290 1 6.14658 8.34365 1.6439
291 1 5.33589 10.3578 4.17493
292 1 6.91401 9.88647 6.91876
293 2 6.0174 12.5871 6.0978
294 2 6.49219 7.20052 1.62345
295 2 5.55615 8.56119 0.685352
296 2 5.52011 8.6404 2.54585
297 2 4.53272 11.0468 3.70806
298 2 4.8341 9.65437 5.11018
299 2 5.89257 9.71329 3.36058
300 2 7.9543 9.43056 6.67466
301 2 6.13341 9.08386 7.05206
302 2 6.84548 10.7474 7.66431
337 2 1.9101 13.2131 1.30176
304 3 8.72776 9.40681 2.5314
305 3 7.63615 10.5579 0.550258
183 2 9.65247 9.15916 7.15743
288 4 6.71591 11.9024 0.124042
272 3 7.43545 7.3347 11.3901
62 4 8.8091 7.61836 11.9538
63 4 4.48415 10.9645 10.1426
64 4 7.7935 9.43749 14.1093
65 4 4.15718 10.8797 16.7194
66 4 6.92802 11.3875 11.982
71 1 11.2207 7.57988 14.876
194 2 3.77945 13.2453 10.8393
270 3 6.94715 6.83019 17.0812
94 1 3.47141 10.6643 11.8997
95 1 4.20211 11.9548 15.1907
116 2 5.63286 8.20786 9.84796
118 2 4.77545 8.09271 16.1369
122 2 6.33386 12.9403 12.2125
330 2 9.35491 9.6979 9.75527
134 2 10.2889 8.18677 15.1479
343 2 7.46946 12.5523 16.2584
173 2 3.02535 12.6025 12.2353
135 2 11.1484 7.00842 13.8197
195 2 3.5355 9.50535 11.9143
196 2 2.42559 11.0524 11.7103
197 2 3.96621 11.1426 12.818
198 2 3.19627 12.5132 15.4168
199 2 4.26533 11.3616 14.2549
200 2 5.09961 12.6582 15.362
58 4 5.97676 6.99051 10.95
271 3 10.0653 7.88059 10.8884
265 3 4.84476 6.97304 12.0535
274 3 6.96423 8.1761 14.8607
275 3 8.77918 8.83307 12.9746
276 3 8.99365 10.1515 15.186
277 3 3.55103 9.17636 15.9428
278 3 5.567 11.1548 17.3356
279 3 3.02183 11.4453 17.6917
280 3 8.31273 11.6983 11.4138
281 3 6.08987 10.6538 10.8706
282 3 6.87912 10.714 13.4647
93 1 4.27075 12.7731 9.75961
193 2 5.29191 13.2278 9.58554
342 1 8.02822 12.6135 17.2667
61 4 6.18346 7.18616 15.797
ITEM: TIMESTEP
200
ITEM: NUMBER OF ATOMS
365
ITEM: BOX BOUNDS xy xz yz pp pp pp
0.0000000000000000e+00 2.3162746300000002e+01 7.5992462999999999e+00
-1.3819999999999999e-01 1.3846299999999999e+01 2.4629999999999999e-01
0.0000000000000000e+00 1.8322199999999999e+01 -1.3819999999999999e-01
ITEM: ATOMS id type x y z
107 2 4.12724 6.19652 2.09541
226 3 3.7939 3.90483 3.49813
220 3 5.75449 1.26564 1.47901
219 3 2.1543 3.33093 5.76586
11 4 2.82552 0.594313 8.64424
202 3 1.93044 1.5684 7.74669
147 2 5.27025 2.55707 5.18809
29 4 6.73632 0.625936 2.51654
30 4 2.5951 3.03391 4.22978
31 4 5.47208 2.67397 0.589643
146 2 5.09864 1.18007 6.45582
145 2 4.40998 2.87157 6.88904
144 2 3.00981 1.05654 4.1516
74 1 1.69774 1.45935 3.25513
75 1 5.21424 2.30502 6.25243
230 3 6.60278 3.80022 8.21186
142 2 1.66499 0.945123 2.25168
227 3 5.40144 4.07234 1.49648
37 4 4.8815 4.80422 2.75349
91 1 8.47695 6.62009 8.26866
187 2 7.33065 6.67923 8.16114
316 2 9.19891 3.49061 8.91016
189 2 8.77922 5.68316 8.94438
34 4 6.88309 2.73849 7.01296
39 4 5.49428 4.77598 8.95916
53 4 8.29187 2.67976 4.18332
222 3 7.33282 1.20741 7.56366
55 4 9.34627 4.45613 1.35921
56 4 6.63575 6.59057 4.50751
59 4 9.10502 6.63681 6.45332
185 2 9.71291 4.44478 6.90553
90 1 10.3472 5.13387 6.20355
266 3 7.92236 6.47412 5.37038
263 3 8.22501 5.35114 0.428403
260 3 6.08099 5.3428 3.7317
179 2 10.5243 6.59791 2.02265
258 3 8.80563 3.56019 2.80559
256 3 7.89352 3.34154 5.66546
255 3 7.09503 1.68659 3.75843
233 3 5.11003 6.1456 7.99669
184 2 10.3438 4.90697 5.06478
88 1 10.6753 5.5258 2.05611
109 2 3.39116 5.9279 5.82396
106 2 6.19002 1.56398 12.9762
36 4 5.46113 3.10175 12.7714
357 2 6.4384 -0.152023 13.0158
33 4 3.4659 2.98085 10.4241
35 4 3.1791 2.79687 16.8343
270 3 6.84444 6.78784 17.0707
42 4 4.41695 4.90439 14.8024
264 3 6.28417 5.32387 10.4401
239 3 3.29427 5.47661 13.7423
235 3 5.13748 3.60141 14.2181
76 1 3.59009 1.36398 15.5859
229 3 4.10754 3.97425 9.30651
234 3 3.30885 4.27128 16.2872
225 3 4.19468 3.03996 11.8039
223 3 4.31427 2.45294 17.9371
221 3 3.36986 1.43334 9.97834
123 2 1.01573 0.551996 14.5592
358 2 5.11368 0.735618 11.986
99 2 4.25069 0.171316 17.0083
148 2 2.69462 0.7182 15.9179
149 2 4.45078 0.726261 15.3723
150 2 3.30174 1.9292 14.6328
20 4 10.9047 6.11027 15.9085
359 2 8.1977 0.858744 15.7518
57 4 8.38019 6.5803 17.5993
332 2 6.68228 2.78496 16.633
334 2 7.70468 3.68602 17.858
269 3 5.47859 5.96122 15.1255
105 2 6.60973 4.03165 12.0632
331 1 7.17738 2.76022 17.6449
119 2 8.67236 3.74298 13.3321
333 2 7.87795 1.84817 17.8159
314 2 8.61453 4.83653 10.3535
120 2 9.31122 6.40648 12.9554
311 1 9.40793 4.0012 10.0344
262 3 9.44464 6.24058 16.5192
364 2 0.598931 0.126969 17.8575
182 2 10.7316 8.4537 5.90293
23 4 12.609 9.40425 7.85157
25 4 11.5837 12.4454 6.73119
327 2 9.60783 13.2962 2.92045
326 2 10.916 11.8871 3.216
46 4 13.7915 12.0667 4.46573
70 1 9.88051 12.599 5.92773
325 2 9.6772 11.8301 1.68664
79 1 13.1903 10.421 3.68799
354 2 9.50641 13.651 6.23845
353 2 10.3263 10.4143 8.30807
324 1 9.84794 12.1719 2.79777
242 3 12.562 12.5472 5.47838
241 3 13.8193 13.1342 3.21785
132 2 9.88552 12.499 4.82441
133 2 9.32767 11.7948 6.5143
214 3 11.5867 13.6638 7.79223
158 2 13.1631 10.4832 2.56289
159 2 12.1279 10.436 4.20916
348 2 10.209 9.74279 4.6106
210 3 11.6655 8.40203 8.7771
213 3 11.7219 10.7122 7.38211
303 3 8.63782 8.03255 0.253279
261 3 5.49944 7.17303 5.4628
183 2 9.54645 9.26389 7.23215
305 3 7.30722 10.5896 0.531921
304 3 8.71661 9.54282 2.43763
89 1 9.70015 8.65672 6.20366
302 2 6.83259 10.8639 7.70187
301 2 6.09806 9.13038 7.28522
300 2 7.91826 9.38375 6.74804
41 4 4.51444 6.9123 6.64282
121 2 7.08041 7.80066 3.36119
181 2 8.9205 8.88395 5.37172
296 2 5.76521 8.76699 2.70718
295 2 5.58277 8.63589 0.719042
294 2 6.3978 7.29261 1.74654
328 1 9.40208 10.3554 8.95365
292 1 6.84564 9.87335 6.98081
329 2 8.42392 10.1976 8.23683
290 1 6.23467 8.36109 1.65873
289 4 6.57538 11.0652 5.47951
307 3 7.86585 10.9387 4.62066
287 4 7.85272 9.18998 1.01002
188 2 8.98482 7.65202 8.51488
285 4 9.12695 10.5786 3.55942
17 4 11.4998 7.63387 10.1753
98 2 12.7822 11.7675 18.1804
22 4 12.4621 12.4573 16.644
24 4 9.49421 11.8911 10.0983
135 2 10.9786 6.98442 13.7472
27 4 10.3135 11.0747 14.9343
28 4 12.1926 12.1258 12.1354
191 2 8.56276 12.6992 14.2704
101 2 11.6923 13.423 13.2249
136 2 12.1675 8.04273 14.8754
218 3 12.663 10.9095 13.0255
217 3 11.013 11.9557 11.0397
216 3 11.3636 11.6068 16.0472
363 2 10.1734 13.6104 14.6262
92 1 9.69986 12.7329 14.1772
212 3 9.11272 13.1598 9.17185
254 3 13.7346 12.7254 15.8267
100 2 11.2879 10.2819 13.7913
190 2 10.0112 12.5744 13.1249
344 2 9.01528 12.3608 17.2756
356 2 13.8725 13.1459 11.0699
139 2 12.8093 9.4003 15.7238
272 3 7.61839 7.3772 11.2703
61 4 6.21537 7.23718 15.7063
342 1 8.09286 12.9448 17.3
62 4 8.95242 7.68887 11.9503
64 4 7.93549 9.44904 14.1394
282 3 6.84775 10.7157 13.4125
118 2 4.85383 8.14247 16.294
280 3 8.3155 11.7854 11.2293
66 4 6.94592 11.3496 11.8844
71 1 11.14 7.53956 14.7694
343 2 7.50021 13.0001 16.286
276 3 9.13045 10.0757 15.3111
275 3 8.85885 8.88574 13.0447
274 3 7.06055 8.26659 14.8992
265 3 4.93894 7.01468 12.0385
271 3 10.1389 7.98664 10.8694
58 4 6.16921 6.87798 10.9176
116 2 5.64236 7.79923 9.64399
82 1 13.3282 13.654 12.137
330 2 9.55434 9.51345 9.70438
134 2 10.1891 8.17485 15.0202
288 4 6.92875 11.8189 18.3025
1 4 13.774 1.45731 5.37114
2 1 12.8965 0.333415 6.66844
152 2 18.5187 6.86257 4.45848
4 2 12.0014 1.25625 6.70414
6 3 13.8294 0.694758 3.70878
318 1 12.6996 3.08333 5.02107
319 2 12.1144 3.4596 5.90473
339 1 11.6624 0.0838976 2.08256
320 2 12.0343 3.27924 4.09336
349 2 13.6418 1.92643 1.3543
341 2 11.2171 1.12477 1.93839
286 4 13.4908 0.460152 2.11862
5 2 13.5638 0.480415 7.53679
85 1 9.78376 1.57416 4.66286
313 2 11.0497 4.23902 7.8972
259 3 10.1215 3.36689 0.232236
112 2 8.25135 0.425454 1.72772
170 2 10.8974 2.18272 4.75776
171 2 9.71456 0.827885 3.83736
172 2 9.3883 1.10108 5.66854
178 2 10.6472 5.2128 3.22243
32 4 8.08561 -0.0137658 8.26413
180 2 11.6138 5.12968 1.53049
186 2 11.4858 5.30319 6.55365
7 4 15.9208 3.35324 0.317022
111 2 15.9028 6.76343 0.946738
126 2 13.2219 6.7531 3.52339
143 2 16.0795 1.31146 3.90739
10 3 14.3435 3.31546 0.46425
8 2 16.483 2.51149 1.73052
78 1 17.7285 6.48611 1.06408
156 2 17.7516 5.94688 2.11488
9 2 16.4236 5.00313 0.665115
155 2 18.0778 5.81791 0.254261
13 4 16.449 2.67774 6.9312
205 3 15.7587 3.77935 7.90808
351 2 13.8306 3.69589 4.97823
201 3 15.1774 1.94617 6.06125
131 2 12.5974 5.97311 7.91244
153 2 17.2498 5.75312 3.4009
80 1 17.3075 6.42524 8.73577
151 2 16.9729 5.90043 5.3144
161 2 17.5419 5.31644 8.57383
68 1 12.5484 6.39755 4.39689
69 1 13.4406 5.67891 7.20298
77 1 17.4139 6.3986 4.37649
96 2 13.8111 5.04056 9.0393
102 2 16.4008 3.21986 3.31427
130 2 13.3005 4.59873 6.76604
129 2 14.4896 5.78819 7.63668
128 2 12.5371 5.23754 4.64069
160 2 16.8999 6.94587 7.79123
347 2 13.5633 6.68495 1.20222
176 2 13.2368 -0.0450112 14.7927
346 2 12.7339 4.425 17.0227
140 2 9.3119 1.86289 9.83541
54 4 12.019 1.10447 12.8626
362 2 11.2805 0.594628 14.9442
60 4 10.1468 3.25063 13.964
84 1 8.53052 0.170035 14.9557
73 1 9.18042 0.718933 9.66264
365 3 12.4018 1.79339 17.4693
87 1 12.4709 0.819229 14.6535
317 3 11.4502 5.8045 9.91666
141 2 8.4953 0.338468 10.5148
117 2 9.13193 2.06854 14.6243
312 2 12.6103 3.36591 9.89159
310 4 11.2127 4.34171 9.60016
355 2 10.2349 0.0692404 9.71717
350 2 10.1323 0.721552 17.7777
104 2 17.1322 2.79565 14.2363
86 1 10.4723 0.0595177 12.4806
175 2 9.73031 0.197576 13.3559
124 2 14.5102 1.29023 14.8425
177 2 12.8358 1.93333 14.8817