ITEM: TIMESTEP
0
ITEM: NUMBER OF ATOMS
365
ITEM: BOX BOUNDS xy xz yz pp pp pp
-7.7317999999999998e+00 1.5563499999999999e+01 -7.7317999999999998e+00
-1.3819999999999999e-01 1.3846299999999999e+01 2.4629999999999999e-01
0.0000000000000000e+00 1.8322199999999999e+01 -1.3819999999999999e-01
ITEM: ATOMS id type q x y z
320 2 0.165698 -1.5169 3.72367 4.60886
8 2 0.00428001 1.09506 1.96024 1.36953
229 3 -0.874496 4.19216 4.03474 8.84169
160 2 0.198797 1.84327 5.40977 8.1087
11 4 1.46829 2.67559 0.416375 8.54564
13 4 1.46978 1.20127 2.30395 6.71773
9 2 -0.0137994 0.935318 4.51143 0.388861
37 4 1.26496 4.60993 4.55513 2.596
30 4 1.06074 2.77155 2.57812 4.13831
31 4 1.31338 5.81559 2.43939 0.728183
131 2 0.158428 -2.61664 5.78412 7.40429
16 4 1.22603 -0.261552 3.85413 8.90903
69 1 -0.677393 -1.86378 5.61765 6.5746
74 1 -0.641806 1.9091 1.14089 2.91486
75 1 -0.674694 5.09039 1.92042 6.3575
77 1 -0.676502 1.63946 5.70416 5.05009
96 2 -0.0020591 -1.4898 4.96398 8.40849
102 2 0.0663299 1.0833 2.53261 3.08992
107 2 -0.00769666 3.50518 5.52618 1.69726
109 2 -0.0118769 3.38743 6.22989 5.59324
78 1 -0.629343 1.76208 6.14941 1.00999
154 2 0.163317 2.39515 6.85646 0.333914
129 2 0.152056 -0.777856 5.45435 6.95743
130 2 0.166359 -2.14228 4.74136 5.90136
142 2 0.15451 2.5136 1.09925 1.97342
143 2 0.193156 1.253 0.216141 3.11414
144 2 0.0491778 3.45548 0.859602 3.87004
145 2 0.264761 4.71852 1.01205 6.94414
146 2 0.181013 5.25799 1.67615 5.24586
147 2 0.227904 4.4535 2.88083 6.55995
151 2 0.204523 2.44672 5.06969 5.49691
152 2 0.164707 1.5291 5.37219 3.94227
153 2 0.166941 0.62652 5.56928 5.71139
155 2 0.0347664 0.153217 6.19536 0.628475
201 3 -0.757415 -0.158958 1.84917 5.57524
202 3 -0.881734 1.68216 1.02267 7.50749
205 3 -0.879925 0.659803 3.55464 7.67059
219 3 -0.836584 2.36381 2.76384 5.66699
220 3 -0.822142 6.03735 0.951544 1.34683
226 3 -0.864436 3.6566 3.6172 3.36123
156 2 0.164358 2.08198 5.99577 2.08201
29 4 1.23671 7.19481 0.244873 2.26187
80 1 -0.705466 1.66563 6.56843 8.42856
128 2 0.145335 -2.64652 6.22225 3.93934
227 3 -0.815426 5.49986 3.74839 1.59684
14 4 1.14615 1.03771 3.04223 12.7635
106 2 -0.012166 6.08265 1.34483 11.9044
19 4 1.34892 -0.639821 5.41544 13.9548
33 4 1.33515 3.52161 3.05811 9.83088
35 4 1.33389 3.73106 2.39637 16.6891
40 4 1.33466 1.15238 6.39114 10.2572
42 4 1.44811 4.73127 4.44316 14.3399
346 2 0.00221584 -1.57503 4.52229 16.7512
44 4 1.53211 3.55026 6.34045 12.5423
67 1 -0.680269 1.3629 1.70338 14.104
76 1 -0.653268 4.15522 0.664862 15.9073
7 4 0.925588 1.01658 2.67285 18.1903
10 3 -0.837895 -0.450793 2.36843 17.7593
103 2 0.0958108 2.0172 3.91052 10.0465
104 2 0.124601 2.46373 3.86561 12.2702
110 2 -0.00303837 1.60653 5.89205 17.4222
123 2 0.176186 1.07686 0.621738 13.9377
124 2 0.198347 0.989313 2.07401 15.1058
125 2 0.140695 2.56647 1.8323 13.9401
221 3 -0.882548 3.29116 1.56219 9.4833
97 2 0.0887414 -2.18899 4.98918 14.4271
150 2 0.15796 4.34345 0.963383 14.8096
207 3 -0.806593 -3.37927 6.73853 16.9099
203 3 -0.84584 0.446942 2.19541 11.5567
169 2 0.153541 7.16048 0.160683 16.4334
206 3 -0.814962 0.0337725 4.12242 13.3533
204 3 -0.854577 -1.12844 2.53867 9.4273
209 3 -0.88185 -0.807526 6.53752 12.8775
99 2 0.0205291 4.00589 -0.11572 17.7243
223 3 -0.798125 4.82259 2.20216 17.8414
224 3 -0.825593 2.19813 2.32131 17.2598
225 3 -0.865705 4.27192 3.07804 11.2217
231 3 -0.814154 0.535716 4.59317 10.1043
234 3 -0.818536 3.98435 3.40531 15.4665
36 4 0.986198 5.70829 3.01846 11.8491
236 3 -0.874667 0.0905817 5.71176 15.3068
238 3 -0.834567 2.33338 6.38647 11.2029
239 3 -0.838673 3.2949 4.98237 13.2596
357 2 0.153275 4.41392 0.643665 11.6684
12 4 1.25437 -0.677425 1.58642 10.6569
149 2 0.181172 5.09457 0.207634 16.3921
148 2 0.159777 3.21472 0.07145 16.1394
345 2 0.107986 0.295344 0.314406 10.0257
343 2 0.204507 0.206567 0.203848 18.1682
18 4 1.12555 -1.71698 7.51306 5.66287
23 4 1.49948 -3.25991 9.51537 7.9306
25 4 1.2176 -3.93986 12.0759 6.51122
38 4 0.997001 1.21533 7.56022 4.74366
45 4 0.970035 0.765388 7.8667 1.57579
46 4 1.29375 -1.23929 12.0467 4.61309
70 1 -0.658115 -5.41479 12.62 5.47138
338 2 0.164192 0.209452 11.6666 2.10325
79 1 -0.653241 -1.47867 10.4129 3.70765
323 2 0.207818 -3.85295 8.60893 1.22976
348 2 0.00759239 -4.92982 9.76359 4.57059
113 2 0.00701999 1.57058 8.60388 8.26591
127 2 0.156781 -3.38897 8.16171 3.91857
126 2 0.168187 -1.69976 7.64266 3.17015
132 2 0.168839 -5.37795 12.3148 4.25648
161 2 0.17335 2.67408 7.11705 8.622
157 2 0.209625 -0.595647 9.7433 4.00029
158 2 0.148891 -1.56982 10.5975 2.57234
159 2 0.169721 -2.51709 10.1168 4.19468
108 2 0.00204103 2.33666 8.80011 5.20375
347 2 0.0317236 -2.2446 7.07342 1.02418
211 3 -0.796529 -2.63514 8.53461 6.55379
213 3 -0.821721 -4.38296 10.5034 7.32793
214 3 -0.789588 -3.83363 13.4063 7.86561
228 3 -0.809814 -0.188608 7.82778 5.52777
240 3 -0.818286 1.04669 7.63643 3.17781
241 3 -0.81932 -1.13157 13.0952 3.32749
242 3 -0.803738 -2.72721 12.1382 5.46043
243 3 -0.806757 1.47024 8.96374 0.650823
245 3 -0.826856 -2.01753 10.3453 8.57081
246 3 -0.807847 -0.63694 12.8816 8.90063
247 3 -0.813858 0.196064 11.7719 5.43906
321 1 -0.654511 -2.7978 8.76029 0.952656
322 2 0.158915 -2.30974 9.33942 1.81554
47 4 1.30224 1.5572 10.5562 0.235207
324 1 -0.661394 -5.35172 11.8205 2.34117
182 2 0.242524 -4.1753 8.21704 5.86891
326 2 0.112665 -4.20074 11.3361 2.56946
327 2 0.163519 -5.40755 13.0197 2.54538
325 2 0.19296 -5.81837 11.5534 1.32807
111 2 0.00345042 -0.998834 8.31083 1.42865
98 2 -0.0046989 -4.16502 11.7378 0.784431
68 1 -0.658854 -2.46694 7.37698 3.9477
133 2 0.182056 -6.25913 12.1328 6.08749
210 3 -0.844853 -3.83802 8.52402 9.06662
162 2 0.164239 0.916184 7.05963 7.71031
354 2 0.203032 -5.42309 13.7707 5.61312
163 2 0.181599 0.367888 9.65755 9.15771
17 4 1.53416 -3.79293 7.58557 10.3435
21 4 1.49456 -0.962776 7.7531 11.8725
22 4 0.937243 -3.5533 12.0658 17.5069
24 4 1.25595 -6.15298 11.7987 10.5971
26 4 1.30301 -1.36602 10.118 13.7056
27 4 1.09189 -5.45028 10.8245 15.1919
28 4 1.01607 -3.53986 12.2858 12.3307
352 2 0.0847047 -2.36628 9.42602 17.8808
232 3 -0.825477 0.0287256 7.46472 10.5082
51 4 1.30237 2.70458 8.54301 14.7568
52 4 1.2429 -0.422661 11.5738 16.4674
72 1 -0.704682 -2.68257 9.02709 14.5809
81 1 -0.67535 0.399885 10.5017 10.0602
358 2 0.245259 -2.85374 13.559 10.0919
92 1 -0.678239 -6.20339 12.3597 14.3291
82 1 -0.677587 -2.68309 13.6154 11.2269
356 2 0.152671 -1.61033 13.4284 11.5682
100 2 0.0283116 -4.27267 10.1342 14.1135
101 2 -0.0280838 -4.37315 12.9432 13.7136
114 2 0.0685325 -1.19441 11.2069 11.053
237 3 -0.882607 -0.671327 7.23186 17.0989
137 2 0.168101 -2.98831 9.57867 15.4997
138 2 0.177911 -1.98209 8.15421 14.8494
139 2 0.179501 -3.49428 8.70992 13.8465
251 3 -0.860406 3.2074 7.57962 13.6575
49 4 1.10891 -1.08624 11.4097 9.32487
165 2 0.170688 1.33685 11.1796 10.0714
164 2 0.249632 0.16001 10.0205 11.117
364 2 0.169648 -6.37768 12.493 17.5961
254 3 -0.794877 -2.11426 11.7724 17.1421
191 2 0.174109 -5.96582 12.6457 13.2582
208 3 -0.845069 -2.52192 7.8247 11.2746
212 3 -0.795462 -6.19761 13.1719 9.57801
215 3 -0.823293 -0.460806 9.2801 12.6458
216 3 -0.818785 -4.60516 11.428 16.4126
217 3 -0.788025 -4.59457 11.5955 11.3851
218 3 -0.782903 -2.37906 11.3162 12.8588
84 1 -0.672665 0.244993 13.2463 16.1007
196 2 0.22244 1.92344 9.46045 11.5576
250 3 -0.824917 1.47351 7.94498 15.518
252 3 -0.780883 -0.578256 10.8417 14.8604
253 3 -0.812662 0.624147 10.9607 17.444
15 4 1.02331 -2.11347 7.5405 17.5901
190 2 0.161985 -5.8 13.1526 15.0247
43 4 1.3059 0.602261 6.81205 16.2902
115 2 0.0237628 2.22465 9.89858 13.8493
136 2 0.203031 -4.47609 8.36995 15.6836
1 4 1.10807 13.6983 1.44085 5.09864
2 1 -0.673091 12.7971 0.584947 6.51736
341 2 0.161565 10.532 0.849477 3.20891
4 2 0.163146 11.6848 0.809811 6.21285
6 3 -0.780109 13.5973 0.563527 3.68994
59 4 0.979028 9.12678 6.42771 6.16376
34 4 1.2988 6.75882 2.62952 6.76004
39 4 1.51556 5.47005 5.09455 8.45297
318 1 -0.667929 12.8106 3.16932 4.59326
53 4 1.373 8.50388 2.54511 3.99532
55 4 1.24525 9.65201 4.90061 1.75264
56 4 1.27204 6.59776 6.53572 4.37247
5 2 0.183745 13.0153 1.07373 7.53161
85 1 -0.646445 9.99941 1.72199 4.89976
88 1 -0.677786 10.5148 6.35967 2.54781
90 1 -0.671417 10.3964 4.84057 5.95688
266 3 -0.798165 7.89224 6.2577 5.21417
170 2 0.165835 11.0027 2.28389 4.83989
171 2 0.163638 10.2009 0.514801 4.81026
172 2 0.183001 9.51251 1.98249 5.98678
178 2 0.164701 10.5434 6.09693 3.65535
233 3 -0.8494 5.054 6.35319 7.58483
180 2 0.19258 11.5275 6.3739 2.07992
184 2 0.197498 10.2801 4.55026 4.8565
185 2 0.154798 9.9609 4.01261 6.60481
186 2 0.154103 11.5088 5.12474 6.21243
189 2 0.199874 8.88751 6.11478 8.72477
222 3 -0.786512 7.4851 1.52119 7.77617
230 3 -0.783182 6.45242 4.04878 7.53336
334 2 0.254452 7.86659 3.89354 0.0757638
255 3 -0.838145 8.11202 1.30963 2.98125
256 3 -0.802334 7.59987 2.8688 5.18859
258 3 -0.777064 9.14406 3.77978 3.09193
259 3 -0.802465 10.7063 4.2544 0.81139
260 3 -0.814216 5.58268 5.48256 3.58768
263 3 -0.788799 8.34769 5.53789 0.722263
319 2 0.165528 12.5276 2.78865 3.54202
313 2 -0.0207087 10.9923 4.35078 7.7885
32 4 1.26042 8.23455 0.152031 8.35882
351 2 0.160337 11.9111 3.79492 5.04098
349 2 0.0656042 12.1591 1.14959 1.22482
339 1 -0.624465 10.9082 0.217481 2.06369
350 2 -0.0102576 10.2796 1.4637 0.726648
91 1 -0.656398 8.531 6.79797 7.90136
340 2 0.143878 9.99799 0.15277 1.40739
175 2 0.133877 10.4088 0.689157 13.6555
20 4 1.22348 10.8267 6.01257 15.936
315 2 0.129131 9.4485 2.95631 11.1677
54 4 1.13497 12.6904 1.11803 13.0972
57 4 1.4528 8.34035 6.32358 17.6618
60 4 0.907587 11.0882 3.53752 13.7138
332 2 0.181766 7.14819 2.70153 16.994
73 1 -0.67617 9.30047 0.658746 9.80401
331 1 -0.683413 7.69548 2.69866 18.029
87 1 -0.681871 13.7818 0.375531 14.6541
105 2 0.0126846 6.90841 3.67649 10.9334
362 2 0.164203 13.254 0.709325 15.5837
117 2 -0.0446935 9.74094 2.76278 14.2996
119 2 -0.0244944 10.453 4.06658 12.1817
120 2 -0.00956521 9.70541 6.38782 13.5386
174 2 0.165008 10.4137 0.222536 11.8399
140 2 0.175003 10.267 0.115871 9.73088
58 4 1.35211 6.35603 6.68752 11.0202
312 2 0.0198154 12.2875 3.30421 10.0753
317 3 -0.781575 11.3553 5.88654 9.91477
316 2 0.14542 8.94853 3.64572 9.3548
355 2 0.138284 8.63035 0.197921 10.6309
257 3 -0.804909 13.4428 1.03749 11.6915
262 3 -0.810301 9.35974 5.54862 16.5349
264 3 -0.844938 6.25779 5.69735 9.75487
283 4 0.963011 13.6736 2.84003 16.8566
267 3 -0.816255 12.2991 2.5366 13.5469
268 3 -0.803146 11.5102 4.72197 14.6821
269 3 -0.880468 5.52228 5.62735 14.9954
270 3 -0.818106 6.72106 6.4798 17.0581
272 3 -0.875176 7.65818 6.55879 11.7954
284 2 0.0267098 14.0882 2.28783 15.2647
86 1 -0.664742 11.0018 0.164472 12.811
265 3 -0.873637 5.00217 6.49555 11.8057
310 4 0.703684 11.0872 4.35807 9.53763
311 1 -0.672577 9.53323 3.81572 10.4341
365 3 -0.822785 12.2263 2.47917 17.3698
314 2 0.186974 9.31277 4.95089 10.8611
309 2 -0.000721664 9.47713 2.71228 17.1749
141 2 0.166559 9.43861 1.81295 9.96856
177 2 0.171963 14.8524 0.932654 14.4423
308 4 0.920648 10.8972 2.80101 18.1542
333 2 0.130592 8.31559 1.86846 18.2764
235 3 -0.795448 5.84978 3.50005 13.3515
248 3 -0.83569 2.27148 10.723 6.83742
273 3 -0.840591 3.47697 9.97994 9.05327
50 4 1.32666 1.64786 12.0101 6.14057
83 1 -0.664984 3.09335 12.3749 4.94573
89 1 -0.681825 10.0472 8.04763 5.42114
41 4 1.26445 4.57811 7.28344 6.33744
121 2 0.02283 7.19063 7.52701 3.02126
48 4 1.28418 2.86362 9.53223 7.68976
166 2 0.147986 2.52173 12.8734 4.08679
167 2 0.166434 3.73323 11.4524 4.5908
3 2 0.161678 5.30505 13.2836 6.57895
181 2 0.169666 10.132 7.83508 4.32104
179 2 0.248948 9.91881 7.3569 2.41938
183 2 0.174995 9.33799 8.91107 5.62192
306 3 -0.802925 5.96037 12.8284 1.20807
305 3 -0.766466 7.72689 10.5569 0.420945
188 2 0.167834 9.08098 7.89232 7.91035
168 2 0.170455 3.84606 13.1461 5.51747
244 3 -0.869663 3.80612 8.5534 6.8901
335 1 -0.684203 1.31941 11.4454 1.91222
249 3 -0.763424 1.66261 13.3273 7.20759
261 3 -0.844744 5.72738 7.52558 5.24769
307 3 -0.792236 7.8362 10.5827 3.99437
285 4 1.01546 9.28238 10.1987 3.26341
361 2 0.0686882 3.67195 12.6765 2.60564
287 4 1.2744 8.06388 9.0589 0.857684
286 4 0.976847 5.204 13.7015 2.28452
289 4 0.85145 6.44957 10.9174 4.6588
290 1 -0.690448 6.38319 8.39159 1.45012
291 1 -0.65478 4.95328 9.95102 4.13549
292 1 -0.67605 6.48406 11.2085 6.6584
293 2 0.0602863 6.4674 12.5867 5.4416
294 2 0.174393 6.36046 7.24757 1.5047
295 2 0.187507 5.70084 8.7173 0.551836
296 2 0.154452 6.03568 8.97749 2.41582
297 2 0.184018 3.96758 9.69267 4.70459
298 2 0.1791 5.44431 8.99387 3.63776
299 2 0.10905 4.73043 10.7871 3.23125
300 2 0.169205 7.51838 10.9066 6.88849
301 2 0.185759 5.72856 10.1821 6.67195
302 2 0.177078 6.12079 11.8281 7.45289
336 2 0.162997 1.9399 12.4621 2.0278
304 3 -0.822856 9.26358 9.02646 2.29316
112 2 -0.0190617 0.451138 13.1432 1.31794
187 2 0.229976 7.40441 6.96114 7.88868
353 2 0.253867 9.62896 10.32 8.62052
337 2 0.16461 1.79507 10.6729 2.61854
328 1 -0.671581 8.82954 10.2737 9.51321
62 4 1.2879 8.98803 7.37845 12.225
63 4 1.06018 4.09695 10.4719 10.3657
64 4 1.55551 7.47779 9.20268 14.119
65 4 1.25021 4.20776 10.7841 16.6737
66 4 1.23055 6.51736 11.0432 11.9527
71 1 -0.659024 10.487 7.55774 14.9121
303 3 -0.78732 8.86842 7.85689 18.0282
93 1 -0.687187 4.30233 12.3761 10.1976
94 1 -0.677777 2.84483 10.0109 11.9184
95 1 -0.663706 3.72093 12.0423 15.3954
116 2 0.107828 6.18926 8.33897 10.637
118 2 0.105436 4.55911 7.58787 16.2448
122 2 0.00364299 5.3348 12.3104 11.8672
192 2 0.189471 3.6621 12.484 9.30016
134 2 0.192804 9.25464 7.44444 14.9611
176 2 0.167406 6.18763 13.1289 14.6696
173 2 0.130752 3.73976 12.9996 13.2467
194 2 0.168288 3.95417 13.0747 11.1612
195 2 0.184365 3.50201 9.46598 12.6535
342 1 -0.65269 7.89622 13.0756 17.4827
197 2 0.125875 2.63609 11.17 12.2333
198 2 0.145532 3.43826 11.4967 14.4891
199 2 0.161098 4.65932 12.8884 15.1477
200 2 0.163117 2.76085 12.4783 15.9146
360 2 0.170645 0.438176 13.3479 15.0024
271 3 -0.853708 10.1433 7.71055 11.2249
193 2 0.156242 5.38689 12.5495 9.91723
274 3 -0.874127 6.78194 8.00958 14.8779
275 3 -0.84794 8.35123 8.67694 12.8606
276 3 -0.815744 8.64976 9.84019 15.0587
277 3 -0.787815 3.84707 8.99886 15.8407
278 3 -0.743051 5.78379 11.0424 16.9777
279 3 -0.803235 3.26932 10.8287 17.9733
280 3 -0.847194 7.85798 11.7724 11.5849
281 3 -0.79367 5.81517 9.94419 10.8412
282 3 -0.819443 6.43993 10.4161 13.414
135 2 0.147399 10.9491 7.6828 13.8322
359 2 0.14386 1.17013 13.3099 16.7986
363 2 0.202862 8.00554 12.177 14.5351
330 2 0.24242 9.10833 9.45881 10.2332
344 2 0.187123 7.72044 13.3027 16.3985
288 4 1.21178 6.86047 11.7961 18.2552
61 4 1.38621 6.0012 6.91038 15.7158
329 2 0.190525 7.70376 10.374 9.26481
ITEM: TIMESTEP
100
ITEM: NUMBER OF ATOMS
365
ITEM: BOX BOUNDS xy xz yz pp pp pp
-7.7317999999999998e+00 1.5591192599999999e+01 -7.7317999999999998e+00
-1.3819999999999999e-01 1.3846299999999999e+01 2.7399259999999970e-01
0.0000000000000000e+00 1.8322199999999999e+01 -1.3819999999999999e-01
ITEM: ATOMS id type q x y z
320 2 0.148081 -1.47928 3.96895 4.28743
8 2 -0.006024 1.08405 2.10461 1.32367
229 3 -0.849355 4.27531 4.00532 8.90451
160 2 0.21333 1.96969 5.24953 8.17075
11 4 1.47601 2.64031 0.443214 8.52965
13 4 1.45766 1.12463 2.2001 6.6579
9 2 -0.0158177 1.0014 4.61202 0.211906
37 4 1.26625 4.79725 4.70727 2.67319
30 4 1.03586 2.67766 2.68576 4.00947
31 4 1.3261 5.80723 2.59021 0.608181
131 2 0.155025 -2.60157 5.72362 7.41485
16 4 1.20945 -0.305814 3.67747 8.92887
69 1 -0.678566 -1.75848 5.58366 6.63566
74 1 -0.642538 1.91516 1.11203 2.81258
75 1 -0.678947 5.10798 1.91473 6.56716
77 1 -0.680812 1.66004 5.71292 5.07288
96 2 -0.00161241 -1.62894 4.61133 8.31029
102 2 0.0295189 1.02557 2.59787 3.05147
107 2 -0.00608094 3.77489 5.68281 1.61388
109 2 -0.00162272 3.42255 6.34366 5.37483
78 1 -0.624118 1.928 6.07271 1.00636
154 2 0.148637 2.7812 6.72497 0.530575
129 2 0.15475 -0.711224 5.59035 7.02046
130 2 0.150891 -1.9888 4.65246 5.85265
142 2 0.14763 2.35529 1.11891 1.73304
143 2 0.187305 1.16089 0.32486 3.06815
144 2 0.0655388 3.3516 0.887519 3.72435
145 2 0.257673 4.75028 0.992029 7.15657
146 2 0.197346 5.15902 1.69255 5.44307
147 2 0.227501 4.44027 2.80994 6.73812
151 2 0.216153 2.43441 5.03944 5.48704
152 2 0.164383 1.47535 5.39007 3.98248
153 2 0.157922 0.674414 5.68997 5.77566
155 2 0.00459051 0.219015 6.16571 0.653166
201 3 -0.78971 -0.278069 1.8685 5.71812
202 3 -0.881301 1.56761 0.908925 7.45958
205 3 -0.864296 0.703066 3.33537 7.7694
219 3 -0.815068 2.3672 2.74736 5.54363
220 3 -0.804871 6.10307 1.01525 1.26305
226 3 -0.82436 3.62924 3.79012 3.37798
156 2 0.160538 2.07863 5.71417 2.05371
29 4 1.26844 7.07728 0.258087 2.28995
80 1 -0.68971 1.78071 6.37952 8.46309
128 2 0.125656 -2.82036 6.046 4.29141
347 2 0.0112135 -2.09452 6.71846 0.996154
162 2 0.158097 1.02934 6.82774 7.70456
14 4 1.1103 1.07575 3.07023 12.8298
106 2 -0.0314159 6.20364 1.34648 11.8731
19 4 1.29367 -0.609192 5.43493 14.0054
33 4 1.30583 3.49884 3.095 9.9134
35 4 1.38535 3.81892 2.40683 16.6576
40 4 1.2913 1.18456 6.35135 10.2519
42 4 1.50061 4.81871 4.39858 14.4226
346 2 -0.0163057 -1.39808 4.44082 16.2529
44 4 1.55469 3.52717 6.43353 12.5555
67 1 -0.691912 1.55966 1.8102 14.1752
76 1 -0.670882 3.93697 0.579226 15.8099
7 4 0.93146 1.12622 2.80919 18.145
10 3 -0.832992 -0.305379 2.46665 17.6652
103 2 0.0890253 2.01989 3.9663 10.0957
104 2 0.110516 2.34841 4.12884 12.3511
110 2 -0.00159911 1.77898 6.06968 17.4313
123 2 0.19121 1.51041 0.793014 13.765
124 2 0.198464 1.05336 1.95824 15.181
125 2 0.16746 2.64763 2.23562 14.2635
221 3 -0.88388 3.19215 1.65809 9.32127
97 2 0.0859098 -2.17839 5.19658 14.6195
150 2 0.151983 3.98839 1.01089 14.7594
207 3 -0.831845 -3.35945 6.76568 16.8641
203 3 -0.830224 0.622975 2.05627 11.6388
169 2 0.153578 6.83752 0.122561 16.2217
206 3 -0.805855 -0.131627 3.99898 13.3981
204 3 -0.844535 -1.17635 2.41557 9.57793
209 3 -0.841058 -0.731493 6.62029 12.9415
345 2 0.093915 0.308744 0.107696 9.87552
223 3 -0.828672 4.88254 2.40779 17.7965
224 3 -0.826822 2.31152 2.38035 17.2454
225 3 -0.862026 4.23938 3.0889 11.3434
231 3 -0.812917 0.534546 4.57046 10.0354
234 3 -0.848925 4.26915 3.42696 15.5871
36 4 0.984508 5.66472 2.93316 12.0349
236 3 -0.860563 0.26949 5.6805 15.2992
238 3 -0.861477 2.409 6.58249 11.2717
239 3 -0.783296 3.25879 4.91657 13.4557
357 2 0.127861 4.60928 0.650895 11.9659
12 4 1.23608 -0.496003 1.43027 10.6642
149 2 0.16964 4.91673 0.0658229 16.1425
177 2 0.175552 -0.304436 0.936284 14.2502
343 2 0.191337 0.467692 0.1382 18.2077
235 3 -0.848664 5.77167 3.46606 13.4854
148 2 0.160725 2.99194 -0.0753287 16.0133
18 4 1.07183 -1.75638 7.43213 5.7318
23 4 1.53313 -3.25134 9.43671 7.84315
25 4 1.25655 -3.9196 12.1556 6.67081
38 4 1.01451 1.24994 7.57652 4.64986
45 4 0.997871 0.824108 7.77507 1.53001
46 4 1.2191 -1.34928 11.8456 4.38166
70 1 -0.681135 -5.40347 12.3835 5.50743
338 2 0.177155 0.248768 11.6431 2.21306
79 1 -0.695128 -1.61616 10.2572 3.46229
323 2 0.201589 -3.86341 8.12427 1.33942
348 2 0.0116785 -4.83439 9.60022 4.27721
113 2 0.00087342 1.67595 8.3484 8.01646
127 2 0.174126 -3.40231 7.89648 3.98551
126 2 0.160011 -1.69003 7.45923 3.2043
132 2 0.178915 -5.28909 12.2814 4.34459
161 2 0.178118 2.78243 6.99562 8.6113
157 2 0.198054 -0.636769 9.69359 3.72466
158 2 0.148944 -1.63513 10.625 2.35195
159 2 0.174259 -2.51207 9.68186 3.79095
108 2 0.00514549 2.57945 8.56836 5.03525
163 2 0.166478 0.523776 9.66484 9.12655
211 3 -0.811325 -2.66537 8.39276 6.56291
213 3 -0.801772 -4.29112 10.3934 7.2376
214 3 -0.820145 -3.86522 13.3573 7.94912
228 3 -0.76971 0.00408748 7.94218 5.54619
240 3 -0.836926 1.06337 7.62238 3.09829
241 3 -0.819376 -1.31594 13.098 3.29658
242 3 -0.747557 -2.67624 11.9612 5.68347
243 3 -0.76977 1.42939 8.93111 0.668302
245 3 -0.822526 -2.12654 10.4228 8.53528
246 3 -0.816909 -0.588015 12.7845 8.77857
247 3 -0.753123 0.204658 11.8849 5.2056
321 1 -0.652294 -2.8086 8.39093 1.12312
322 2 0.170563 -2.35861 8.96052 2.06396
47 4 1.26708 1.59467 10.6844 0.234888
324 1 -0.650068 -5.2556 11.8012 2.35231
182 2 0.250556 -4.35981 8.25477 5.91898
326 2 0.116527 -4.13962 11.4009 2.72727
327 2 0.169908 -5.401 13.0124 2.58069
325 2 0.170145 -5.61175 11.526 1.23066
111 2 0.0140367 -0.977357 8.08726 1.63328
98 2 -0.00266871 -3.93735 11.6584 0.898523
68 1 -0.658175 -2.50467 7.28868 4.0564
133 2 0.193175 -6.15423 11.62 5.86926
210 3 -0.818534 -3.78013 8.42052 9.02391
337 2 0.155587 1.76714 10.5568 2.54734
354 2 0.20076 -5.7183 13.4392 5.77438
17 4 1.52862 -3.85243 7.58175 10.4106
21 4 1.4977 -0.992953 7.74867 11.7234
22 4 0.954105 -3.57643 11.907 17.4862
24 4 1.27756 -6.21506 11.7599 10.5406
26 4 1.29963 -1.34512 10.2108 13.6128
27 4 1.05453 -5.34991 10.8929 15.1364
28 4 1.03804 -3.4644 12.2945 12.3727
352 2 0.092857 -2.55959 9.3233 18.2669
232 3 -0.829411 -0.0179876 7.37386 10.4016
51 4 1.27511 2.65505 8.50244 14.697
52 4 1.22928 -0.499033 11.6184 16.4089
72 1 -0.682524 -2.47952 8.98937 14.4987
81 1 -0.69339 0.448442 10.5085 10.0293
115 2 0.0351522 2.11598 9.78646 13.7249
92 1 -0.684209 -5.96838 12.5475 14.3793
82 1 -0.691296 -2.61224 13.6268 11.3433
356 2 0.146674 -1.53394 13.4907 11.6107
100 2 0.0137781 -3.99408 10.2561 14.2312
101 2 -0.0124824 -4.24382 13.162 13.7035
114 2 0.0583365 -1.21035 11.1576 10.9497
237 3 -0.835725 -0.654056 7.36146 17.0852
137 2 0.178106 -2.77037 9.4711 15.4252
138 2 0.211322 -1.8068 8.11808 14.716
139 2 0.163374 -3.41259 8.6319 13.8561
251 3 -0.880206 3.21106 7.51074 13.6326
49 4 1.13732 -1.00169 11.3353 9.19383
165 2 0.187706 1.40726 11.1137 9.98683
164 2 0.264689 0.215199 10.0041 11.0236
364 2 0.198636 -6.28618 12.536 17.5787
254 3 -0.818083 -2.12839 11.7625 16.9587
191 2 0.215051 -6.12088 12.4912 13.2504
208 3 -0.861436 -2.55673 7.81167 11.3062
212 3 -0.813596 -6.06213 13.0723 9.69245
215 3 -0.80622 -0.533347 9.27928 12.4411
216 3 -0.788835 -4.70061 11.2396 16.6883
217 3 -0.763961 -4.67925 11.7075 11.5309
218 3 -0.836446 -2.36775 11.3321 13.0176
84 1 -0.675461 0.12015 13.3315 16.07
196 2 0.213526 2.60947 9.14628 11.7997
250 3 -0.815507 1.38722 8.04298 15.5039
252 3 -0.755746 -0.398338 10.8332 14.8714
253 3 -0.762316 0.556048 11.0029 17.6328
15 4 1.02316 -2.12903 7.35227 17.7273
190 2 0.158816 -5.3459 13.4627 14.8734
43 4 1.27342 0.69023 6.85576 16.2934
99 2 0.00955647 -4.0195 13.5746 17.5809
358 2 0.23614 -2.77349 13.7088 10.2502
1 4 1.06638 13.6078 1.55284 5.06351
2 1 -0.645011 12.7433 0.752356 6.47855
341 2 0.186099 10.5865 0.864207 3.27046
4 2 0.1256 11.8642 1.69819 6.48909
6 3 -0.772313 13.4127 0.33189 3.74563
59 4 0.91953 9.17572 6.36026 6.17296
34 4 1.29954 6.82429 2.64346 6.78681
39 4 1.53998 5.5404 5.07575 8.48511
318 1 -0.65981 12.8854 3.28995 4.3519
53 4 1.36826 8.52567 2.42248 3.94348
55 4 1.24174 9.45054 4.78044 1.76486
56 4 1.26093 6.55607 6.60925 4.47569
5 2 0.189553 13.5028 0.91276 7.35865
85 1 -0.661143 10.054 1.85189 4.91579
88 1 -0.67201 10.2966 6.29334 2.53849
90 1 -0.67311 10.4677 4.77811 6.03246
266 3 -0.75402 7.78236 6.04229 5.33316
170 2 0.159777 11.0454 2.48179 4.60486
171 2 0.182307 10.3767 0.724629 4.98932
172 2 0.188024 9.64083 2.20871 5.95786
178 2 0.158455 10.3531 6.02395 3.63982
233 3 -0.865844 4.83737 6.25859 7.64482
180 2 0.182887 11.3403 6.17263 2.04189
184 2 0.19696 10.2828 4.41322 4.99455
185 2 0.151351 10.0253 4.04161 6.78043
186 2 0.142596 11.6521 5.09943 6.24299
189 2 0.216297 9.46685 6.50056 8.77493
222 3 -0.82405 7.67162 1.62206 7.73992
230 3 -0.770956 6.66784 4.27107 7.60934
340 2 0.14109 9.95163 0.223925 1.57754
255 3 -0.850102 8.05105 1.264 3.03971
256 3 -0.764485 7.42588 2.7081 5.23334
258 3 -0.789183 9.12814 3.69807 3.07085
259 3 -0.77547 10.8327 4.00764 0.857733
260 3 -0.875742 5.60254 5.6755 3.60048
263 3 -0.807013 8.3042 5.42047 0.880841
319 2 0.170269 12.4591 3.07031 3.33069
313 2 -0.0202365 11.1468 4.56143 7.86138
32 4 1.34376 8.16649 0.200883 8.2521
351 2 0.140909 11.9814 3.83827 5.07732
349 2 0.0487955 12.1942 1.3263 1.52853
339 1 -0.632977 10.8916 0.335333 2.24285
350 2 -0.0161457 10.4345 1.36719 0.645393
187 2 0.222224 7.71842 6.72271 8.203
227 3 -0.806841 5.6354 3.69507 1.76226
334 2 0.243423 7.86324 3.95282 0.0804981
175 2 0.14981 10.5074 0.536165 13.798
20 4 1.22969 10.923 6.08424 15.8556
315 2 0.13529 9.5429 2.9541 11.0799
54 4 1.11265 12.7063 1.06869 12.9782
57 4 1.42859 8.44716 6.31038 17.5797
60 4 0.920149 10.9735 3.51435 13.8026
332 2 0.190223 7.36914 2.89758 16.7605
73 1 -0.650383 9.28533 0.756247 9.74884
331 1 -0.665741 7.65759 2.78836 17.8523
87 1 -0.661723 13.9317 0.288621 14.386
105 2 0.0103637 6.91936 3.66538 11.1517
362 2 0.141495 13.3222 0.500763 15.3796
117 2 -0.0455858 9.84471 2.68318 14.7281
119 2 -0.017305 10.2389 3.90116 12.3503
120 2 -0.00399278 9.71374 6.45266 13.3144
174 2 0.158081 10.5557 0.257093 11.9074
140 2 0.176123 10.2739 0.218432 9.39797
58 4 1.33331 6.20624 6.74115 11.0008
312 2 0.0253124 12.3212 3.41091 10.0211
317 3 -0.83179 11.3581 6.0128 10.077
316 2 0.141016 9.01373 3.73401 9.25685
355 2 0.136269 8.75296 0.253072 10.6167
257 3 -0.782935 13.5817 0.771763 11.6106
262 3 -0.827346 9.51716 5.57299 16.5646
264 3 -0.856011 6.06314 5.74749 9.8149
283 4 0.93717 13.7784 2.82358 16.7123
267 3 -0.806486 12.0587 2.48987 13.4424
268 3 -0.799022 11.5451 4.86787 14.4884
269 3 -0.857388 5.4237 5.77402 15.0611
270 3 -0.827521 6.90896 6.39178 16.9756
272 3 -0.855162 7.67776 6.46538 11.4093
284 2 0.021819 14.0829 2.09917 15.1935
86 1 -0.665937 11.0707 0.0981795 12.8911
265 3 -0.891781 4.99144 6.547 12.0416
310 4 0.743701 11.0832 4.5603 9.65293
311 1 -0.681876 9.53688 3.86712 10.4731
365 3 -0.820052 12.2876 2.5187 17.217
314 2 0.212109 9.07351 4.76762 10.9995
309 2 0.00146092 9.54524 2.89239 17.2811
141 2 0.171206 9.37621 1.9183 9.95614
333 2 0.120925 8.25578 1.82202 18.0993
308 4 0.921442 11.0323 2.69837 18.1723
248 3 -0.84429 2.14062 10.7551 6.96561
273 3 -0.831362 3.39443 9.92228 9.11057
50 4 1.3277 1.58338 12.0501 6.21509
83 1 -0.663186 2.96714 12.5953 5.07323
89 1 -0.684489 9.8949 8.16068 5.51466
41 4 1.27281 4.57572 7.25914 6.47869
121 2 0.013122 7.15298 7.78409 3.29946
48 4 1.24926 2.81511 9.51171 7.67163
166 2 0.173671 2.41994 13.0974 4.22935
167 2 0.150014 3.62872 11.6628 4.67367
3 2 0.158101 4.50833 13.5842 6.72353
181 2 0.140484 9.87869 7.74052 4.44621
179 2 0.237355 9.82445 7.30711 2.4121
183 2 0.186804 9.13763 8.92648 5.80867
306 3 -0.811855 5.85684 12.7028 1.24563
305 3 -0.743165 7.53882 10.4955 0.288736
188 2 0.184689 9.08553 8.03079 7.75911
168 2 0.175307 3.74399 13.4252 5.53662
244 3 -0.860878 3.84445 8.64718 6.79088
335 1 -0.663446 1.27331 11.4908 1.89002
249 3 -0.79991 1.4417 13.347 7.25802
261 3 -0.834626 5.84251 7.58982 5.50768
307 3 -0.762773 7.81259 10.6116 3.93201
285 4 0.967378 9.29724 10.1777 3.16259
361 2 0.0616993 3.5633 12.6673 2.77049
287 4 1.3128 7.95105 8.9671 0.775459
286 4 1.00291 5.12246 13.6106 2.32557
289 4 0.835901 6.35792 10.8983 4.57287
290 1 -0.706881 6.33835 8.27037 1.5149
291 1 -0.675452 4.7536 10.1335 3.8523
292 1 -0.655363 6.40346 11.103 6.54865
293 2 0.0709189 6.19181 12.5006 5.30041
294 2 0.171947 6.47977 7.18808 1.82553
295 2 0.174997 5.51471 8.37448 0.79793
296 2 0.15884 6.11861 8.94327 2.45319
297 2 0.188432 4.06326 10.0417 4.72639
298 2 0.154607 5.10615 9.09588 3.36893
299 2 0.136641 4.58408 11.051 3.09649
300 2 0.1683 7.34335 11.3013 7.14492
301 2 0.192458 6.13453 9.89725 6.57958
302 2 0.155684 5.47355 11.7394 6.9307
336 2 0.144438 1.95874 12.6194 2.04092
304 3 -0.813353 9.09873 9.00478 2.05348
112 2 -0.00644794 0.369484 13.2376 1.21103
329 2 0.184559 7.79901 10.3519 9.13927
91 1 -0.658679 8.81629 6.90115 7.97579
353 2 0.249258 9.59499 10.374 8.45187
328 1 -0.693649 8.91565 10.2871 9.37077
62 4 1.26753 8.81543 7.45084 12.1125
63 4 1.01728 4.09433 10.5301 10.3405
64 4 1.48135 7.45127 9.29731 14.1565
65 4 1.25054 4.3419 10.8191 16.5409
66 4 1.17842 6.42982 11.0338 12.052
71 1 -0.686434 10.229 7.55188 14.8649
303 3 -0.771817 8.81108 7.89964 17.8523
93 1 -0.688738 4.24346 12.4384 10.1836
94 1 -0.700248 3.04531 10.1676 11.9603
95 1 -0.652254 3.85991 12.1143 15.3197
116 2 0.101694 6.14546 8.41956 10.5493
118 2 0.092 4.77753 7.92746 16.4522
122 2 0.0171212 5.3747 12.3748 11.8528
192 2 0.169604 3.51693 12.4186 9.25106
134 2 0.216115 9.09505 7.32922 14.8499
176 2 0.190773 6.43933 13.0884 14.2051
173 2 0.138771 3.61517 12.8373 12.9082
194 2 0.173113 3.86355 13.0346 11.1164
195 2 0.145544 3.77147 10.1445 12.852
342 1 -0.666442 8.02 13.0641 17.5674
197 2 0.152547 2.21527 10.9636 12.1062
198 2 0.154888 3.51974 11.6279 14.3869
199 2 0.175049 4.79512 12.8939 15.0683
200 2 0.1601 3.04224 12.6661 15.9798
360 2 0.164868 0.572472 13.4058 15.0616
271 3 -0.829623 9.90441 7.97496 11.0862
193 2 0.174599 5.26668 12.6984 9.90774
274 3 -0.84512 6.82229 8.0656 15.0247
275 3 -0.891966 8.28393 8.63343 12.9705
276 3 -0.734328 8.70625 10.0887 15.2954
277 3 -0.779018 3.86436 9.14221 15.8124
278 3 -0.748827 5.82599 11.2139 16.9951
279 3 -0.771712 3.28486 10.9813 17.9067
280 3 -0.816855 7.85263 11.7012 11.6694
281 3 -0.789258 5.95281 9.97568 10.8304
282 3 -0.823535 6.40033 10.5121 13.6357
135 2 0.152974 10.6422 7.87862 13.8873
359 2 0.146226 0.892135 13.5253 16.8551
363 2 0.194094 8.26243 12.4853 14.8852
330 2 0.270538 9.23889 9.429 10.0667
344 2 0.191128 7.54446 13.2339 16.5581
288 4 1.27708 6.87169 11.779 18.3023
61 4 1.3805 6.00955 6.97796 15.8273
136 2 0.223266 10.4013 8.35489 15.6424
ITEM: TIMESTEP
200
ITEM: NUMBER OF ATOMS
365
ITEM: BOX BOUNDS xy xz yz pp pp pp
0.0000000000000000e+00 2.3204285200000001e+01 7.5853999999999999e+00
-1.3819999999999999e-01 1.3846299999999999e+01 3.0168519999999965e-01
0.0000000000000000e+00 1.8322199999999999e+01 -1.3819999999999999e-01
ITEM: ATOMS id type q x y z
29 4 1.25406 7.05369 0.133032 2.32628
226 3 -0.809563 3.81978 3.78013 3.44148
229 3 -0.873951 4.26296 3.96225 8.83539
220 3 -0.818764 6.17638 1.14976 1.44798
11 4 1.46814 2.5499 0.372179 8.4341
219 3 -0.822538 2.14635 2.58633 5.53172
202 3 -0.866035 1.43913 0.821626 7.40581
37 4 1.26309 4.87219 4.71207 2.64582
30 4 1.0134 2.70661 2.66252 3.98637
31 4 1.35615 5.93479 2.58495 0.714166
147 2 0.2278 4.29798 3.03686 6.71736
146 2 0.20416 4.97342 1.87044 5.35735