LAMMPS (2 Aug 2023 - Update 2)
OMP_NUM_THREADS environment is not set. Defaulting to 1 thread. (src/comm.cpp:98)
  using 1 OpenMP thread(s) per MPI task
# Initialization
units           real
dimension       3
boundary        p p p
atom_style      full
timestep        0.5   # fs

# Define MD parameters
variable nevery equal 10                  # sampling interval
variable nrepeat equal 10                 # number of samples
variable nthermo equal ${nevery}*${nrepeat}           # interval for thermo output
variable nthermo equal 10*${nrepeat}           
variable nthermo equal 10*10           
variable nfreq equal ${nthermo} # length of one average
variable nfreq equal 100 
# 1 ps : 1e3 fs / 0.5 fs = 2e3 steps
variable nequil equal 30*${nthermo}       # steps of equilibration run 20
variable nequil equal 30*100       
variable nrun equal 30*${nthermo}          # stpes of equilibrated run 20
variable nrun equal 30*100          
variable temp equal 300.0                # temperature of initial sample
variable tdamp equal 50.0                 # time constant for thermostat
variable seed equal 123456                # seed for thermostat
variable ufac equal 1.01325e-4         # pressure unit conversion, from atm to Gpa
variable up equal 0.01                  # the deformation magnitude 2.0e-2

# Read the initial sctructure
# box tilt large
variable structure string 333-RV-32-vasp
read_data       ${structure}.data
read_data       333-RV-32-vasp.data
Reading data file ...
  triclinic box = (0 0 0) to (15.7087 13.0868 17.5248) with tilt (-8.2042 -0.1458 -2.0056)
WARNING: Triclinic box skew is large. LAMMPS will run inefficiently. (src/domain.cpp:220)
  2 by 2 by 2 MPI processor grid
  reading atoms ...
  331 atoms
Finding 1-2 1-3 1-4 neighbors ...
  special bond factors lj:    0        0        0       
  special bond factors coul:  0        0        0       
     0 = max # of 1-2 neighbors
     0 = max # of 1-3 neighbors
     0 = max # of 1-4 neighbors
     1 = max # of special neighbors
  special bonds CPU = 0.001 seconds
  read_data CPU = 0.010 seconds

# Energy minimization
print "*****Minimization starts.*****"
*****Minimization starts.*****
minimize 1.0e-6 1.0e-6 100 1000
WARNING: No pairwise cutoff or binsize set. Atom sorting therefore disabled. (src/atom.cpp:2366)
WARNING: Communication cutoff is 0.0. No ghost atoms will be generated. Atoms may get lost. (src/comm_brick.cpp:210)
Per MPI rank memory allocation (min/avg/max) = 6.365 | 6.365 | 6.365 Mbytes
   Step          Temp          E_pair         E_mol          TotEng         Press     
         0   0              0              0              0              0            
         1   0              0              0              0              0            
Loop time of 9.2173e-05 on 8 procs for 1 steps with 331 atoms

47.7% CPU use with 8 MPI tasks x 1 OpenMP threads

Minimization stats:
  Stopping criterion = search direction is not downhill
  Energy initial, next-to-last, final = 
                     0                  0                  0
  Force two-norm initial, final = 0 0
  Force max component initial, final = 0 0
  Final line search alpha, max atom move = 0 0
  Iterations, force evaluations = 1 0

MPI task timing breakdown:
Section |  min time  |  avg time  |  max time  |%varavg| %total
---------------------------------------------------------------
Pair    | 0          | 0          | 0          |   0.0 |  0.00
Bond    | 1.956e-06  | 2.1391e-06 | 2.584e-06  |   0.0 |  2.32
Neigh   | 0          | 0          | 0          |   0.0 |  0.00
Comm    | 4.469e-06  | 5.5517e-06 | 7.124e-06  |   0.0 |  6.02
Output  | 0          | 0          | 0          |   0.0 |  0.00
Modify  | 0          | 0          | 0          |   0.0 |  0.00
Other   |            | 8.448e-05  |            |       | 91.66

Nlocal:         41.375 ave          44 max          36 min
Histogram: 1 0 0 0 0 1 1 2 2 1
Nghost:              0 ave           0 max           0 min
Histogram: 8 0 0 0 0 0 0 0 0 0
Neighs:              0 ave           0 max           0 min
Histogram: 8 0 0 0 0 0 0 0 0 0

Total # of neighbors = 0
Ave neighs/atom = 0
Ave special neighs/atom = 0
Neighbor list builds = 0
Dangerous builds = 0
min_style cg
# Save the optimized structure
write_data ${structure}_opt.data
write_data 333-RV-32-vasp_opt.data
System init for write_data ...
WARNING: Communication cutoff is 0.0. No ghost atoms will be generated. Atoms may get lost. (src/comm_brick.cpp:210)
velocity        all create ${temp} ${seed} dist gaussian
velocity        all create 300 ${seed} dist gaussian
velocity        all create 300 123456 dist gaussian

# Equilibration
include ff.mod.lmp
# Setup forcefield, system
# undefine any fix ave/* fix before using reset_timestep
if "$(is_defined(fix,avgp))" then "unfix avgp"
reset_timestep 0

# Assign the force field
pair_style reaxff NULL safezone 3.0 mincap 150
# pair_coeff * * CHONSSi.ff O Si
# pair_coeff * * CHOSiNa.ff O Si
# pair_coeff * * SiOCHN_2018.ff O Si
# pair_coeff * * PDMSDecomp.ff Si O
pair_coeff * * CHONSi.ff C H O Si
# pair_coeff * * CHOFe.ff O Si

# charge method for reaxff
fix myqeq all qeq/reaxff 1 0.0 10.0 1.0e-6 reaxff maxiter 400
# Setup neighbor style
neighbor        2 bin
neigh_modify    every 10 delay 0 check no

# Setup output
fix avgp all ave/time  ${nevery} ${nrepeat} ${nfreq} c_thermo_press mode vector
fix avgp all ave/time  10 ${nrepeat} ${nfreq} c_thermo_press mode vector
fix avgp all ave/time  10 10 ${nfreq} c_thermo_press mode vector
fix avgp all ave/time  10 10 100 c_thermo_press mode vector
thermo		${nthermo}
thermo		100
thermo_style custom step temp pe press f_avgp[1] vol
thermo_modify norm no

# NVT
fix 4 all nvt temp ${temp} ${temp} ${tdamp}
fix 4 all nvt temp 300 ${temp} ${tdamp}
fix 4 all nvt temp 300 300 ${tdamp}
fix 4 all nvt temp 300 300 50
thermo_style custom step temp pe press f_avgp[1] density vol
WARNING: New thermo_style command, previous thermo_modify settings will be lost (src/output.cpp:903)
run ${nequil}
run 3000

CITE-CITE-CITE-CITE-CITE-CITE-CITE-CITE-CITE-CITE-CITE-CITE-CITE

Your simulation uses code contributions which should be cited:

- pair reaxff command: doi:10.1016/j.parco.2011.08.005

@Article{Aktulga12,
 author = {H. M. Aktulga and J. C. Fogarty and S. A. Pandit and A. Y. Grama},
 title = {Parallel Reactive Molecular Dynamics: {N}umerical Methods and Algorithmic Techniques},
 journal = {Parallel Computing},
 year =    2012,
 volume =  38,
 number =  {4--5},
 pages =   {245--259}
}

- fix qeq/reaxff command: doi:10.1016/j.parco.2011.08.005

@Article{Aktulga12,
 author = {H. M. Aktulga and J. C. Fogarty and S. A. Pandit and A. Y. Grama},
 title = {Parallel Reactive Molecular Dynamics: {N}umerical Methods and Algorithmic Techniques},
 journal = {Parallel Computing},
 year =    2012,
 volume =  38,
 pages =   {245--259}
}

CITE-CITE-CITE-CITE-CITE-CITE-CITE-CITE-CITE-CITE-CITE-CITE-CITE

WARNING: Fix qeq/reaxff group is not charge neutral, net charge = 27.88 (src/REAXFF/fix_qeq_reaxff.cpp:392)
Neighbor list info ...
  update: every = 10 steps, delay = 0 steps, check = no
  max neighbors/atom: 2000, page size: 100000
  master list distance cutoff = 12
  ghost atom cutoff = 12
  binsize = 6, bins = 5 3 3
  2 neighbor lists, perpetual/occasional/extra = 2 0 0
  (1) pair reaxff, perpetual
      attributes: half, newton off, ghost
      pair build: half/bin/newtoff/ghost
      stencil: full/ghost/bin/3d
      bin: standard
  (2) fix qeq/reaxff, perpetual, copy from (1)
      attributes: half, newton off
      pair build: copy
      stencil: none
      bin: none
Per MPI rank memory allocation (min/avg/max) = 127.6 | 129.1 | 130.3 Mbytes
   Step          Temp          PotEng         Press        f_avgp[1]       Density         Volume    
         0   300           -34729.82       144799.92      0              1.400369       3602.6891    
       100   683.66303     -35479.052     -48952.942      2649.1415      1.400369       3602.6891    
       200   557.24668     -35756.544     -838.30449     -1426.2655      1.400369       3602.6891    
       300   515.08152     -36024.756     -5808.8384     -1610.5125      1.400369       3602.6891    
       400   395.61044     -36139.869      1395.4697      2488.6091      1.400369       3602.6891    
       500   318.9385      -36218.976     -2853.1074     -935.25332      1.400369       3602.6891    
       600   284.58968     -36279.633      5524.3292      880.67851      1.400369       3602.6891    
       700   285.48872     -36328.483      6216.625      -5744.3138      1.400369       3602.6891    
       800   288.55366     -36341.687      2559.8857      1508.4823      1.400369       3602.6891    
       900   322.34913     -36379.972     -4094.4895     -2514.8531      1.400369       3602.6891    
      1000   295.99187     -36379.935     -5670.8963     -4582.1347      1.400369       3602.6891    
      1100   282.57744     -36389.632     -7174.3333     -1402.2137      1.400369       3602.6891    
      1200   297.28283     -36410.028      6527.6548     -115.82856      1.400369       3602.6891    
      1300   303.26915     -36411.976     -7382.3597     -1017.4775      1.400369       3602.6891    
      1400   308.31364     -36403.592      116.35074      950.94889      1.400369       3602.6891    
      1500   315.73557     -36410.382      329.37542     -2442.9785      1.400369       3602.6891    
      1600   299.53601     -36415.528      1486.4851     -2938.1167      1.400369       3602.6891    
      1700   290.05467     -36434.971      1072.1344      2286.3871      1.400369       3602.6891    
      1800   295.7381      -36463.807      6978.3378      915.33617      1.400369       3602.6891    
      1900   285.26095     -36458.835     -12195.951     -9499.8126      1.400369       3602.6891    
      2000   285.14666     -36441.433      6852.6924     -2369.6638      1.400369       3602.6891    
      2100   303.76878     -36433.79      -1863.1267      1486.007       1.400369       3602.6891    
      2200   295.01381     -36416.532      12889.822     -4492.4681      1.400369       3602.6891    
      2300   321.788       -36454.543     -2963.6295     -7694.306       1.400369       3602.6891    
      2400   282.77026     -36453.697     -9688.1937     -5454.1243      1.400369       3602.6891    
      2500   271.13023     -36470.617     -2297.1504     -1883.3854      1.400369       3602.6891    
      2600   293.87403     -36495.424     -8256.1311     -4002.318       1.400369       3602.6891    
      2700   311.72014     -36493         -15391.179     -8971.5324      1.400369       3602.6891    
      2800   312.48503     -36475.447      13835.569      2705.4925      1.400369       3602.6891    
      2900   314.4891      -36475.978     -10566.912     -1138.9972      1.400369       3602.6891    
      3000   288.05611     -36468.165     -16904.071     -10452.415      1.400369       3602.6891    
Loop time of 143.51 on 8 procs for 3000 steps with 331 atoms

Performance: 0.903 ns/day, 26.576 hours/ns, 20.905 timesteps/s, 6.919 katom-step/s
98.8% CPU use with 8 MPI tasks x 1 OpenMP threads

MPI task timing breakdown:
Section |  min time  |  avg time  |  max time  |%varavg| %total
---------------------------------------------------------------
Pair    | 85.04      | 106.55     | 120.02     | 118.5 | 74.25
Bond    | 0.0083753  | 0.0092678  | 0.010111   |   0.6 |  0.01
Neigh   | 6.6345     | 8.5406     | 9.5884     |  33.5 |  5.95
Comm    | 1.9756     | 15.456     | 36.949     | 311.1 | 10.77
Output  | 0.001588   | 0.0017623  | 0.0026124  |   0.8 |  0.00
Modify  | 11.801     | 12.88      | 14.808     |  27.5 |  8.97
Other   |            | 0.0726     |            |       |  0.05

Nlocal:         41.375 ave          51 max          33 min
Histogram: 1 0 2 1 0 1 2 0 0 1
Nghost:        3256.12 ave        3290 max        3215 min
Histogram: 1 1 0 1 0 1 1 0 2 1
Neighs:        26627.4 ave       32490 max       21396 min
Histogram: 1 0 1 1 1 1 2 0 0 1

Total # of neighbors = 213019
Ave neighs/atom = 643.56193
Ave special neighs/atom = 0
Neighbor list builds = 300
Dangerous builds not checked
# Save the optimized structure
write_data ${structure}_opt.data
write_data 333-RV-32-vasp_opt.data
System init for write_data ...

# Save initial pressure, box size
variable pxx0 equal f_avgp[1]
variable pyy0 equal f_avgp[2]
variable pzz0 equal f_avgp[3]
variable pxy0 equal f_avgp[4]
variable pxz0 equal f_avgp[5]
variable pyz0 equal f_avgp[6]

# use tmp to save initial box length
variable tmp equal lx
variable lx0 equal ${tmp}
variable lx0 equal 15.7087
variable tmp equal ly
variable ly0 equal ${tmp}
variable ly0 equal 13.0868
variable tmp equal lz
variable lz0 equal ${tmp}
variable lz0 equal 17.5248

# define the derivatives, w.r.t. strain tensor
# Constants uses $, variables use v_
variable d1 equal -(v_pxx1-${pxx0})/(v_delta/v_len0)*${ufac}
variable d1 equal -(v_pxx1--10452.4146932493)/(v_delta/v_len0)*${ufac}
variable d1 equal -(v_pxx1--10452.4146932493)/(v_delta/v_len0)*0.000101325
variable d2 equal -(v_pyy1-${pyy0})/(v_delta/v_len0)*${ufac}
variable d2 equal -(v_pyy1--7207.27794192157)/(v_delta/v_len0)*${ufac}
variable d2 equal -(v_pyy1--7207.27794192157)/(v_delta/v_len0)*0.000101325
variable d3 equal -(v_pzz1-${pzz0})/(v_delta/v_len0)*${ufac}
variable d3 equal -(v_pzz1--12245.6654979482)/(v_delta/v_len0)*${ufac}
variable d3 equal -(v_pzz1--12245.6654979482)/(v_delta/v_len0)*0.000101325
variable d4 equal -(v_pyz1-${pyz0})/(v_delta/v_len0)*${ufac}*0.5
variable d4 equal -(v_pyz1--1226.21484142822)/(v_delta/v_len0)*${ufac}*0.5
variable d4 equal -(v_pyz1--1226.21484142822)/(v_delta/v_len0)*0.000101325*0.5
variable d5 equal -(v_pxz1-${pxz0})/(v_delta/v_len0)*${ufac}*0.5
variable d5 equal -(v_pxz1-1111.67744912196)/(v_delta/v_len0)*${ufac}*0.5
variable d5 equal -(v_pxz1-1111.67744912196)/(v_delta/v_len0)*0.000101325*0.5
variable d6 equal -(v_pxy1-${pxy0})/(v_delta/v_len0)*${ufac}*0.5
variable d6 equal -(v_pxy1-1382.04204208308)/(v_delta/v_len0)*${ufac}*0.5
variable d6 equal -(v_pxy1-1382.04204208308)/(v_delta/v_len0)*0.000101325*0.5

# Write restart
write_restart equil.res
System init for write_restart ...

# dir: direction
# uxx Perturbation
variable dir equal 1
include displace.mod.lmp
# Find which reference length to use
if "${dir} == 1" then    "variable len0 equal ${lx0}"
variable len0 equal ${lx0}
variable len0 equal 15.7087
if "${dir} == 2" then    "variable len0 equal ${ly0}"
if "${dir} == 3" then    "variable len0 equal ${lz0}"
if "${dir} == 4" then    "variable len0 equal ${lz0}"
if "${dir} == 5" then    "variable len0 equal ${lz0}"
if "${dir} == 6" then    "variable len0 equal ${ly0}"

# Reset box and simulation parameters
clear
OMP_NUM_THREADS environment is not set. Defaulting to 1 thread. (src/comm.cpp:98)
  using 1 OpenMP thread(s) per MPI task
# box tilt large
read_restart equil.res
Reading restart file ...
  restart file = 2 Aug 2023, LAMMPS = 2 Aug 2023
  restoring atom style full from restart
  triclinic box = (0 0 0) to (15.7087 13.0868 17.5248) with tilt (-8.2042 -0.1458 -2.0056)
WARNING: Triclinic box skew is large. LAMMPS will run inefficiently. (src/domain.cpp:220)
  2 by 2 by 2 MPI processor grid
  pair style reaxff stores no restart info
  331 atoms
Finding 1-2 1-3 1-4 neighbors ...
  special bond factors lj:    0        0        0       
  special bond factors coul:  0        0        0       
     0 = max # of 1-2 neighbors
     0 = max # of 1-3 neighbors
     0 = max # of 1-4 neighbors
     1 = max # of special neighbors
  special bonds CPU = 0.000 seconds
  read_restart CPU = 0.003 seconds
print "*****Negative-change ${dir} starts.*****"
*****Negative-change 1 starts.*****
include ff.mod.lmp
# Setup forcefield, system
# undefine any fix ave/* fix before using reset_timestep
if "$(is_defined(fix,avgp))" then "unfix avgp"
reset_timestep 0

# Assign the force field
pair_style reaxff NULL safezone 3.0 mincap 150
# pair_coeff * * CHONSSi.ff O Si
# pair_coeff * * CHOSiNa.ff O Si
# pair_coeff * * SiOCHN_2018.ff O Si
# pair_coeff * * PDMSDecomp.ff Si O
pair_coeff * * CHONSi.ff C H O Si
# pair_coeff * * CHOFe.ff O Si

# charge method for reaxff
fix myqeq all qeq/reaxff 1 0.0 10.0 1.0e-6 reaxff maxiter 400
# Setup neighbor style
neighbor        2 bin
neigh_modify    every 10 delay 0 check no

# Setup output
fix avgp all ave/time  ${nevery} ${nrepeat} ${nfreq} c_thermo_press mode vector
fix avgp all ave/time  10 ${nrepeat} ${nfreq} c_thermo_press mode vector
fix avgp all ave/time  10 10 ${nfreq} c_thermo_press mode vector
fix avgp all ave/time  10 10 100 c_thermo_press mode vector
thermo		${nthermo}
thermo		100
thermo_style custom step temp pe press f_avgp[1] vol
thermo_modify norm no

# NVT
fix 4 all nvt temp ${temp} ${temp} ${tdamp}
fix 4 all nvt temp 300 ${temp} ${tdamp}
fix 4 all nvt temp 300 300 ${tdamp}
fix 4 all nvt temp 300 300 50
Resetting global fix info from restart file:
  fix style: nvt, fix ID: 4

# Negative deformation
variable delta equal -${up}*${len0}
variable delta equal -0.01*${len0}
variable delta equal -0.01*15.7087
variable deltaxy equal -${up}*xy
variable deltaxy equal -0.01*xy
variable deltaxz equal -${up}*xz
variable deltaxz equal -0.01*xz
variable deltayz equal -${up}*yz
variable deltayz equal -0.01*yz
if "${dir} == 1" then    "change_box all x delta 0 ${delta} xy delta ${deltaxy} xz delta ${deltaxz} remap units box"
change_box all x delta 0 ${delta} xy delta ${deltaxy} xz delta ${deltaxz} remap units box
change_box all x delta 0 -0.157087 xy delta ${deltaxy} xz delta ${deltaxz} remap units box
change_box all x delta 0 -0.157087 xy delta 0.082042 xz delta ${deltaxz} remap units box
change_box all x delta 0 -0.157087 xy delta 0.082042 xz delta 0.001458 remap units box
Changing box ...
WARNING: Triclinic box skew is large. LAMMPS will run inefficiently. (src/domain.cpp:220)
  triclinic box = (0 0 0) to (15.551613 13.0868 17.5248) with tilt (-8.2042 -0.1458 -2.0056)
WARNING: Triclinic box skew is large. LAMMPS will run inefficiently. (src/domain.cpp:220)
  triclinic box = (0 0 0) to (15.551613 13.0868 17.5248) with tilt (-8.122158 -0.1458 -2.0056)
WARNING: Triclinic box skew is large. LAMMPS will run inefficiently. (src/domain.cpp:220)
  triclinic box = (0 0 0) to (15.551613 13.0868 17.5248) with tilt (-8.122158 -0.144342 -2.0056)
if "${dir} == 2" then    "change_box all y delta 0 ${delta} yz delta ${deltayz} remap units box"
if "${dir} == 3" then    "change_box all z delta 0 ${delta} remap units box"
if "${dir} == 4" then    "change_box all yz delta ${delta} remap units box"
if "${dir} == 5" then    "change_box all xz delta ${delta} remap units box"
if "${dir} == 6" then    "change_box all xy delta ${delta} remap units box"

# Run MD for Negative deformation
# save trajectory
dump dump_neg${dir} all custom ${nthermo} dump/neg_deform${dir}.lammpstrj id type x y z
dump dump_neg1 all custom ${nthermo} dump/neg_deform${dir}.lammpstrj id type x y z
dump dump_neg1 all custom 100 dump/neg_deform${dir}.lammpstrj id type x y z
dump dump_neg1 all custom 100 dump/neg_deform1.lammpstrj id type x y z
run ${nrun}
run 3000
All restart file global fix info was re-assigned
Neighbor list info ...
  update: every = 10 steps, delay = 0 steps, check = no
  max neighbors/atom: 2000, page size: 100000
  master list distance cutoff = 12
  ghost atom cutoff = 12
  binsize = 6, bins = 4 3 3
  2 neighbor lists, perpetual/occasional/extra = 2 0 0
  (1) pair reaxff, perpetual
      attributes: half, newton off, ghost
      pair build: half/bin/newtoff/ghost
      stencil: full/ghost/bin/3d
      bin: standard
  (2) fix qeq/reaxff, perpetual, copy from (1)
      attributes: half, newton off
      pair build: copy
      stencil: none
      bin: none
Per MPI rank memory allocation (min/avg/max) = 125.8 | 127.5 | 129 Mbytes
   Step          Temp          PotEng         Press        f_avgp[1]        Volume    
         0   288.05611     -36468.349      21597.905      0              3566.6622    
       100   304.0535      -36506.069     -11276.387     -1747.954       3566.6622    
       200   273.2311      -36494.233      8122.2181      3668.0107      3566.6622    
       300   304.23505     -36522.591     -11631.013     -3386.4141      3566.6622    
       400   297.57886     -36507.928     -3475.9288      2429.0049      3566.6622    
       500   278.84511     -36478.692     -8638.2827      1331.5887      3566.6622    
       600   314.71424     -36500.122      6862.874      -984.07966      3566.6622    
       700   314.65699     -36501.849     -218.38007      702.55242      3566.6622    
       800   302.1257      -36516.451     -4377.0603      3764.5492      3566.6622    
       900   279.61537     -36518.471      942.60262      4153.5693      3566.6622    
      1000   281.23642     -36529.848      693.56551     -414.50243      3566.6622    
      1100   269.79435     -36508.64      -3480.9148      1592.7543      3566.6622    
      1200   304.98835     -36515.217      3526.4507      584.59574      3566.6622    
      1300   314.52849     -36507.731      12384.838      3011.4985      3566.6622    
      1400   332.41737     -36528.835      5213.9295      2088.526       3566.6622    
      1500   287.71623     -36513.179     -4768.6226      4369.466       3566.6622    
      1600   287.98821     -36527.874     -12778.684      3727.8929      3566.6622    
      1700   297.50423     -36539.28       5740.8665      2401.4747      3566.6622    
      1800   276.35012     -36504.611      6532.884       1364.8908      3566.6622    
      1900   302.8753      -36502.846      3112.1152      6317.7855      3566.6622    
      2000   305.98119     -36504.341     -940.05172      2904.6875      3566.6622    
      2100   300.2121      -36510.095      2302.4202      1030.1806      3566.6622    
      2200   295.69457     -36539.204     -9273.5351     -4006.4574      3566.6622    
      2300   288.9414      -36546.893      165.45388     -875.31236      3566.6622    
      2400   307.44846     -36548.629     -2476.8534      3009.4773      3566.6622    
      2500   289.31596     -36512.891     -2005.8543     -2012.6073      3566.6622    
      2600   299.62638     -36508.145      2662.0963      387.24603      3566.6622    
      2700   304.53621     -36504.968      6895.76        7999.033       3566.6622    
      2800   313.21311     -36525.956      1013.5918      3760.0854      3566.6622    
      2900   290.64858     -36540.759     -2897.1832      760.3329       3566.6622    
      3000   283.28794     -36533.467     -984.26981      7271.3408      3566.6622    
Loop time of 149.9 on 8 procs for 3000 steps with 331 atoms

Performance: 0.865 ns/day, 27.759 hours/ns, 20.013 timesteps/s, 6.624 katom-step/s
98.8% CPU use with 8 MPI tasks x 1 OpenMP threads

MPI task timing breakdown:
Section |  min time  |  avg time  |  max time  |%varavg| %total
---------------------------------------------------------------
Pair    | 81.644     | 113.86     | 124.03     | 121.2 | 75.96
Bond    | 0.0081911  | 0.0091099  | 0.010426   |   0.7 |  0.01
Neigh   | 7.5036     | 10.272     | 11.246     |  35.3 |  6.85
Comm    | 1.952      | 12.139     | 44.372     | 371.6 |  8.10
Output  | 0.0069644  | 0.0084991  | 0.0098569  |   1.2 |  0.01
Modify  | 12.523     | 13.536     | 16.302     |  30.8 |  9.03
Other   |            | 0.074      |            |       |  0.05

Nlocal:         41.375 ave          48 max          33 min
Histogram: 1 0 2 0 0 0 1 1 2 1
Nghost:        3273.62 ave        3316 max        3243 min
Histogram: 3 0 0 1 1 0 1 0 1 1
Neighs:        26931.5 ave       30940 max       21767 min
Histogram: 1 0 2 0 0 0 1 2 1 1

Total # of neighbors = 215452
Ave neighs/atom = 650.91239
Ave special neighs/atom = 0
Neighbor list builds = 300
Dangerous builds not checked
undump dump_neg${dir}
undump dump_neg1

# Run equilibration
print "*****Equilibration neg${dir} starts.*****"
*****Equilibration neg1 starts.*****
include ff.mod.lmp
# Setup forcefield, system
# undefine any fix ave/* fix before using reset_timestep
if "$(is_defined(fix,avgp))" then "unfix avgp"
unfix avgp
reset_timestep 0

# Assign the force field
pair_style reaxff NULL safezone 3.0 mincap 150
# pair_coeff * * CHONSSi.ff O Si
# pair_coeff * * CHOSiNa.ff O Si
# pair_coeff * * SiOCHN_2018.ff O Si
# pair_coeff * * PDMSDecomp.ff Si O
pair_coeff * * CHONSi.ff C H O Si
# pair_coeff * * CHOFe.ff O Si

# charge method for reaxff
fix myqeq all qeq/reaxff 1 0.0 10.0 1.0e-6 reaxff maxiter 400
# Setup neighbor style
neighbor        2 bin
neigh_modify    every 10 delay 0 check no

# Setup output
fix avgp all ave/time  ${nevery} ${nrepeat} ${nfreq} c_thermo_press mode vector
fix avgp all ave/time  10 ${nrepeat} ${nfreq} c_thermo_press mode vector
fix avgp all ave/time  10 10 ${nfreq} c_thermo_press mode vector
fix avgp all ave/time  10 10 100 c_thermo_press mode vector
thermo		${nthermo}
thermo		100
thermo_style custom step temp pe press f_avgp[1] vol
WARNING: New thermo_style command, previous thermo_modify settings will be lost (src/output.cpp:903)
thermo_modify norm no

# NVT
fix 4 all nvt temp ${temp} ${temp} ${tdamp}
fix 4 all nvt temp 300 ${temp} ${tdamp}
fix 4 all nvt temp 300 300 ${tdamp}
fix 4 all nvt temp 300 300 50
run ${nequil}
run 3000
Neighbor list info ...
  update: every = 10 steps, delay = 0 steps, check = no
  max neighbors/atom: 2000, page size: 100000
  master list distance cutoff = 12
  ghost atom cutoff = 12
  binsize = 6, bins = 4 3 3
  2 neighbor lists, perpetual/occasional/extra = 2 0 0
  (1) pair reaxff, perpetual
      attributes: half, newton off, ghost
      pair build: half/bin/newtoff/ghost
      stencil: full/ghost/bin/3d
      bin: standard
  (2) fix qeq/reaxff, perpetual, copy from (1)
      attributes: half, newton off
      pair build: copy
      stencil: none
      bin: none
Per MPI rank memory allocation (min/avg/max) = 126.3 | 127.6 | 129.1 Mbytes
   Step          Temp          PotEng         Press        f_avgp[1]        Volume    
         0   283.28794     -36533.467     -984.29605      0              3566.6622    
       100   294.46519     -36525.507      14721.652     -12.376252      3566.6622    
       200   320.02206     -36530.647     -4271.3157      4086.2794      3566.6622    
       300   305.97421     -36524.906     -4577.8238      4821.2035      3566.6622    
       400   291.10768     -36517.552      357.90151     -2499.6249      3566.6622    
       500   292.46991     -36525.811     -2296.4903     -565.74871      3566.6622    
       600   293.69516     -36538.961      6767.7871      696.2374       3566.6622    
       700   290.80577     -36531.296     -9876.5982      5312.6332      3566.6622    
       800   301.80329     -36512.586     -1608.3208     -378.84514      3566.6622    
       900   300.74535     -36500.485      2597.715      -692.37395      3566.6622    
      1000   335.59263     -36543.623     -14007.869      2728.8708      3566.6622    
      1100   289.46242     -36528.482      1121.0246     -2036.1618      3566.6622    
      1200   282.12615     -36521.308     -2604.6931      1157.3511      3566.6622    
      1300   302.68606     -36529.44       9954.5943      3406.5999      3566.6622    
      1400   307.67634     -36519.654     -1217.0514      837.06672      3566.6622    
      1500   294.5194      -36489.585     -2148.5027      6196.9761      3566.6622    
      1600   333.74122     -36499.382      2581.4741      1591.5313      3566.6622    
      1700   318.83373     -36485.773     -8385.4444      3388.547       3566.6622    
      1800   291.10288     -36503.925     -312.75733     -1017.0621      3566.6622    
      1900   313.39116     -36533.655      574.35783      9844.2029      3566.6622    
      2000   292.75199     -36521.631     -1176.428       2999.8474      3566.6622    
      2100   292.51456     -36526.219     -9225.0253      911.17606      3566.6622    
      2200   285.60136     -36507.603      5695.0504      4081.1694      3566.6622    
      2300   336.35144     -36528.833      4044.0679      3930.9866      3566.6622    
      2400   329.31491     -36518.72       12773.759      1932.2367      3566.6622    
      2500   296.97944     -36517.198     -2012.0677     -2501.3569      3566.6622    
      2600   291.88492     -36520.833      2232.687       2891.7693      3566.6622    
      2700   306.57963     -36536.422      587.35065      777.05372      3566.6622    
      2800   295.19695     -36533.331     -7098.1451     -4541.926       3566.6622    
      2900   298.76989     -36557.361     -2578.1245      4152.4793      3566.6622    
      3000   310.85247     -36598.873     -5092.9384      8648.5761      3566.6622    
Loop time of 150.279 on 8 procs for 3000 steps with 331 atoms

Performance: 0.862 ns/day, 27.829 hours/ns, 19.963 timesteps/s, 6.608 katom-step/s
98.9% CPU use with 8 MPI tasks x 1 OpenMP threads

MPI task timing breakdown:
Section |  min time  |  avg time  |  max time  |%varavg| %total
---------------------------------------------------------------
Pair    | 82.754     | 111.95     | 124.04     | 136.5 | 74.49
Bond    | 0.0081024  | 0.0091489  | 0.010859   |   0.8 |  0.01
Neigh   | 7.5292     | 10.077     | 11.172     |  40.0 |  6.71
Comm    | 2.0759     | 14.217     | 43.421     | 383.4 |  9.46
Output  | 0.0013129  | 0.0016965  | 0.0034877  |   1.7 |  0.00
Modify  | 12.808     | 13.953     | 16.503     |  34.1 |  9.28
Other   |            | 0.07427    |            |       |  0.05

Nlocal:         41.375 ave          48 max          34 min
Histogram: 2 0 1 0 1 0 0 2 0 2
Nghost:           3247 ave        3293 max        3202 min
Histogram: 1 0 1 3 0 0 1 0 0 2
Neighs:        26913.2 ave       30883 max       22405 min
Histogram: 2 0 1 0 1 0 0 2 0 2

Total # of neighbors = 215306
Ave neighs/atom = 650.4713
Ave special neighs/atom = 0
Neighbor list builds = 300
Dangerous builds not checked

# Obtain new stress tensor Negative deformation, convert index from LAMMPS to Voigt
variable pxx1 equal f_avgp[1]
variable pyy1 equal f_avgp[2]
variable pzz1 equal f_avgp[3]
variable pxy1 equal f_avgp[4]
variable pxz1 equal f_avgp[5]
variable pyz1 equal f_avgp[6]

# Compute elastic constant from pressure
# d1 = -[pxx1-pxx0]/[(]v_delta/v_len0] defined in input script
variable C1neg equal ${d1}
variable C1neg equal 193.540788963084
variable C2neg equal ${d2}
variable C2neg equal 45.6373072773481
variable C3neg equal ${d3}
variable C3neg equal 85.287619940919
variable C4neg equal ${d4}
variable C4neg equal 9.18499294826031
variable C5neg equal ${d5}
variable C5neg equal 10.6381419988149
variable C6neg equal ${d6}
variable C6neg equal -8.3105295404284

# Reset box and simulation parameters
clear
OMP_NUM_THREADS environment is not set. Defaulting to 1 thread. (src/comm.cpp:98)
  using 1 OpenMP thread(s) per MPI task
# box tilt large
read_restart equil.res
Reading restart file ...
  restart file = 2 Aug 2023, LAMMPS = 2 Aug 2023
  restoring atom style full from restart
  triclinic box = (0 0 0) to (15.7087 13.0868 17.5248) with tilt (-8.2042 -0.1458 -2.0056)
WARNING: Triclinic box skew is large. LAMMPS will run inefficiently. (src/domain.cpp:220)
  2 by 2 by 2 MPI processor grid
  pair style reaxff stores no restart info
  331 atoms
Finding 1-2 1-3 1-4 neighbors ...
  special bond factors lj:    0        0        0       
  special bond factors coul:  0        0        0       
     0 = max # of 1-2 neighbors
     0 = max # of 1-3 neighbors
     0 = max # of 1-4 neighbors
     1 = max # of special neighbors
  special bonds CPU = 0.000 seconds
  read_restart CPU = 0.003 seconds
print "*****Positive-change ${dir} starts.*****"
*****Positive-change 1 starts.*****
include ff.mod.lmp
# Setup forcefield, system
# undefine any fix ave/* fix before using reset_timestep
if "$(is_defined(fix,avgp))" then "unfix avgp"
reset_timestep 0

# Assign the force field
pair_style reaxff NULL safezone 3.0 mincap 150
# pair_coeff * * CHONSSi.ff O Si
# pair_coeff * * CHOSiNa.ff O Si
# pair_coeff * * SiOCHN_2018.ff O Si
# pair_coeff * * PDMSDecomp.ff Si O
pair_coeff * * CHONSi.ff C H O Si
# pair_coeff * * CHOFe.ff O Si

# charge method for reaxff
fix myqeq all qeq/reaxff 1 0.0 10.0 1.0e-6 reaxff maxiter 400
# Setup neighbor style
neighbor        2 bin
neigh_modify    every 10 delay 0 check no

# Setup output
fix avgp all ave/time  ${nevery} ${nrepeat} ${nfreq} c_thermo_press mode vector
fix avgp all ave/time  10 ${nrepeat} ${nfreq} c_thermo_press mode vector
fix avgp all ave/time  10 10 ${nfreq} c_thermo_press mode vector
fix avgp all ave/time  10 10 100 c_thermo_press mode vector
thermo		${nthermo}
thermo		100
thermo_style custom step temp pe press f_avgp[1] vol
thermo_modify norm no

# NVT
fix 4 all nvt temp ${temp} ${temp} ${tdamp}
fix 4 all nvt temp 300 ${temp} ${tdamp}
fix 4 all nvt temp 300 300 ${tdamp}
fix 4 all nvt temp 300 300 50
Resetting global fix info from restart file:
  fix style: nvt, fix ID: 4

# Positive deformation
variable delta equal ${up}*${len0}
variable delta equal 0.01*${len0}
variable delta equal 0.01*15.7087
variable deltaxy equal ${up}*xy
variable deltaxy equal 0.01*xy
variable deltaxz equal ${up}*xz
variable deltaxz equal 0.01*xz
variable deltayz equal ${up}*yz
variable deltayz equal 0.01*yz
if "${dir} == 1" then    "change_box all x delta 0 ${delta} xy delta ${deltaxy} xz delta ${deltaxz} remap units box"
change_box all x delta 0 ${delta} xy delta ${deltaxy} xz delta ${deltaxz} remap units box
change_box all x delta 0 0.157087 xy delta ${deltaxy} xz delta ${deltaxz} remap units box
change_box all x delta 0 0.157087 xy delta -0.082042 xz delta ${deltaxz} remap units box
change_box all x delta 0 0.157087 xy delta -0.082042 xz delta -0.001458 remap units box
Changing box ...
WARNING: Triclinic box skew is large. LAMMPS will run inefficiently. (src/domain.cpp:220)
  triclinic box = (0 0 0) to (15.865787 13.0868 17.5248) with tilt (-8.2042 -0.1458 -2.0056)
WARNING: Triclinic box skew is large. LAMMPS will run inefficiently. (src/domain.cpp:220)
  triclinic box = (0 0 0) to (15.865787 13.0868 17.5248) with tilt (-8.286242 -0.1458 -2.0056)
WARNING: Triclinic box skew is large. LAMMPS will run inefficiently. (src/domain.cpp:220)
  triclinic box = (0 0 0) to (15.865787 13.0868 17.5248) with tilt (-8.286242 -0.147258 -2.0056)
if "${dir} == 2" then    "change_box all y delta 0 ${delta} yz delta ${deltayz} remap units box"
if "${dir} == 3" then    "change_box all z delta 0 ${delta} remap units box"
if "${dir} == 4" then    "change_box all yz delta ${delta} remap units box"
if "${dir} == 5" then    "change_box all xz delta ${delta} remap units box"
if "${dir} == 6" then    "change_box all xy delta ${delta} remap units box"

# Run positive deformation MD
# save trajectory
dump dump_pos${dir} all custom ${nthermo} dump/pos_deform${dir}.lammpstrj id type x y z
dump dump_pos1 all custom ${nthermo} dump/pos_deform${dir}.lammpstrj id type x y z
dump dump_pos1 all custom 100 dump/pos_deform${dir}.lammpstrj id type x y z
dump dump_pos1 all custom 100 dump/pos_deform1.lammpstrj id type x y z
run ${nrun}
run 3000
All restart file global fix info was re-assigned
Neighbor list info ...
  update: every = 10 steps, delay = 0 steps, check = no
  max neighbors/atom: 2000, page size: 100000
  master list distance cutoff = 12
  ghost atom cutoff = 12
  binsize = 6, bins = 5 3 3
  2 neighbor lists, perpetual/occasional/extra = 2 0 0
  (1) pair reaxff, perpetual
      attributes: half, newton off, ghost
      pair build: half/bin/newtoff/ghost
      stencil: full/ghost/bin/3d
      bin: standard
  (2) fix qeq/reaxff, perpetual, copy from (1)
      attributes: half, newton off
      pair build: copy
      stencil: none
      bin: none
Per MPI rank memory allocation (min/avg/max) = 123.8 | 125.2 | 126.3 Mbytes
   Step          Temp          PotEng         Press        f_avgp[1]        Volume    
         0   288.05611     -36438.935     -51549.69       0              3638.716     
       100   303.65119     -36485.088     -15910.86      -10730.316      3638.716     
       200   278.99549     -36491.524     -1015.3716      2355.6613      3638.716     
       300   285.45071     -36501.685     -7687.4323     -5375.2346      3638.716     
       400   307.03907     -36516.468     -5836.7421     -4190.4627      3638.716     
       500   298.17709     -36495.507     -3159.3076     -2390.4292      3638.716     
       600   319.02624     -36497.461     -11003.209     -3865.9763      3638.716     
       700   288.42072     -36456.552     -8971.1761     -7444.6546      3638.716     
       800   295.89621     -36463.22       11241.329     -5327.1775      3638.716     
       900   296.70024     -36481.888     -1667.7852     -2069.6357      3638.716     
      1000   306.57098     -36515.827      2569.1041      459.11165      3638.716     
      1100   292.40307     -36520.665      14942.288      4950.085       3638.716     
      1200   300.84888     -36533.25       5120.0178     -1169.1012      3638.716     
      1300   307.01202     -36537.841     -18051.064     -5526.6833      3638.716     
      1400   300.37405     -36526.607      349.11363     -4546.4534      3638.716     
      1500   307.2874      -36517.726      2010.7094     -2698.5993      3638.716     
      1600   301.47627     -36504.456      7419.1319     -5067.5013      3638.716     
      1700   314.38309     -36524.217     -13505.639     -2321.1484      3638.716     
      1800   282.52737     -36515.683     -7673.0903     -6773.2264      3638.716     
      1900   293.68387     -36535.959      728.54207     -1931.6196      3638.716     
      2000   302.33772     -36540.692     -8222.9681     -5456.7684      3638.716     
      2100   296.38198     -36498.293     -7222.9746      1068.379       3638.716     
      2200   317.60103     -36509.821     -1016.9506     -1547.7152      3638.716     
      2300   287.90918     -36507.214     -3256.623      -2401.9465      3638.716     
      2400   297.91164     -36533.254     -4572.6942     -1660.4942      3638.716     
      2500   288.6167      -36519.233      765.99571      2479.3525      3638.716     
      2600   296.85426     -36511.904     -3243.6296     -70.565381      3638.716     
      2700   295.83701     -36496.078      12426.255     -4802.8937      3638.716     
      2800   319.64987     -36489.829     -4507.6765      293.0278       3638.716     
      2900   311.26582     -36495.641      1295.7468     -6781.8433      3638.716     
      3000   302.4552      -36516.294      5336.1439      3300.1441      3638.716     
Loop time of 143.118 on 8 procs for 3000 steps with 331 atoms

Performance: 0.906 ns/day, 26.503 hours/ns, 20.962 timesteps/s, 6.938 katom-step/s
98.8% CPU use with 8 MPI tasks x 1 OpenMP threads

MPI task timing breakdown:
Section |  min time  |  avg time  |  max time  |%varavg| %total
---------------------------------------------------------------
Pair    | 87.457     | 107.34     | 119.42     | 116.5 | 75.00
Bond    | 0.0082974  | 0.0093106  | 0.01057    |   0.8 |  0.01
Neigh   | 7.0929     | 8.5562     | 9.5704     |  32.6 |  5.98
Comm    | 1.9467     | 14.042     | 33.939     | 322.5 |  9.81
Output  | 0.0067284  | 0.0085657  | 0.010576   |   1.5 |  0.01
Modify  | 12.03      | 13.085     | 14.544     |  26.5 |  9.14
Other   |            | 0.07466    |            |       |  0.05

Nlocal:         41.375 ave          48 max          35 min
Histogram: 2 0 0 2 0 0 2 0 1 1
Nghost:        3222.75 ave        3246 max        3191 min
Histogram: 1 0 0 2 1 0 1 0 1 2
Neighs:        26352.8 ave       30420 max       22522 min
Histogram: 2 0 0 2 0 0 2 0 1 1

Total # of neighbors = 210822
Ave neighs/atom = 636.92447
Ave special neighs/atom = 0
Neighbor list builds = 300
Dangerous builds not checked
undump dump_pos${dir}
undump dump_pos1

# Run equilibration
print "*****Equilibration pos${dir} starts.*****"
*****Equilibration pos1 starts.*****
include ff.mod.lmp
# Setup forcefield, system
# undefine any fix ave/* fix before using reset_timestep
if "$(is_defined(fix,avgp))" then "unfix avgp"
unfix avgp
reset_timestep 0

# Assign the force field
pair_style reaxff NULL safezone 3.0 mincap 150
# pair_coeff * * CHONSSi.ff O Si
# pair_coeff * * CHOSiNa.ff O Si
# pair_coeff * * SiOCHN_2018.ff O Si
# pair_coeff * * PDMSDecomp.ff Si O
pair_coeff * * CHONSi.ff C H O Si
# pair_coeff * * CHOFe.ff O Si

# charge method for reaxff
fix myqeq all qeq/reaxff 1 0.0 10.0 1.0e-6 reaxff maxiter 400
# Setup neighbor style
neighbor        2 bin
neigh_modify    every 10 delay 0 check no

# Setup output
fix avgp all ave/time  ${nevery} ${nrepeat} ${nfreq} c_thermo_press mode vector
fix avgp all ave/time  10 ${nrepeat} ${nfreq} c_thermo_press mode vector
fix avgp all ave/time  10 10 ${nfreq} c_thermo_press mode vector
fix avgp all ave/time  10 10 100 c_thermo_press mode vector
thermo		${nthermo}
thermo		100
thermo_style custom step temp pe press f_avgp[1] vol
WARNING: New thermo_style command, previous thermo_modify settings will be lost (src/output.cpp:903)
thermo_modify norm no

# NVT
fix 4 all nvt temp ${temp} ${temp} ${tdamp}
fix 4 all nvt temp 300 ${temp} ${tdamp}
fix 4 all nvt temp 300 300 ${tdamp}
fix 4 all nvt temp 300 300 50
run ${nequil}
run 3000
Neighbor list info ...
  update: every = 10 steps, delay = 0 steps, check = no
  max neighbors/atom: 2000, page size: 100000
  master list distance cutoff = 12
  ghost atom cutoff = 12
  binsize = 6, bins = 5 3 3
  2 neighbor lists, perpetual/occasional/extra = 2 0 0
  (1) pair reaxff, perpetual
      attributes: half, newton off, ghost
      pair build: half/bin/newtoff/ghost
      stencil: full/ghost/bin/3d
      bin: standard
  (2) fix qeq/reaxff, perpetual, copy from (1)
      attributes: half, newton off
      pair build: copy
      stencil: none
      bin: none
Per MPI rank memory allocation (min/avg/max) = 123.8 | 125.2 | 126.3 Mbytes
   Step          Temp          PotEng         Press        f_avgp[1]        Volume    
         0   302.4552      -36516.294      5336.1622      0              3638.716     
       100   298.78301     -36516.882     -17608.91      -2517.2617      3638.716     
       200   290.945       -36540.31      -2654.0639     -3252.9388      3638.716     
       300   307.83035     -36568.922      872.61503      2406.1634      3638.716     
       400   286.29698     -36536.964     -1891.4386     -2889.8902      3638.716     
       500   288.5196      -36520.79      -15227.378     -4797.9515      3638.716     
       600   307.15657     -36528.171      6233.7872     -5617.3229      3638.716     
       700   287.29685     -36509.018     -1988.8296     -4818.4758      3638.716     
       800   301.13889     -36513.374     -4877.4736     -3858.6332      3638.716     
       900   327.27957     -36533.589     -3687.0139      831.55092      3638.716     
      1000   293.29163     -36522.106     -2586.0807     -11075.68       3638.716     
      1100   288.86334     -36535.632     -3925.245      -1782.0847      3638.716     
      1200   298.91        -36553.139     -157.98612     -2052.8319      3638.716     
      1300   299.21175     -36530.787     -19621.229     -998.84154      3638.716     
      1400   308.12461     -36512.018     -1198.2243     -5862.1596      3638.716     
      1500   316.6631      -36529.274     -10256.882     -9042.1233      3638.716     
      1600   304.51375     -36532.921     -15427.179     -1074.9803      3638.716     
      1700   308.24883     -36549.779      1567.5748     -1524.1536      3638.716     
      1800   289.81907     -36539.916     -1531.7325     -3031.1142      3638.716     
      1900   286.41589     -36533.383     -9253.0686     -6634.7536      3638.716     
      2000   313.45222     -36541.055     -2855.2561     -5542.826       3638.716     
      2100   309.35249     -36527.13      -1454.0356     -5762.1533      3638.716     
      2200   301.51653     -36529.234     -2817.3116     -3104.4355      3638.716     
      2300   295.12723     -36549.128     -4019.4145     -2734.0404      3638.716     
      2400   301.73074     -36561.501     -11539.731     -6652.9999      3638.716     
      2500   306.28822     -36556.742      4658.7259     -8132.4928      3638.716     
      2600   310.73552     -36531.801     -13599.108     -2711.1016      3638.716     
      2700   320.55725     -36526.228      3379.1221      1115.4558      3638.716     
      2800   327.61075     -36557.235     -1713.0027     -6953.1374      3638.716     
      2900   309.61211     -36567.583     -5069.7127     -4325.9242      3638.716     
      3000   273.29697     -36538.868      1520.7259     -7783.3067      3638.716     
Loop time of 144.563 on 8 procs for 3000 steps with 331 atoms

Performance: 0.896 ns/day, 26.771 hours/ns, 20.752 timesteps/s, 6.869 katom-step/s
98.8% CPU use with 8 MPI tasks x 1 OpenMP threads

MPI task timing breakdown:
Section |  min time  |  avg time  |  max time  |%varavg| %total
---------------------------------------------------------------
Pair    | 112.92     | 116.81     | 119.38     |  20.5 | 80.81
Bond    | 0.0084026  | 0.0094671  | 0.011223   |   0.9 |  0.01
Neigh   | 8.9542     | 9.2707     | 9.5865     |   7.7 |  6.41
Comm    | 3.0393     | 5.6218     | 9.5491     |  94.5 |  3.89
Output  | 0.0013247  | 0.0015659  | 0.0029891  |   1.4 |  0.00
Modify  | 12.411     | 12.764     | 13.106     |   7.3 |  8.83
Other   |            | 0.08065    |            |       |  0.06

Nlocal:         41.375 ave          46 max          37 min
Histogram: 2 0 0 1 2 0 0 1 1 1
Nghost:           3190 ave        3209 max        3158 min
Histogram: 1 1 0 0 0 0 1 3 0 2
Neighs:          26371 ave       29098 max       23718 min
Histogram: 2 0 0 1 2 0 0 1 1 1

Total # of neighbors = 210968
Ave neighs/atom = 637.36556
Ave special neighs/atom = 0
Neighbor list builds = 300
Dangerous builds not checked

# Obtain new stress tensor, convert index from LAMMPS to Voigt
variable pxx1 equal f_avgp[1]
variable pyy1 equal f_avgp[2]
variable pzz1 equal f_avgp[3]
variable pxy1 equal f_avgp[4]
variable pxz1 equal f_avgp[5]
variable pyz1 equal f_avgp[6]

# Compute elastic constant from pressure tensor
# d1 = -[pxx1-pxx0]/[(]v_delta/v_len0] defined in input script
variable C1pos equal ${d1}
variable C1pos equal -27.0447365095262
variable C2pos equal ${d2}
variable C2pos equal -53.2188128536188
variable C3pos equal ${d3}
variable C3pos equal -26.4311956830805
variable C4pos equal ${d4}
variable C4pos equal -8.6847671085013
variable C5pos equal ${d5}
variable C5pos equal 0.0114847865466948
variable C6pos equal ${d6}
variable C6pos equal -7.90802570605433

# Combine positive and negative
variable C1${dir} equal 0.5*(${C1neg}+${C1pos})
variable C11 equal 0.5*(${C1neg}+${C1pos})
variable C11 equal 0.5*(193.540788963084+${C1pos})
variable C11 equal 0.5*(193.540788963084+-27.0447365095262)
variable C2${dir} equal 0.5*(${C2neg}+${C2pos})
variable C21 equal 0.5*(${C2neg}+${C2pos})
variable C21 equal 0.5*(45.6373072773481+${C2pos})
variable C21 equal 0.5*(45.6373072773481+-53.2188128536188)
variable C3${dir} equal 0.5*(${C3neg}+${C3pos})
variable C31 equal 0.5*(${C3neg}+${C3pos})
variable C31 equal 0.5*(85.287619940919+${C3pos})
variable C31 equal 0.5*(85.287619940919+-26.4311956830805)
variable C4${dir} equal 0.5*(${C4neg}+${C4pos})
variable C41 equal 0.5*(${C4neg}+${C4pos})
variable C41 equal 0.5*(9.18499294826031+${C4pos})
variable C41 equal 0.5*(9.18499294826031+-8.6847671085013)
variable C5${dir} equal 0.5*(${C5neg}+${C5pos})
variable C51 equal 0.5*(${C5neg}+${C5pos})
variable C51 equal 0.5*(10.6381419988149+${C5pos})
variable C51 equal 0.5*(10.6381419988149+0.0114847865466948)
variable C6${dir} equal 0.5*(${C6neg}+${C6pos})
variable C61 equal 0.5*(${C6neg}+${C6pos})
variable C61 equal 0.5*(-8.3105295404284+${C6pos})
variable C61 equal 0.5*(-8.3105295404284+-7.90802570605433)

# Delete dir to make sure it is not reused
variable dir delete
# uyy Perturbation
variable dir equal 2
include displace.mod.lmp
# Find which reference length to use
if "${dir} == 1" then    "variable len0 equal ${lx0}"
if "${dir} == 2" then    "variable len0 equal ${ly0}"
variable len0 equal ${ly0}
variable len0 equal 13.0868
if "${dir} == 3" then    "variable len0 equal ${lz0}"
if "${dir} == 4" then    "variable len0 equal ${lz0}"
if "${dir} == 5" then    "variable len0 equal ${lz0}"
if "${dir} == 6" then    "variable len0 equal ${ly0}"

# Reset box and simulation parameters
clear
OMP_NUM_THREADS environment is not set. Defaulting to 1 thread. (src/comm.cpp:98)
  using 1 OpenMP thread(s) per MPI task
# box tilt large
read_restart equil.res
Reading restart file ...
  restart file = 2 Aug 2023, LAMMPS = 2 Aug 2023
  restoring atom style full from restart
  triclinic box = (0 0 0) to (15.7087 13.0868 17.5248) with tilt (-8.2042 -0.1458 -2.0056)
WARNING: Triclinic box skew is large. LAMMPS will run inefficiently. (src/domain.cpp:220)
  2 by 2 by 2 MPI processor grid
  pair style reaxff stores no restart info
  331 atoms
Finding 1-2 1-3 1-4 neighbors ...
  special bond factors lj:    0        0        0       
  special bond factors coul:  0        0        0       
     0 = max # of 1-2 neighbors
     0 = max # of 1-3 neighbors
     0 = max # of 1-4 neighbors
     1 = max # of special neighbors
  special bonds CPU = 0.000 seconds
  read_restart CPU = 0.004 seconds
print "*****Negative-change ${dir} starts.*****"
*****Negative-change 2 starts.*****
include ff.mod.lmp
# Setup forcefield, system
# undefine any fix ave/* fix before using reset_timestep
if "$(is_defined(fix,avgp))" then "unfix avgp"
reset_timestep 0

# Assign the force field
pair_style reaxff NULL safezone 3.0 mincap 150
# pair_coeff * * CHONSSi.ff O Si
# pair_coeff * * CHOSiNa.ff O Si
# pair_coeff * * SiOCHN_2018.ff O Si
# pair_coeff * * PDMSDecomp.ff Si O
pair_coeff * * CHONSi.ff C H O Si
# pair_coeff * * CHOFe.ff O Si

# charge method for reaxff
fix myqeq all qeq/reaxff 1 0.0 10.0 1.0e-6 reaxff maxiter 400
# Setup neighbor style
neighbor        2 bin
neigh_modify    every 10 delay 0 check no

# Setup output
fix avgp all ave/time  ${nevery} ${nrepeat} ${nfreq} c_thermo_press mode vector
fix avgp all ave/time  10 ${nrepeat} ${nfreq} c_thermo_press mode vector
fix avgp all ave/time  10 10 ${nfreq} c_thermo_press mode vector
fix avgp all ave/time  10 10 100 c_thermo_press mode vector
thermo		${nthermo}
thermo		100
thermo_style custom step temp pe press f_avgp[1] vol
thermo_modify norm no

# NVT
fix 4 all nvt temp ${temp} ${temp} ${tdamp}
fix 4 all nvt temp 300 ${temp} ${tdamp}
fix 4 all nvt temp 300 300 ${tdamp}
fix 4 all nvt temp 300 300 50
Resetting global fix info from restart file:
  fix style: nvt, fix ID: 4

# Negative deformation
variable delta equal -${up}*${len0}
variable delta equal -0.01*${len0}
variable delta equal -0.01*13.0868
variable deltaxy equal -${up}*xy
variable deltaxy equal -0.01*xy
variable deltaxz equal -${up}*xz
variable deltaxz equal -0.01*xz
variable deltayz equal -${up}*yz
variable deltayz equal -0.01*yz
if "${dir} == 1" then    "change_box all x delta 0 ${delta} xy delta ${deltaxy} xz delta ${deltaxz} remap units box"
if "${dir} == 2" then    "change_box all y delta 0 ${delta} yz delta ${deltayz} remap units box"
change_box all y delta 0 ${delta} yz delta ${deltayz} remap units box
change_box all y delta 0 -0.130868 yz delta ${deltayz} remap units box
change_box all y delta 0 -0.130868 yz delta 0.020056 remap units box
Changing box ...
WARNING: Triclinic box skew is large. LAMMPS will run inefficiently. (src/domain.cpp:220)
  triclinic box = (0 0 0) to (15.7087 12.955932 17.5248) with tilt (-8.2042 -0.1458 -2.0056)
WARNING: Triclinic box skew is large. LAMMPS will run inefficiently. (src/domain.cpp:220)
  triclinic box = (0 0 0) to (15.7087 12.955932 17.5248) with tilt (-8.2042 -0.1458 -1.985544)
if "${dir} == 3" then    "change_box all z delta 0 ${delta} remap units box"
if "${dir} == 4" then    "change_box all yz delta ${delta} remap units box"
if "${dir} == 5" then    "change_box all xz delta ${delta} remap units box"
if "${dir} == 6" then    "change_box all xy delta ${delta} remap units box"

# Run MD for Negative deformation
# save trajectory
dump dump_neg${dir} all custom ${nthermo} dump/neg_deform${dir}.lammpstrj id type x y z
dump dump_neg2 all custom ${nthermo} dump/neg_deform${dir}.lammpstrj id type x y z
dump dump_neg2 all custom 100 dump/neg_deform${dir}.lammpstrj id type x y z
dump dump_neg2 all custom 100 dump/neg_deform2.lammpstrj id type x y z
run ${nrun}
run 3000
All restart file global fix info was re-assigned
Neighbor list info ...
  update: every = 10 steps, delay = 0 steps, check = no
  max neighbors/atom: 2000, page size: 100000
  master list distance cutoff = 12
  ghost atom cutoff = 12
  binsize = 6, bins = 5 3 3
  2 neighbor lists, perpetual/occasional/extra = 2 0 0
  (1) pair reaxff, perpetual
      attributes: half, newton off, ghost
      pair build: half/bin/newtoff/ghost
      stencil: full/ghost/bin/3d
      bin: standard
  (2) fix qeq/reaxff, perpetual, copy from (1)
      attributes: half, newton off
      pair build: copy
      stencil: none
      bin: none
Per MPI rank memory allocation (min/avg/max) = 126.6 | 127.9 | 129 Mbytes
   Step          Temp          PotEng         Press        f_avgp[1]        Volume    
         0   288.05611     -36457.317      23887.07       0              3566.6622    
       100   302.21612     -36496.647     -8338.2947     -3473.3314      3566.6622    
       200   283.97768     -36500.202      1962.1013      4439.1271      3566.6622    
       300   283.23125     -36499.352     -1288.9317     -4652.8742      3566.6622    
       400   295.09726     -36502.779      4934.6659      1195.6755      3566.6622    
       500   309.67459     -36498.364     -6139.6251     -4116.947       3566.6622    
       600   320.45608     -36499.469     -5050.5054     -5906.4366      3566.6622    
       700   328.5452      -36510.713     -1612.5419     -3654.2012      3566.6622    
       800   313.71342     -36520.13       2702.5836     -1473.4235      3566.6622    
       900   291.94859     -36528.144     -14146.065     -248.86649      3566.6622    
      1000   290.12705     -36528.681      10755.951      5012.6788      3566.6622    
      1100   313.78398     -36521.923     -6605.9709     -923.99664      3566.6622    
      1200   309.75641     -36498.977      6846.6429      6758.5949      3566.6622    
      1300   297.10462     -36488.572      5053.3385     -4113.5689      3566.6622    
      1400   318.58758     -36528.144     -2619.0755      569.20765      3566.6622    
      1500   304.07315     -36533.356     -2869.3316      9197.2484      3566.6622    
      1600   284.16248     -36513.15       4053.9218     -1155.7929      3566.6622    
      1700   306.25497     -36524.681      3135.8298      4726.1416      3566.6622    
      1800   300.94875     -36503.948      14401.084      4928.7753      3566.6622    
      1900   304.69449     -36499.164     -7414.033       204.11674      3566.6622    
      2000   310.79154     -36516.931     -2429.599      -4921.9397      3566.6622    
      2100   293.3735      -36533.291      4099.931       2085.5491      3566.6622    
      2200   287.78151     -36534.246     -14402.298      4341.2512      3566.6622    
      2300   288.57159     -36530.021     -1302.8849     -1103.2258      3566.6622    
      2400   321.36322     -36534.663     -9315.6546      2447.6116      3566.6622    
      2500   311.59475     -36511.299      6403.8266     -1287.0754      3566.6622    
      2600   298.82602     -36515.323      16994.391      5072.911       3566.6622    
      2700   304.65715     -36541.067      2624.4826      790.4165       3566.6622    
      2800   278.93807     -36513.845      148.02403     -574.64166      3566.6622    
      2900   307.14069     -36538.566     -2402.7982      2349.7168      3566.6622    
      3000   308.97062     -36532.696     -11013.47       307.49697      3566.6622    
Loop time of 149.726 on 8 procs for 3000 steps with 331 atoms

Performance: 0.866 ns/day, 27.727 hours/ns, 20.037 timesteps/s, 6.632 katom-step/s
98.8% CPU use with 8 MPI tasks x 1 OpenMP threads

MPI task timing breakdown:
Section |  min time  |  avg time  |  max time  |%varavg| %total
---------------------------------------------------------------
Pair    | 84.333     | 116.26     | 123.89     | 114.2 | 77.65
Bond    | 0.0084797  | 0.00929    | 0.010553   |   0.7 |  0.01
Neigh   | 7.0422     | 9.171      | 9.794      |  27.4 |  6.13
Comm    | 2.8263     | 10.487     | 42.429     | 380.6 |  7.00
Output  | 0.0072184  | 0.0089223  | 0.010411   |   1.3 |  0.01
Modify  | 13.069     | 13.716     | 15.837     |  22.5 |  9.16
Other   |            | 0.07817    |            |       |  0.05

Nlocal:         41.375 ave          48 max          36 min
Histogram: 2 0 2 0 0 1 1 0 0 2
Nghost:        3292.12 ave        3341 max        3252 min
Histogram: 1 1 1 2 0 1 0 0 0 2
Neighs:        26902.1 ave       30939 max       23606 min
Histogram: 2 0 2 0 1 0 1 0 0 2

Total # of neighbors = 215217
Ave neighs/atom = 650.20242
Ave special neighs/atom = 0
Neighbor list builds = 300
Dangerous builds not checked
undump dump_neg${dir}
undump dump_neg2

# Run equilibration
print "*****Equilibration neg${dir} starts.*****"
*****Equilibration neg2 starts.*****
include ff.mod.lmp
# Setup forcefield, system
# undefine any fix ave/* fix before using reset_timestep
if "$(is_defined(fix,avgp))" then "unfix avgp"
unfix avgp
reset_timestep 0

# Assign the force field
pair_style reaxff NULL safezone 3.0 mincap 150
# pair_coeff * * CHONSSi.ff O Si
# pair_coeff * * CHOSiNa.ff O Si
# pair_coeff * * SiOCHN_2018.ff O Si
# pair_coeff * * PDMSDecomp.ff Si O
pair_coeff * * CHONSi.ff C H O Si
# pair_coeff * * CHOFe.ff O Si

# charge method for reaxff
fix myqeq all qeq/reaxff 1 0.0 10.0 1.0e-6 reaxff maxiter 400
# Setup neighbor style
neighbor        2 bin
neigh_modify    every 10 delay 0 check no

# Setup output
fix avgp all ave/time  ${nevery} ${nrepeat} ${nfreq} c_thermo_press mode vector
fix avgp all ave/time  10 ${nrepeat} ${nfreq} c_thermo_press mode vector
fix avgp all ave/time  10 10 ${nfreq} c_thermo_press mode vector
fix avgp all ave/time  10 10 100 c_thermo_press mode vector
thermo		${nthermo}
thermo		100
thermo_style custom step temp pe press f_avgp[1] vol
WARNING: New thermo_style command, previous thermo_modify settings will be lost (src/output.cpp:903)
thermo_modify norm no

# NVT
fix 4 all nvt temp ${temp} ${temp} ${tdamp}
fix 4 all nvt temp 300 ${temp} ${tdamp}
fix 4 all nvt temp 300 300 ${tdamp}
fix 4 all nvt temp 300 300 50
run ${nequil}
run 3000
Neighbor list info ...
  update: every = 10 steps, delay = 0 steps, check = no
  max neighbors/atom: 2000, page size: 100000
  master list distance cutoff = 12
  ghost atom cutoff = 12
  binsize = 6, bins = 5 3 3
  2 neighbor lists, perpetual/occasional/extra = 2 0 0
  (1) pair reaxff, perpetual
      attributes: half, newton off, ghost
      pair build: half/bin/newtoff/ghost
      stencil: full/ghost/bin/3d
      bin: standard
  (2) fix qeq/reaxff, perpetual, copy from (1)
      attributes: half, newton off
      pair build: copy
      stencil: none
      bin: none
Per MPI rank memory allocation (min/avg/max) = 126.5 | 127.8 | 129.1 Mbytes
   Step          Temp          PotEng         Press        f_avgp[1]        Volume    
         0   308.97062     -36532.696     -11013.474      0              3566.6622    
       100   303.91251     -36528.558     -4689.8625      4513.7464      3566.6622    
       200   301.5944      -36540.295      2084.7976      4354.6204      3566.6622    
       300   294.43354     -36560.16       2142.9606     -164.96886      3566.6622    
       400   290.97943     -36559.244     -3865.5807     -536.70618      3566.6622    
       500   297.10182     -36536.612      3868.5174      350.5899       3566.6622    
       600   300.30535     -36530.916     -4706.4852      1544.2734      3566.6622    
       700   289.87086     -36528.54      -10709.945      8986.5458      3566.6622    
       800   294.88177     -36549.071     -4368.5851     -3096.8246      3566.6622    
       900   294.26854     -36564.744      1581.7719      1224.1756      3566.6622    
      1000   270.18521     -36555.668      5295.1637      4112.7937      3566.6622    
      1100   295.83004     -36554.554      4894.3948      5722.1558      3566.6622    
      1200   287.5405      -36520.796     -4184.2176      940.72546      3566.6622    
      1300   319.14926     -36541.954      9634.1306     -2854.2594      3566.6622    
      1400   292.66973     -36536.06       4808.2778      5457.9838      3566.6622    
      1500   294.62495     -36552.579      5665.4531     -1444.543       3566.6622    
      1600   306.29706     -36565.677      2482.452       3052.6881      3566.6622    
      1700   289.7822      -36544.131      12322.66       918.00553      3566.6622    
      1800   299.58612     -36545.27      -10467.971      3129.5072      3566.6622    
      1900   306.30078     -36542.263     -10296.992     -126.84576      3566.6622    
      2000   288.41458     -36523.658      5618.9876      4019.9815      3566.6622    
      2100   284.60479     -36533.69       8910.9709      4262.2125      3566.6622    
      2200   284.8893      -36549.906     -2384.3265      1054.7587      3566.6622    
      2300   298.78093     -36561.973      7416.7172      2805.933       3566.6622    
      2400   300.66307     -36533.601      8686.7503      3369.0586      3566.6622    
      2500   314.72146     -36533.927     -12039.348     -5695.1315      3566.6622    
      2600   313.5383      -36539.269     -1564.302       43.705876      3566.6622    
      2700   291.53922     -36531.418     -2110.5935      2222.3074      3566.6622    
      2800   303.94618     -36550.839      685.23974      1471.804       3566.6622    
      2900   284.01873     -36570.163     -16596.458     -3509.4454      3566.6622    
      3000   288.7002      -36577.681      425.55984      3587.8511      3566.6622    
Loop time of 153.084 on 8 procs for 3000 steps with 331 atoms

Performance: 0.847 ns/day, 28.349 hours/ns, 19.597 timesteps/s, 6.487 katom-step/s
98.1% CPU use with 8 MPI tasks x 1 OpenMP threads

MPI task timing breakdown:
Section |  min time  |  avg time  |  max time  |%varavg| %total
---------------------------------------------------------------
Pair    | 106.07     | 118.35     | 125.38     |  59.4 | 77.31
Bond    | 0.0082378  | 0.0093502  | 0.010581   |   0.7 |  0.01
Neigh   | 8.0209     | 9.2645     | 9.7288     |  16.1 |  6.05
Comm    | 3.4086     | 10.456     | 22.693     | 200.0 |  6.83
Output  | 0.0014288  | 0.0016632  | 0.0031067  |   1.3 |  0.00
Modify  | 14.514     | 14.93      | 16.221     |  13.0 |  9.75
Other   |            | 0.07576    |            |       |  0.05

Nlocal:         41.375 ave          47 max          34 min
Histogram: 1 0 0 2 1 0 1 0 2 1
Nghost:           3266 ave        3324 max        3219 min
Histogram: 2 0 1 1 1 0 1 1 0 1
Neighs:          26907 ave       30392 max       22250 min
Histogram: 1 0 0 1 2 0 1 0 2 1

Total # of neighbors = 215256
Ave neighs/atom = 650.32024
Ave special neighs/atom = 0
Neighbor list builds = 300
Dangerous builds not checked

# Obtain new stress tensor Negative deformation, convert index from LAMMPS to Voigt
variable pxx1 equal f_avgp[1]
variable pyy1 equal f_avgp[2]
variable pzz1 equal f_avgp[3]
variable pxy1 equal f_avgp[4]
variable pxz1 equal f_avgp[5]
variable pyz1 equal f_avgp[6]

# Compute elastic constant from pressure
# d1 = -[pxx1-pxx0]/[(]v_delta/v_len0] defined in input script
variable C1neg equal ${d1}
variable C1neg equal 142.262992703423
variable C2neg equal ${d2}
variable C2neg equal 59.0501095390942
variable C3neg equal ${d3}
variable C3neg equal 95.2887812590399
variable C4neg equal ${d4}
variable C4neg equal 8.45324977158608
variable C5neg equal ${d5}
variable C5neg equal -1.95079255630097
variable C6neg equal ${d6}
variable C6neg equal -15.6455903938002

# Reset box and simulation parameters
clear
OMP_NUM_THREADS environment is not set. Defaulting to 1 thread. (src/comm.cpp:98)
  using 1 OpenMP thread(s) per MPI task
# box tilt large
read_restart equil.res
Reading restart file ...
  restart file = 2 Aug 2023, LAMMPS = 2 Aug 2023
  restoring atom style full from restart
  triclinic box = (0 0 0) to (15.7087 13.0868 17.5248) with tilt (-8.2042 -0.1458 -2.0056)
WARNING: Triclinic box skew is large. LAMMPS will run inefficiently. (src/domain.cpp:220)
  2 by 2 by 2 MPI processor grid
  pair style reaxff stores no restart info
  331 atoms
Finding 1-2 1-3 1-4 neighbors ...
  special bond factors lj:    0        0        0       
  special bond factors coul:  0        0        0       
     0 = max # of 1-2 neighbors
     0 = max # of 1-3 neighbors
     0 = max # of 1-4 neighbors
     1 = max # of special neighbors
  special bonds CPU = 0.000 seconds
  read_restart CPU = 0.003 seconds
print "*****Positive-change ${dir} starts.*****"
*****Positive-change 2 starts.*****
include ff.mod.lmp
# Setup forcefield, system
# undefine any fix ave/* fix before using reset_timestep
if "$(is_defined(fix,avgp))" then "unfix avgp"
reset_timestep 0

# Assign the force field
pair_style reaxff NULL safezone 3.0 mincap 150
# pair_coeff * * CHONSSi.ff O Si
# pair_coeff * * CHOSiNa.ff O Si
# pair_coeff * * SiOCHN_2018.ff O Si
# pair_coeff * * PDMSDecomp.ff Si O
pair_coeff * * CHONSi.ff C H O Si
# pair_coeff * * CHOFe.ff O Si

# charge method for reaxff
fix myqeq all qeq/reaxff 1 0.0 10.0 1.0e-6 reaxff maxiter 400
# Setup neighbor style
neighbor        2 bin
neigh_modify    every 10 delay 0 check no

# Setup output
fix avgp all ave/time  ${nevery} ${nrepeat} ${nfreq} c_thermo_press mode vector
fix avgp all ave/time  10 ${nrepeat} ${nfreq} c_thermo_press mode vector
fix avgp all ave/time  10 10 ${nfreq} c_thermo_press mode vector
fix avgp all ave/time  10 10 100 c_thermo_press mode vector
thermo		${nthermo}
thermo		100
thermo_style custom step temp pe press f_avgp[1] vol
thermo_modify norm no

# NVT
fix 4 all nvt temp ${temp} ${temp} ${tdamp}
fix 4 all nvt temp 300 ${temp} ${tdamp}
fix 4 all nvt temp 300 300 ${tdamp}
fix 4 all nvt temp 300 300 50
Resetting global fix info from restart file:
  fix style: nvt, fix ID: 4

# Positive deformation
variable delta equal ${up}*${len0}
variable delta equal 0.01*${len0}
variable delta equal 0.01*13.0868
variable deltaxy equal ${up}*xy
variable deltaxy equal 0.01*xy
variable deltaxz equal ${up}*xz
variable deltaxz equal 0.01*xz
variable deltayz equal ${up}*yz
variable deltayz equal 0.01*yz
if "${dir} == 1" then    "change_box all x delta 0 ${delta} xy delta ${deltaxy} xz delta ${deltaxz} remap units box"
if "${dir} == 2" then    "change_box all y delta 0 ${delta} yz delta ${deltayz} remap units box"
change_box all y delta 0 ${delta} yz delta ${deltayz} remap units box
change_box all y delta 0 0.130868 yz delta ${deltayz} remap units box
change_box all y delta 0 0.130868 yz delta -0.020056 remap units box
Changing box ...
WARNING: Triclinic box skew is large. LAMMPS will run inefficiently. (src/domain.cpp:220)
  triclinic box = (0 0 0) to (15.7087 13.217668 17.5248) with tilt (-8.2042 -0.1458 -2.0056)
WARNING: Triclinic box skew is large. LAMMPS will run inefficiently. (src/domain.cpp:220)
  triclinic box = (0 0 0) to (15.7087 13.217668 17.5248) with tilt (-8.2042 -0.1458 -2.025656)
if "${dir} == 3" then    "change_box all z delta 0 ${delta} remap units box"
if "${dir} == 4" then    "change_box all yz delta ${delta} remap units box"
if "${dir} == 5" then    "change_box all xz delta ${delta} remap units box"
if "${dir} == 6" then    "change_box all xy delta ${delta} remap units box"

# Run positive deformation MD
# save trajectory
dump dump_pos${dir} all custom ${nthermo} dump/pos_deform${dir}.lammpstrj id type x y z
dump dump_pos2 all custom ${nthermo} dump/pos_deform${dir}.lammpstrj id type x y z
dump dump_pos2 all custom 100 dump/pos_deform${dir}.lammpstrj id type x y z
dump dump_pos2 all custom 100 dump/pos_deform2.lammpstrj id type x y z
run ${nrun}
run 3000
All restart file global fix info was re-assigned
Neighbor list info ...
  update: every = 10 steps, delay = 0 steps, check = no
  max neighbors/atom: 2000, page size: 100000
  master list distance cutoff = 12
  ghost atom cutoff = 12
  binsize = 6, bins = 5 3 3
  2 neighbor lists, perpetual/occasional/extra = 2 0 0
  (1) pair reaxff, perpetual
      attributes: half, newton off, ghost
      pair build: half/bin/newtoff/ghost
      stencil: full/ghost/bin/3d
      bin: standard
  (2) fix qeq/reaxff, perpetual, copy from (1)
      attributes: half, newton off
      pair build: copy
      stencil: none
      bin: none
Per MPI rank memory allocation (min/avg/max) = 123.5 | 125 | 126.2 Mbytes
   Step          Temp          PotEng         Press        f_avgp[1]        Volume    
         0   288.05611     -36445.821     -55635.717      0              3638.716     
       100   301.3174      -36488.329     -14693.913     -6515.0982      3638.716     
       200   287.67297     -36504.028     -3282.2516     -1301.6291      3638.716     
       300   304.65583     -36521.148     -4236.9209     -1301.4073      3638.716     
       400   297.08078     -36507.985     -6925.6689     -1574.4566      3638.716     
       500   298.14873     -36512.847      2768.982      -2074.7778      3638.716     
       600   283.12689     -36497.127     -20185.729     -6053.4608      3638.716     
       700   312.58786     -36516.259     -5255.9427     -4780.3232      3638.716     
       800   306.54899     -36513.663     -5894.0504     -4403.6858      3638.716     
       900   300.84913     -36525.384     -10462.328     -5120.2394      3638.716     
      1000   289.86041     -36532.739      11228.498     -4462.6311      3638.716     
      1100   295.75752     -36528.872     -827.27446      3649.8275      3638.716     
      1200   310.58368     -36517.591     -5208.5412     -157.13465      3638.716     
      1300   294.0394      -36484.425      819.39631      3546.5208      3638.716     
      1400   304.3019      -36492.206     -6886.6        -1561.0607      3638.716     
      1500   300.54234     -36516.542     -497.1366      -1752.3217      3638.716     
      1600   295.98062     -36540.356      10144.519      1022.5917      3638.716     
      1700   291.45342     -36541.24      -11163.395      2631.2435      3638.716     
      1800   285.99441     -36528.587     -14013.562     -3474.744       3638.716     
      1900   309.62909     -36528.016      95.47228       2942.2138      3638.716     
      2000   301.85654     -36506.862     -12220.24      -4094.8901      3638.716     
      2100   308.50227     -36520.87      -2796.7156     -5720.7973      3638.716     
      2200   283.83638     -36540.138     -17568.878     -3621.9129      3638.716     
      2300   305.88059     -36561.032      10708.913     -3576.3727      3638.716     
      2400   317.61368     -36554.736      210.34566     -5305.3193      3638.716     
      2500   308.78426     -36527.891     -1933.6937     -3973.6916      3638.716     
      2600   321.20528     -36530.427     -6578.1626     -4689.4685      3638.716     
      2700   295.28385     -36528.266      2408.2874     -879.81213      3638.716     
      2800   279.72998     -36537.581     -9817.4673     -4521.1697      3638.716     
      2900   288.49448     -36532.025     -6766.4766     -3722.9428      3638.716     
      3000   285.40655     -36509.549     -3636.8958     -2690.4731      3638.716     
Loop time of 145.094 on 8 procs for 3000 steps with 331 atoms

Performance: 0.893 ns/day, 26.869 hours/ns, 20.676 timesteps/s, 6.844 katom-step/s
98.9% CPU use with 8 MPI tasks x 1 OpenMP threads

MPI task timing breakdown:
Section |  min time  |  avg time  |  max time  |%varavg| %total
---------------------------------------------------------------
Pair    | 83.262     | 110.21     | 121.42     | 114.2 | 75.96
Bond    | 0.0079451  | 0.009166   | 0.010451   |   0.8 |  0.01
Neigh   | 6.4695     | 8.7681     | 9.8327     |  33.1 |  6.04
Comm    | 1.3324     | 12.535     | 39.469     | 338.4 |  8.64
Output  | 0.0072217  | 0.0090249  | 0.010986   |   1.4 |  0.01
Modify  | 12.397     | 13.487     | 15.811     |  27.1 |  9.30
Other   |            | 0.0733     |            |       |  0.05

Nlocal:         41.375 ave          48 max          34 min
Histogram: 2 0 0 1 0 2 0 1 0 2
Nghost:        3233.25 ave        3274 max        3216 min
Histogram: 3 2 0 1 0 0 1 0 0 1
Neighs:        26359.2 ave       30384 max       21908 min
Histogram: 2 0 0 1 0 2 0 1 0 2

Total # of neighbors = 210874
Ave neighs/atom = 637.08157
Ave special neighs/atom = 0
Neighbor list builds = 300
Dangerous builds not checked
undump dump_pos${dir}
undump dump_pos2

# Run equilibration
print "*****Equilibration pos${dir} starts.*****"
*****Equilibration pos2 starts.*****
include ff.mod.lmp
# Setup forcefield, system
# undefine any fix ave/* fix before using reset_timestep
if "$(is_defined(fix,avgp))" then "unfix avgp"
unfix avgp
reset_timestep 0

# Assign the force field
pair_style reaxff NULL safezone 3.0 mincap 150
# pair_coeff * * CHONSSi.ff O Si
# pair_coeff * * CHOSiNa.ff O Si
# pair_coeff * * SiOCHN_2018.ff O Si
# pair_coeff * * PDMSDecomp.ff Si O
pair_coeff * * CHONSi.ff C H O Si
# pair_coeff * * CHOFe.ff O Si

# charge method for reaxff
fix myqeq all qeq/reaxff 1 0.0 10.0 1.0e-6 reaxff maxiter 400
# Setup neighbor style
neighbor        2 bin
neigh_modify    every 10 delay 0 check no

# Setup output
fix avgp all ave/time  ${nevery} ${nrepeat} ${nfreq} c_thermo_press mode vector
fix avgp all ave/time  10 ${nrepeat} ${nfreq} c_thermo_press mode vector
fix avgp all ave/time  10 10 ${nfreq} c_thermo_press mode vector
fix avgp all ave/time  10 10 100 c_thermo_press mode vector
thermo		${nthermo}
thermo		100
thermo_style custom step temp pe press f_avgp[1] vol
WARNING: New thermo_style command, previous thermo_modify settings will be lost (src/output.cpp:903)
thermo_modify norm no

# NVT
fix 4 all nvt temp ${temp} ${temp} ${tdamp}
fix 4 all nvt temp 300 ${temp} ${tdamp}
fix 4 all nvt temp 300 300 ${tdamp}
fix 4 all nvt temp 300 300 50
run ${nequil}
run 3000
Neighbor list info ...
  update: every = 10 steps, delay = 0 steps, check = no
  max neighbors/atom: 2000, page size: 100000
  master list distance cutoff = 12
  ghost atom cutoff = 12
  binsize = 6, bins = 5 3 3
  2 neighbor lists, perpetual/occasional/extra = 2 0 0
  (1) pair reaxff, perpetual
      attributes: half, newton off, ghost
      pair build: half/bin/newtoff/ghost
      stencil: full/ghost/bin/3d
      bin: standard
  (2) fix qeq/reaxff, perpetual, copy from (1)
      attributes: half, newton off
      pair build: copy
      stencil: none
      bin: none
Per MPI rank memory allocation (min/avg/max) = 123.6 | 125 | 126.3 Mbytes
   Step          Temp          PotEng         Press        f_avgp[1]        Volume    
         0   285.40655     -36509.549     -3636.8471      0              3638.716     
       100   303.00597     -36518.563     -10639.884     -5146.7741      3638.716     
       200   302.66914     -36502.419     -5352.0109     -1002.8848      3638.716     
       300   320.38295     -36524.566      3705.8488     -573.59568      3638.716     
       400   277.38223     -36515.858     -2605.7379     -1298.4128      3638.716     
       500   286.28814     -36537.112     -5091.4591      272.56913      3638.716     
       600   286.83165     -36537.075      2327.2483      115.6386       3638.716     
       700   294.39398     -36513.258     -8833.1182     -908.85388      3638.716     
       800   307.55565     -36511.266     -6424.561      -4347.6548      3638.716     
       900   302.87328     -36510.203      11069.283     -29.651399      3638.716     
      1000   299.11868     -36518.491     -6281.3401     -1296.806       3638.716     
      1100   293.39339     -36525.021     -3916.0957      830.35028      3638.716     
      1200   292.88333     -36524.412      2864.8228      1507.4534      3638.716     
      1300   315.66922     -36525.99       2615.5813      1248.9925      3638.716     
      1400   298.52189     -36507.816      3102.7696     -2771.4078      3638.716     
      1500   293.0379      -36516.98      -6816.5874      903.50989      3638.716     
      1600   287.14918     -36527.944     -19339.572     -4902.6896      3638.716     
      1700   286.35315     -36532.206     -9926.1886     -5725.5244      3638.716     
      1800   314.13346     -36531.697     -4888.9622      100.41909      3638.716     
      1900   315.10259     -36510.023     -9385.9148     -2283.052       3638.716     
      2000   291.72398     -36495.182     -6181.5401     -126.01782      3638.716     
      2100   289.74731     -36516.175     -7333.5517     -960.71749      3638.716     
      2200   304.53891     -36534.763     -1665.0121      2577.2296      3638.716     
      2300   314.38633     -36542.406     -4025.278      -1176.1811      3638.716     
      2400   295.2284      -36529.944      1728.8079      2420.9503      3638.716     
      2500   295.46407     -36542.342     -5932.5308     -1831.3562      3638.716     
      2600   285.14667     -36554.441     -5416.0176     -895.23531      3638.716     
      2700   270.77696     -36538.736     -6689.881       1925.0446      3638.716     
      2800   306.18498     -36538.439      874.0422       412.05887      3638.716     
      2900   303.51017     -36529.15       4933.0704     -2278.8258      3638.716     
      3000   300.62542     -36534.342     -12270.466      2437.4186      3638.716     
Loop time of 144.592 on 8 procs for 3000 steps with 331 atoms

Performance: 0.896 ns/day, 26.776 hours/ns, 20.748 timesteps/s, 6.868 katom-step/s
98.9% CPU use with 8 MPI tasks x 1 OpenMP threads

MPI task timing breakdown:
Section |  min time  |  avg time  |  max time  |%varavg| %total
---------------------------------------------------------------
Pair    | 77.708     | 104.17     | 121.2      | 150.8 | 72.04
Bond    | 0.008032   | 0.0089898  | 0.0099852  |   0.7 |  0.01
Neigh   | 6.35       | 8.2928     | 9.7774     |  44.6 |  5.74
Comm    | 1.2454     | 18.267     | 44.715     | 360.0 | 12.63
Output  | 0.0012631  | 0.0014869  | 0.0025381  |   1.0 |  0.00
Modify  | 12.276     | 13.784     | 15.747     |  35.0 |  9.53
Other   |            | 0.07154    |            |       |  0.05

Nlocal:         41.375 ave          52 max          29 min
Histogram: 1 0 0 2 1 0 1 2 0 1
Nghost:        3200.88 ave        3234 max        3171 min
Histogram: 1 1 1 1 0 0 2 1 0 1
Neighs:        26336.8 ave       32681 max       18824 min
Histogram: 1 0 0 1 2 0 1 2 0 1

Total # of neighbors = 210694
Ave neighs/atom = 636.53776
Ave special neighs/atom = 0
Neighbor list builds = 300
Dangerous builds not checked

# Obtain new stress tensor, convert index from LAMMPS to Voigt
variable pxx1 equal f_avgp[1]
variable pyy1 equal f_avgp[2]
variable pzz1 equal f_avgp[3]
variable pxy1 equal f_avgp[4]
variable pxz1 equal f_avgp[5]
variable pyz1 equal f_avgp[6]

# Compute elastic constant from pressure tensor
# d1 = -[pxx1-pxx0]/[(]v_delta/v_len0] defined in input script
variable C1pos equal ${d1}
variable C1pos equal -130.606236106358
variable C2pos equal ${d2}
variable C2pos equal -98.4024292071034
variable C3pos equal ${d3}
variable C3pos equal -88.192595148374
variable C4pos equal ${d4}
variable C4pos equal -9.44696805844254
variable C5pos equal ${d5}
variable C5pos equal -9.74889556832052
variable C6pos equal ${d6}
variable C6pos equal 9.35703929325462

# Combine positive and negative
variable C1${dir} equal 0.5*(${C1neg}+${C1pos})
variable C12 equal 0.5*(${C1neg}+${C1pos})
variable C12 equal 0.5*(142.262992703423+${C1pos})
variable C12 equal 0.5*(142.262992703423+-130.606236106358)
variable C2${dir} equal 0.5*(${C2neg}+${C2pos})
[...]

# Reset box and simulation parameters
clear
OMP_NUM_THREADS environment is not set. Defaulting to 1 thread. (src/comm.cpp:98)
  using 1 OpenMP thread(s) per MPI task
# box tilt large
read_restart equil.res
Reading restart file ...
  restart file = 2 Aug 2023, LAMMPS = 2 Aug 2023
  restoring atom style full from restart
  triclinic box = (0 0 0) to (15.7087 13.0868 17.5248) with tilt (-8.2042 -0.1458 -2.0056)
WARNING: Triclinic box skew is large. LAMMPS will run inefficiently. (src/domain.cpp:220)
  2 by 2 by 2 MPI processor grid
  pair style reaxff stores no restart info
  331 atoms
Finding 1-2 1-3 1-4 neighbors ...
  special bond factors lj:    0        0        0       
  special bond factors coul:  0        0        0       
     0 = max # of 1-2 neighbors
     0 = max # of 1-3 neighbors
     0 = max # of 1-4 neighbors
     1 = max # of special neighbors
  special bonds CPU = 0.000 seconds
  read_restart CPU = 0.003 seconds
print "*****Positive-change ${dir} starts.*****"
*****Positive-change 6 starts.*****
include ff.mod.lmp
# Setup forcefield, system
# undefine any fix ave/* fix before using reset_timestep
if "$(is_defined(fix,avgp))" then "unfix avgp"
reset_timestep 0

# Assign the force field
pair_style reaxff NULL safezone 3.0 mincap 150
# pair_coeff * * CHONSSi.ff O Si
# pair_coeff * * CHOSiNa.ff O Si
# pair_coeff * * SiOCHN_2018.ff O Si
# pair_coeff * * PDMSDecomp.ff Si O
pair_coeff * * CHONSi.ff C H O Si
# pair_coeff * * CHOFe.ff O Si

# charge method for reaxff
fix myqeq all qeq/reaxff 1 0.0 10.0 1.0e-6 reaxff maxiter 400
# Setup neighbor style
neighbor        2 bin
neigh_modify    every 10 delay 0 check no

# Setup output
fix avgp all ave/time  ${nevery} ${nrepeat} ${nfreq} c_thermo_press mode vector
fix avgp all ave/time  10 ${nrepeat} ${nfreq} c_thermo_press mode vector
fix avgp all ave/time  10 10 ${nfreq} c_thermo_press mode vector
fix avgp all ave/time  10 10 100 c_thermo_press mode vector
thermo		${nthermo}
thermo		100
thermo_style custom step temp pe press f_avgp[1] vol
thermo_modify norm no

# NVT
fix 4 all nvt temp ${temp} ${temp} ${tdamp}
fix 4 all nvt temp 300 ${temp} ${tdamp}
fix 4 all nvt temp 300 300 ${tdamp}
fix 4 all nvt temp 300 300 50
Resetting global fix info from restart file:
  fix style: nvt, fix ID: 4

# Positive deformation
variable delta equal ${up}*${len0}
variable delta equal 0.01*${len0}
variable delta equal 0.01*13.0868
variable deltaxy equal ${up}*xy
variable deltaxy equal 0.01*xy
variable deltaxz equal ${up}*xz
variable deltaxz equal 0.01*xz
variable deltayz equal ${up}*yz
variable deltayz equal 0.01*yz
if "${dir} == 1" then    "change_box all x delta 0 ${delta} xy delta ${deltaxy} xz delta ${deltaxz} remap units box"
if "${dir} == 2" then    "change_box all y delta 0 ${delta} yz delta ${deltayz} remap units box"
if "${dir} == 3" then    "change_box all z delta 0 ${delta} remap units box"
if "${dir} == 4" then    "change_box all yz delta ${delta} remap units box"
if "${dir} == 5" then    "change_box all xz delta ${delta} remap units box"
if "${dir} == 6" then    "change_box all xy delta ${delta} remap units box"
change_box all xy delta ${delta} remap units box
change_box all xy delta 0.130868 remap units box
Changing box ...
WARNING: Triclinic box skew is large. LAMMPS will run inefficiently. (src/domain.cpp:220)
  triclinic box = (0 0 0) to (15.7087 13.0868 17.5248) with tilt (-8.073332 -0.1458 -2.0056)

# Run positive deformation MD
# save trajectory
dump dump_pos${dir} all custom ${nthermo} dump/pos_deform${dir}.lammpstrj id type x y z
dump dump_pos6 all custom ${nthermo} dump/pos_deform${dir}.lammpstrj id type x y z
dump dump_pos6 all custom 100 dump/pos_deform${dir}.lammpstrj id type x y z
dump dump_pos6 all custom 100 dump/pos_deform6.lammpstrj id type x y z
run ${nrun}
run 3000
All restart file global fix info was re-assigned
Neighbor list info ...
  update: every = 10 steps, delay = 0 steps, check = no
  max neighbors/atom: 2000, page size: 100000
  master list distance cutoff = 12
  ghost atom cutoff = 12
  binsize = 6, bins = 4 3 3
  2 neighbor lists, perpetual/occasional/extra = 2 0 0
  (1) pair reaxff, perpetual
      attributes: half, newton off, ghost
      pair build: half/bin/newtoff/ghost
      stencil: full/ghost/bin/3d
      bin: standard
  (2) fix qeq/reaxff, perpetual, copy from (1)
      attributes: half, newton off
      pair build: copy
      stencil: none
      bin: none
Per MPI rank memory allocation (min/avg/max) = 124 | 125.5 | 126.9 Mbytes
   Step          Temp          PotEng         Press        f_avgp[1]        Volume    
         0   288.05611     -36463.667     -15127.208      0              3602.6891    
       100   301.20043     -36499.262     -13356.994     -3994.0924      3602.6891    
       200   289.55085     -36506.482     -1197.3984      1582.442       3602.6891    
       300   306.40686     -36522.764     -10515.973     -3016.1173      3602.6891    
       400   279.43047     -36486.833     -1215.6541     -2389.7661      3602.6891    
       500   291.37752     -36479.678      1889.5255      1619.8296      3602.6891    
       600   307.22823     -36477.66      -2430.1843     -6945.9464      3602.6891    
       700   317.91724     -36483.933      5599.3563     -5366.3347      3602.6891    
       800   285.78288     -36469.899     -8751.8234     -4956.8748      3602.6891    
       900   286.16801     -36490.102     -6075.3402     -338.40666      3602.6891    
      1000   295.62298     -36509.112     -5722.2653     -5206.7811      3602.6891    
      1100   294.35057     -36506.625      1522.9205      2171.214       3602.6891    
      1200   319.9162      -36525.178     -4053.9393      653.13617      3602.6891    
      1300   310.17795     -36510.608      4991.2229     -3287.5068      3602.6891    
      1400   302.75338     -36498.527     -5716.207      -2631.121       3602.6891    
      1500   318.18867     -36518.522     -8683.6151     -3580.1543      3602.6891    
      1600   293.97013     -36511.864     -3862.8219      1853.4774      3602.6891    
      1700   266.08811     -36503.231      9568.9791      295.24761      3602.6891    
      1800   302.70403     -36539.613     -2336.5509     -396.30149      3602.6891    
      1900   317.44424     -36531.281     -9240.4359      202.29617      3602.6891    
      2000   331.99186     -36527.782     -2878.3921      2458.9746      3602.6891    
      2100   310.46965     -36496.614     -6099.5724     -2102.3399      3602.6891    
      2200   311.07399     -36513.281     -4469.4459     -3902.8984      3602.6891    
      2300   286.82509     -36521.528     -1493.9078     -1811.6392      3602.6891    
      2400   287.06518     -36526.858     -756.19531      553.23478      3602.6891    
      2500   297.88125     -36519.984     -8139.6763      3642.8154      3602.6891    
      2600   309.98329     -36511.465     -11919.822      384.19736      3602.6891    
      2700   297.67668     -36496.099     -10181.337     -3297.4449      3602.6891    
      2800   304.98076     -36531.314      3728.7833      3185.6231      3602.6891    
      2900   296.04306     -36545.905      5910.0831      2259.3035      3602.6891    
      3000   282.95594     -36522.518      11711.504     -2549.1603      3602.6891    
Loop time of 137.709 on 8 procs for 3000 steps with 331 atoms

Performance: 0.941 ns/day, 25.502 hours/ns, 21.785 timesteps/s, 7.211 katom-step/s
98.9% CPU use with 8 MPI tasks x 1 OpenMP threads

MPI task timing breakdown:
Section |  min time  |  avg time  |  max time  |%varavg| %total
---------------------------------------------------------------
Pair    | 73.962     | 93.934     | 113.49     | 159.4 | 68.21
Bond    | 0.0074586  | 0.0083444  | 0.009552   |   0.7 |  0.01
Neigh   | 7.3561     | 9.0136     | 10.575     |  50.1 |  6.55
Comm    | 1.5149     | 21.1       | 41.059     | 336.5 | 15.32
Output  | 0.0057405  | 0.0071898  | 0.0082658  |   1.1 |  0.01
Modify  | 11.999     | 13.582     | 15.257     |  40.7 |  9.86
Other   |            | 0.06377    |            |       |  0.05

Nlocal:         41.375 ave          52 max          36 min
Histogram: 2 1 0 3 0 1 0 0 0 1
Nghost:         3249.5 ave        3286 max        3208 min
Histogram: 2 0 1 0 0 0 1 3 0 1
Neighs:        26637.4 ave       33157 max       23310 min
Histogram: 2 1 1 2 0 1 0 0 0 1

Total # of neighbors = 213099
Ave neighs/atom = 643.80363
Ave special neighs/atom = 0
Neighbor list builds = 300
Dangerous builds not checked
undump dump_pos${dir}
undump dump_pos6

# Run equilibration
print "*****Equilibration pos${dir} starts.*****"
*****Equilibration pos6 starts.*****
include ff.mod.lmp
# Setup forcefield, system
# undefine any fix ave/* fix before using reset_timestep
if "$(is_defined(fix,avgp))" then "unfix avgp"
unfix avgp
reset_timestep 0

# Assign the force field
pair_style reaxff NULL safezone 3.0 mincap 150
# pair_coeff * * CHONSSi.ff O Si
# pair_coeff * * CHOSiNa.ff O Si
# pair_coeff * * SiOCHN_2018.ff O Si
# pair_coeff * * PDMSDecomp.ff Si O
pair_coeff * * CHONSi.ff C H O Si
# pair_coeff * * CHOFe.ff O Si

# charge method for reaxff
fix myqeq all qeq/reaxff 1 0.0 10.0 1.0e-6 reaxff maxiter 400
# Setup neighbor style
neighbor        2 bin
neigh_modify    every 10 delay 0 check no

# Setup output
fix avgp all ave/time  ${nevery} ${nrepeat} ${nfreq} c_thermo_press mode vector
fix avgp all ave/time  10 ${nrepeat} ${nfreq} c_thermo_press mode vector
fix avgp all ave/time  10 10 ${nfreq} c_thermo_press mode vector
fix avgp all ave/time  10 10 100 c_thermo_press mode vector
thermo		${nthermo}
thermo		100
thermo_style custom step temp pe press f_avgp[1] vol
WARNING: New thermo_style command, previous thermo_modify settings will be lost (src/output.cpp:903)
thermo_modify norm no

# NVT
fix 4 all nvt temp ${temp} ${temp} ${tdamp}
fix 4 all nvt temp 300 ${temp} ${tdamp}
fix 4 all nvt temp 300 300 ${tdamp}
fix 4 all nvt temp 300 300 50
run ${nequil}
run 3000
Neighbor list info ...
  update: every = 10 steps, delay = 0 steps, check = no
  max neighbors/atom: 2000, page size: 100000
  master list distance cutoff = 12
  ghost atom cutoff = 12
  binsize = 6, bins = 4 3 3
  2 neighbor lists, perpetual/occasional/extra = 2 0 0
  (1) pair reaxff, perpetual
      attributes: half, newton off, ghost
      pair build: half/bin/newtoff/ghost
      stencil: full/ghost/bin/3d
      bin: standard
  (2) fix qeq/reaxff, perpetual, copy from (1)
      attributes: half, newton off
      pair build: copy
      stencil: none
      bin: none
Per MPI rank memory allocation (min/avg/max) = 124.1 | 125.7 | 127.2 Mbytes
   Step          Temp          PotEng         Press        f_avgp[1]        Volume    
         0   282.95594     -36522.518      11711.486      0              3602.6891    
       100   288.14598     -36519.046     -17833.817      481.89755      3602.6891    
       200   304.88391     -36506.489      14645.389     -1109.3967      3602.6891    
       300   316.10067     -36501.972      4578.6513     -1835.7315      3602.6891    
       400   286.38199     -36504.491     -8784.4606     -3367.755       3602.6891    
       500   286.67935     -36518.635     -10082.168     -3761.785       3602.6891    
       600   307.68237     -36538.899     -8637.4026     -4264.455       3602.6891    
       700   299.97911     -36529.985     -12391.769     -64.594934      3602.6891    
       800   295.55844     -36518.167      10765.975      2876.9292      3602.6891    
       900   321.58369     -36528.852     -5359.71       -3490.3656      3602.6891    
      1000   320.60556     -36510.544      8001.9397     -4247.3675      3602.6891    
      1100   318.00217     -36503.072     -12061.078     -4880.5681      3602.6891    
      1200   295.26109     -36518.344      4021.5647      2867.5731      3602.6891    
      1300   287.17366     -36515.868     -9521.8567     -4341.4607      3602.6891    
      1400   313.11289     -36543.123     -2820.2877     -2260.5007      3602.6891    
      1500   286.55248     -36538.705      5631.934      -7252.023       3602.6891    
      1600   293.24327     -36557.034     -1862.8099     -5203.809       3602.6891    
      1700   290.45194     -36537.085     -4872.2        -5206.6772      3602.6891    
      1800   306.68823     -36520.488      1173.9737      79.04658       3602.6891    
      1900   293.02631     -36502         -4894.8369     -2694.8141      3602.6891    
      2000   300.63827     -36516.138     -9949.0883     -5012.0757      3602.6891    
      2100   290.32736     -36535.463     -9781.2878     -1623.2158      3602.6891    
      2200   285.62949     -36534.996     -1615.6203     -2488.3302      3602.6891    
      2300   297.3573      -36531.477     -5992.9838     -2886.4844      3602.6891    
      2400   307.07404     -36519.103     -18700.717     -5859.1806      3602.6891    
      2500   307.58676     -36522.095     -15124.958     -2502.1479      3602.6891    
      2600   309.07764     -36535.549     -12517.277     -4520.6131      3602.6891    
      2700   301.47922     -36546.661      448.18779     -3235.8545      3602.6891    
      2800   286.68218     -36530.774     -6769.7776     -8015.4752      3602.6891    
      2900   318.75353     -36525.18      -12224.992     -7297.8665      3602.6891    
      3000   301.19075     -36503.591      5946.8082     -3573.8188      3602.6891    
Loop time of 137.144 on 8 procs for 3000 steps with 331 atoms

Performance: 0.945 ns/day, 25.397 hours/ns, 21.875 timesteps/s, 7.241 katom-step/s
98.9% CPU use with 8 MPI tasks x 1 OpenMP threads

MPI task timing breakdown:
Section |  min time  |  avg time  |  max time  |%varavg| %total
---------------------------------------------------------------
Pair    | 73.809     | 93.26      | 113.27     | 161.8 | 68.00
Bond    | 0.0071257  | 0.0080326  | 0.0091032  |   0.7 |  0.01
Neigh   | 7.3697     | 9.0156     | 10.584     |  49.4 |  6.57
Comm    | 1.1138     | 21.157     | 40.589     | 340.0 | 15.43
Output  | 0.0011868  | 0.0013074  | 0.0018562  |   0.6 |  0.00
Modify  | 12.098     | 13.639     | 15.251     |  40.0 |  9.94
Other   |            | 0.06386    |            |       |  0.05

Nlocal:         41.375 ave          47 max          35 min
Histogram: 1 2 0 0 0 1 1 1 0 2
Nghost:        3269.38 ave        3317 max        3226 min
Histogram: 1 2 0 0 2 0 0 1 1 1
Neighs:        26643.4 ave       30041 max       22719 min
Histogram: 1 2 0 0 0 0 2 1 0 2

Total # of neighbors = 213147
Ave neighs/atom = 643.94864
Ave special neighs/atom = 0
Neighbor list builds = 300
Dangerous builds not checked

# Obtain new stress tensor, convert index from LAMMPS to Voigt
variable pxx1 equal f_avgp[1]
variable pyy1 equal f_avgp[2]
variable pzz1 equal f_avgp[3]
variable pxy1 equal f_avgp[4]
variable pxz1 equal f_avgp[5]
variable pyz1 equal f_avgp[6]

# Compute elastic constant from pressure tensor
# d1 = -[pxx1-pxx0]/[(]v_delta/v_len0] defined in input script
variable C1pos equal ${d1}
variable C1pos equal -69.6973726093462
variable C2pos equal ${d2}
variable C2pos equal -60.2293001082528
variable C3pos equal ${d3}
variable C3pos equal -28.6668263620229
variable C4pos equal ${d4}
variable C4pos equal -4.41667963541492
variable C5pos equal ${d5}
variable C5pos equal -20.7102431560862
variable C6pos equal ${d6}
variable C6pos equal 4.77674852324829

# Combine positive and negative
variable C1${dir} equal 0.5*(${C1neg}+${C1pos})
variable C16 equal 0.5*(${C1neg}+${C1pos})
variable C16 equal 0.5*(122.066316492452+${C1pos})
variable C16 equal 0.5*(122.066316492452+-69.6973726093462)
variable C2${dir} equal 0.5*(${C2neg}+${C2pos})
variable C26 equal 0.5*(${C2neg}+${C2pos})
variable C26 equal 0.5*(96.2984323497209+${C2pos})
variable C26 equal 0.5*(96.2984323497209+-60.2293001082528)
variable C3${dir} equal 0.5*(${C3neg}+${C3pos})
variable C36 equal 0.5*(${C3neg}+${C3pos})
variable C36 equal 0.5*(64.2580692991529+${C3pos})
variable C36 equal 0.5*(64.2580692991529+-28.6668263620229)
variable C4${dir} equal 0.5*(${C4neg}+${C4pos})
variable C46 equal 0.5*(${C4neg}+${C4pos})
variable C46 equal 0.5*(17.4533048890275+${C4pos})
variable C46 equal 0.5*(17.4533048890275+-4.41667963541492)
variable C5${dir} equal 0.5*(${C5neg}+${C5pos})
variable C56 equal 0.5*(${C5neg}+${C5pos})
variable C56 equal 0.5*(8.13197082417257+${C5pos})
variable C56 equal 0.5*(8.13197082417257+-20.7102431560862)
variable C6${dir} equal 0.5*(${C6neg}+${C6pos})
variable C66 equal 0.5*(${C6neg}+${C6pos})
variable C66 equal 0.5*(-10.6265853559413+${C6pos})
variable C66 equal 0.5*(-10.6265853559413+4.77674852324829)

# Delete dir to make sure it is not reused
variable dir delete

# Calc and output
include calc.mod.lmp
variable C11all equal ${C11}
variable C11all equal 83.2480262267789
variable C22all equal ${C22}
variable C22all equal -19.6761598340046
variable C33all equal ${C33}
variable C33all equal 22.6893069749898

variable C44all equal ${C44}
variable C44all equal 3.6679588615518
variable C55all equal ${C55}
variable C55all equal 5.59889305428619
variable C66all equal ${C66}
variable C66all equal -2.92491841634651

variable C12all equal 0.5*(${C12}+${C21})
variable C12all equal 0.5*(5.8283782985325+${C21})
variable C12all equal 0.5*(5.8283782985325+-3.79075278813535)
variable C13all equal 0.5*(${C13}+${C31})
variable C13all equal 0.5*(18.0065310832824+${C31})
variable C13all equal 0.5*(18.0065310832824+29.4282121289192)
variable C23all equal 0.5*(${C23}+${C32})
variable C23all equal 0.5*(-2.25897074874935+${C32})
variable C23all equal 0.5*(-2.25897074874935+3.54809305533295)

variable C14all equal 0.5*(${C14}+${C41})
variable C14all equal 0.5*(-46.455545190302+${C41})
variable C14all equal 0.5*(-46.455545190302+0.250112919879506)
variable C15all equal 0.5*(${C15}+${C51})
variable C15all equal 0.5*(10.0148575203375+${C51})
variable C15all equal 0.5*(10.0148575203375+5.3248133926808)
variable C16all equal 0.5*(${C16}+${C61})
variable C16all equal 0.5*(26.1844719415529+${C61})
variable C16all equal 0.5*(26.1844719415529+-8.10927762324136)

variable C24all equal 0.5*(${C24}+${C42})
variable C24all equal 0.5*(-25.1606750145868+${C42})
variable C24all equal 0.5*(-25.1606750145868+-0.49685914342823)
variable C25all equal 0.5*(${C25}+${C52})
variable C25all equal 0.5*(-19.0399991074703+${C52})
variable C25all equal 0.5*(-19.0399991074703+-5.84984406231075)
variable C26all equal 0.5*(${C26}+${C62})
variable C26all equal 0.5*(18.034566120734+${C62})
variable C26all equal 0.5*(18.034566120734+-3.14427555027279)

variable C34all equal 0.5*(${C34}+${C43})
variable C34all equal 0.5*(-16.8931777094221+${C43})
variable C34all equal 0.5*(-16.8931777094221+-10.5724172260959)
variable C35all equal 0.5*(${C35}+${C53})
variable C35all equal 0.5*(-12.1794718769517+${C53})
variable C35all equal 0.5*(-12.1794718769517+3.90343157396607)
variable C36all equal 0.5*(${C36}+${C63})
variable C36all equal 0.5*(17.795621468565+${C63})
variable C36all equal 0.5*(17.795621468565+0.269762633466695)

variable C45all equal 0.5*(${C45}+${C54})
variable C45all equal 0.5*(-19.1695973678728+${C54})
variable C45all equal 0.5*(-19.1695973678728+6.85492205185294)
variable C46all equal 0.5*(${C46}+${C64})
variable C46all equal 0.5*(6.51831262680629+${C64})
variable C46all equal 0.5*(6.51831262680629+2.19721315508529)
variable C56all equal 0.5*(${C56}+${C65})
variable C56all equal 0.5*(-6.28913616595682+${C65})
variable C56all equal 0.5*(-6.28913616595682+-8.23936666578853)

# print stiffness tensor to "C.log"
print """
# stiffness tensor (GPa) for ${structure} by change-box method
${C11all} ${C12all} ${C13all} ${C14all} ${C15all} ${C16all}
${C12all} ${C22all} ${C23all} ${C24all} ${C25all} ${C26all}
${C13all} ${C23all} ${C33all} ${C34all} ${C35all} ${C36all}
${C14all} ${C24all} ${C34all} ${C44all} ${C45all} ${C46all}
${C15all} ${C25all} ${C35all} ${C45all} ${C55all} ${C56all}
${C16all} ${C26all} ${C36all} ${C46all} ${C56all} ${C66all}
"""  file C.log screen no

Total wall time: 1:00:52
