ITEM: TIMESTEP
0
ITEM: NUMBER OF ATOMS
365
ITEM: BOX BOUNDS xy xz yz pp pp pp
-7.7317999999999998e+00 1.5563499999999999e+01 -7.7317999999999998e+00
-1.3819999999999999e-01 1.3846299999999999e+01 2.4629999999999999e-01
0.0000000000000000e+00 1.8322199999999999e+01 -1.3819999999999999e-01
ITEM: ATOMS id type q x y z
7 4 0.614923 1.05049 3.2189 0.40181
8 2 -0.0121437 1.55758 2.16531 1.3004
9 2 -0.0268031 1.17115 4.58768 0.96453
10 3 -0.613448 -0.54269 2.91293 0.15365
13 4 1.52458 1.27069 2.33838 6.7255
16 4 1.12126 0.01947 3.77996 9.14392
30 4 0.671858 2.42981 2.84121 3.96556
68 1 -0.14644 -2.02455 6.7625 4.28453
69 1 -0.121003 -0.89429 6.40963 7.14121
77 1 -0.147433 1.47108 6.26962 3.86129
96 2 -0.0360528 -1.16907 4.62672 9.05266
102 2 -0.0356425 1.20847 3.37375 3.31395
126 2 0.0100072 -1.40598 5.95843 3.86638
128 2 0.0182103 -2.9838 6.32658 4.58914
129 2 0.0474931 -0.11992 5.68077 6.86842
130 2 0.0404398 -1.80165 5.85266 7.41072
143 2 0.048148 1.86737 0.47136 3.62169
151 2 0.04448 1.32384 5.66465 4.7651
152 2 0.0329824 2.47863 6.05132 3.487
153 2 0.0108892 0.75293 5.92704 3.10412
201 3 -0.698671 0.1714 1.43238 5.93921
202 3 -0.866329 2.11907 1.36434 7.71144
205 3 -0.803015 0.63293 3.53933 7.63762
219 3 -0.743343 2.21549 3.04479 5.59647
318 1 -0.129243 -1.5941 2.95293 4.28831
319 2 0.0415219 -0.74909 3.31327 3.68569
320 2 0.0201636 -1.78167 3.69119 5.08301
347 2 0.00783089 -1.78931 5.48386 0.37606
349 2 0.0189037 -0.12383 0.60855 1.52875
11 4 1.57394 2.91948 0.44248 8.78312
29 4 1.06282 7.03584 0.73798 2.68141
31 4 1.08653 5.59404 2.26531 0.56824
32 4 1.10268 8.11789 -0.01656 7.96102
34 4 1.13751 6.7884 2.70279 6.81852
37 4 1.13813 4.7773 4.56161 2.57128
39 4 1.52682 5.52368 4.85256 8.55587
41 4 1.09788 4.03743 6.8659 6.50899
53 4 1.1039 8.34219 2.93442 4.23655
56 4 1.07742 6.32092 6.46332 4.48591
59 4 0.323986 8.82986 6.48401 6.31248
74 1 -0.109264 2.76884 1.08497 3.49919
75 1 -0.0625234 5.15016 2.36984 6.08021
107 2 -0.0721571 4.09118 5.62275 1.81219
109 2 -0.0415505 2.80459 6.09954 6.27214
112 2 -0.0632266 8.357 0.57824 2.05434
142 2 0.076014 3.08582 1.029 2.44927
144 2 0.067625 3.57013 0.65853 4.11688
145 2 0.114111 5.19839 1.4658 5.46259
146 2 0.139734 4.82978 3.20846 5.45502
147 2 0.110991 4.40032 2.21725 6.86288
155 2 0.00153943 2.58967 6.62088 1.0569
189 2 0.10975 8.46256 6.20626 8.76035
220 3 -0.724362 5.87492 0.94827 1.52814
222 3 -0.727523 7.34557 1.33136 7.49458
226 3 -0.704409 3.68425 3.77251 3.47889
227 3 -0.692612 5.52652 3.59854 1.49896
229 3 -0.794905 4.28271 3.88919 9.03481
230 3 -0.766584 6.69192 3.91594 7.93684
233 3 -0.816883 4.95374 6.0137 7.57105
255 3 -0.696705 7.09255 2.09293 3.58057
256 3 -0.694344 7.90633 3.24724 5.76621
258 3 -0.681576 8.53867 4.32792 3.3912
260 3 -0.679858 5.8974 5.18948 3.55815
263 3 -0.751655 8.1275 5.55346 1.01549
266 3 -0.571112 7.38502 6.01599 5.61285
1 4 0.550281 13.8473 1.28682 5.05104
2 1 -0.118413 12.5615 0.74579 6.27062
3 2 0.0418421 11.607 0.46546 5.81476
4 2 0.0329581 12.3678 1.56608 6.98
6 3 -0.596003 14.0828 0.15557 3.84786
55 4 1.08085 9.19017 4.67677 1.93997
85 1 -0.166425 9.91325 1.97687 4.30485
88 1 -0.138877 10.7656 5.58594 2.20099
90 1 -0.0796929 10.1399 5.14804 6.34885
170 2 0.00615976 10.6956 2.60275 4.75241
171 2 0.0223439 10.2511 1.63465 3.32196
172 2 0.055585 9.77496 1.11102 4.96399
178 2 0.0359098 10.5893 6.59577 2.59317
179 2 0.0650324 11.337 5.66844 1.27268
180 2 0.0219149 11.3904 5.04116 2.91968
184 2 0.0433098 10.4166 4.82727 5.33582
185 2 0.0869713 9.8539 4.26145 6.92499
186 2 0.044967 11.0299 5.59303 6.81823
259 3 -0.684666 9.44425 3.22068 1.20576
313 2 0.0153682 11.7976 3.66727 8.65276
339 1 -0.124611 12.1468 0.47018 1.75869
340 2 0.0240323 11.9968 0.3047 0.68373
341 2 0.0573391 11.9677 1.52902 1.97207
351 2 0.0272766 12.5912 2.92713 3.64076
365 3 -0.611235 11.8208 3.09743 0.03168
14 4 0.676488 0.78003 2.77872 13.1198
15 4 0.646488 -1.66944 6.51626 17.7899
19 4 1.12201 -0.84866 5.17837 13.7476
40 4 1.12472 1.43079 6.04547 10.6571
43 4 1.12508 0.93955 6.50627 16.0452
67 1 -0.12929 0.43455 2.43638 14.8981
80 1 -0.14408 2.43866 6.83178 9.36657
97 2 0.00830198 -1.84522 4.45161 14.5261
104 2 0.0443011 2.22212 2.96713 12.8692
110 2 -0.0102576 1.93503 5.54559 16.5486
123 2 0.0260218 0.81034 1.47203 15.2498
124 2 0.0173763 -0.6463 2.46291 15.0626
125 2 0.0831411 0.89472 3.22172 15.5082
203 3 -0.661482 0.26133 1.54502 12.1619
204 3 -0.701892 -0.3929 2.30578 9.69536
206 3 -0.630752 -0.06749 4.15035 12.7352
207 3 -0.610899 -2.55842 6.07915 16.4685
209 3 -0.806607 -1.61948 6.31796 12.8635
224 3 -0.682561 2.16664 3.01349 17.3239
231 3 -0.715692 1.09815 4.51199 10.1439
236 3 -0.728342 0.26406 5.90354 14.6959
238 3 -0.794091 2.26615 6.09776 12.0706
346 2 0.0434537 -1.49833 3.8495 16.5169
33 4 1.14281 4.18627 2.87083 10.3196
35 4 1.03046 3.63393 2.48001 16.8145
36 4 0.658598 6.5112 3.11848 12.4031
42 4 1.4812 4.96442 4.31698 14.6912
44 4 1.58517 3.61036 6.37509 12.9393
57 4 1.46079 8.72469 6.29545 18.0016
61 4 1.19531 6.43598 6.72288 15.8099
73 1 -0.159485 9.06993 0.44614 9.45937
76 1 -0.152875 3.58518 1.12603 15.5689
103 2 0.00941347 3.20627 3.3882 11.275
105 2 0.0320741 7.11845 4.45982 12.2621
106 2 -0.0289457 7.53708 2.06039 12.5864
141 2 0.0421028 8.37726 0.95341 10.1457
148 2 0.028759 3.03109 0.26074 15.9444
149 2 0.0581842 4.61638 0.80067 15.3681
150 2 0.0276123 3.14885 1.4424 14.614
161 2 0.0716442 3.29728 6.18684 9.1699
221 3 -0.780642 3.76271 1.39001 9.80297
223 3 -0.745103 4.37991 1.93921 18.1702
225 3 -0.685444 5.64246 2.75142 11.0657
234 3 -0.796451 4.44348 3.74508 16.1246
235 3 -0.755575 5.55101 3.10663 13.7576
239 3 -0.85113 3.7379 5.07765 13.9284
264 3 -0.812805 6.13847 5.58214 9.87116
265 3 -0.816933 4.93935 6.52377 12.0107
269 3 -0.798514 6.16589 5.39292 14.8986
270 3 -0.816593 7.55331 6.21158 16.8812
314 2 0.0431211 9.08339 4.59857 10.94
316 2 0.095337 8.91554 3.87361 9.32551
331 1 -0.125487 7.12659 2.30853 17.5719
332 2 0.038126 6.76833 1.90607 16.6156
333 2 0.0170677 8.03703 1.7617 17.8422
334 2 0.105565 7.38585 3.36316 17.4179
358 2 0.0701238 5.40947 0.53647 12.3771
359 2 0.0247361 7.65955 0.27156 14.6699
360 2 0.0121343 8.12589 0.10087 16.3747
12 4 0.998462 14.5563 1.2913 10.9104
20 4 0.917039 10.9817 5.7545 16.0396
54 4 0.612703 11.8168 1.36091 12.7072
60 4 0.590813 10.1734 3.44087 14.1544
86 1 -0.15225 10.3088 0.32012 12.4448
87 1 -0.142984 12.8047 0.58192 14.0619
117 2 -0.0335154 9.45741 2.30237 14.7921
119 2 -0.0247641 9.22311 4.32504 13.4377
120 2 -0.0622033 9.15989 6.14545 12.3498
134 2 0.0695597 9.27313 6.67583 14.6208
140 2 0.0324348 9.88491 1.13837 9.21164
174 2 0.0313039 9.53275 0.82769 11.8663
175 2 0.00968277 9.89006 0.10324 13.4361
176 2 0.0512825 13.8759 0.78082 14.0067
177 2 0.0194703 12.4355 0.87354 15.053
257 3 -0.62802 12.7439 1.52891 11.3527
262 3 -0.778946 10.0988 5.64888 17.4213
267 3 -0.608539 11.2994 2.87959 13.1097
268 3 -0.654396 10.9505 4.28719 15.3176
283 4 0.538986 13.4591 2.7651 17.504
284 2 -0.0233802 13.3616 1.42821 16.8614
308 4 0.63275 10.4936 2.47802 18.241
309 2 0.031905 9.90442 2.93811 16.9771
310 4 0.297132 11.295 4.45938 9.81253
311 1 -0.0921558 9.55787 3.92609 10.2148
312 2 0.100272 12.2045 4.29014 10.9728
315 2 0.0365508 9.59698 2.9272 10.6694
317 3 -0.707857 11.3478 6.06463 9.37504
350 2 -0.0384443 10.3765 0.9942 18.3042
23 4 1.55393 -2.68192 9.51091 7.64097
25 4 1.09018 -3.72614 12.3391 6.69043
46 4 1.09125 -1.38197 12.0517 4.61843
70 1 -0.150105 -5.34088 12.4954 5.83268
79 1 -0.126654 -2.05742 10.6986 3.56159
127 2 0.0419425 -2.22868 7.48988 3.48726
132 2 0.0105356 -5.23203 12.2926 4.76545
133 2 0.0463728 -6.0508 11.7694 6.24508
158 2 0.0148723 -2.76865 11.1003 2.82795
159 2 0.0717047 -2.56755 9.93173 4.15596
210 3 -0.85892 -3.57974 8.59864 8.65741
211 3 -0.747502 -2.35157 8.68714 6.28727
213 3 -0.815453 -3.57831 10.8015 7.2418
214 3 -0.779142 -3.73657 13.3471 7.99494
242 3 -0.703586 -2.46194 12.6644 5.70062
321 1 -0.107723 -2.71728 8.11644 0.27624
322 2 0.0308206 -2.4115 8.23763 1.32244
323 2 0.0719174 -3.81146 8.01771 0.24574
324 1 -0.113702 -5.4547 11.8166 2.0205
325 2 0.0522987 -4.96877 11.314 1.17088
326 2 0.0243027 -4.70203 12.452 2.50506
327 2 0.0717487 -6.24165 12.4692 1.6267
348 2 -0.0197891 -4.91642 10.0857 4.02971
353 2 0.0904146 -5.39882 10.5934 8.40096
354 2 0.0809351 -5.78552 13.4891 5.93507
18 4 0.662024 -1.24965 7.57579 5.75675
38 4 0.583416 1.30256 8.0922 4.21877
45 4 0.641692 0.74908 8.23992 1.3144
48 4 1.05514 2.73518 9.56345 7.6682
50 4 1.10052 1.49388 11.9397 5.81605
78 1 -0.111066 2.39645 7.64242 0.70579
83 1 -0.139572 2.38236 12.2936 4.23585
108 2 0.0432998 2.54646 8.69398 4.72639
111 2 -0.0205063 -0.259 7.15781 1.44817
113 2 -0.00251691 1.44996 9.0577 8.16799
131 2 0.0801595 -0.56045 6.95478 8.03711
156 2 0.0681447 3.18318 8.29509 1.10831
157 2 0.0985408 -1.22621 10.2256 3.0199
160 2 0.0199847 1.8608 6.91754 8.43984
166 2 0.0279824 1.85206 13.0744 3.67634
167 2 0.0592383 2.38716 11.382 3.622
168 2 0.0333607 3.42131 12.6073 4.39012
192 2 0.0599077 3.51934 12.8401 8.58971
228 3 -0.579574 0.13846 8.36309 5.34227
240 3 -0.611529 0.93481 8.8958 2.82279
241 3 -0.756603 -1.00608 13.3094 3.62753
243 3 -0.639978 0.09356 9.42248 0.38033
244 3 -0.759475 3.6395 8.38196 6.9767
245 3 -0.707868 -1.2808 9.98722 8.33102
246 3 -0.633992 -0.70825 12.6554 8.29287
247 3 -0.670901 -0.047 11.5193 5.42003
248 3 -0.733465 2.34074 10.782 6.63849
249 3 -0.739513 1.39496 13.2805 6.77451
261 3 -0.76474 4.91931 7.01653 5.14936
273 3 -0.682503 3.67924 10.0578 8.91183
291 1 -0.0658209 4.97814 10.2294 4.14206
297 2 0.0715413 4.08591 10.2231 4.77863
299 2 0.100883 4.7821 10.8327 3.24909
335 1 -0.157473 0.22939 12.2437 0.70954
336 2 0.00498397 0.66813 13.156 0.2855
337 2 0.0468121 0.61389 12.127 1.73002
338 2 0.0434283 -0.86013 12.3725 0.7659
361 2 0.037498 3.67019 13.707 2.28906
5 2 0.054241 5.19994 13.7338 6.84258
89 1 -0.111501 9.51106 7.8916 5.3105
91 1 -0.0534554 8.41193 7.03097 8.04153
121 2 -0.0313381 6.875 7.5474 3.66304
181 2 0.0619263 9.57324 7.63756 4.24442
182 2 0.0620125 10.5151 8.17567 5.6488
183 2 0.0413639 8.87146 8.77618 5.39768
187 2 0.0785991 7.40386 7.46116 8.08017
188 2 0.0768908 9.10763 7.81564 8.35647
193 2 0.0554698 5.27756 12.7734 8.7849
285 4 0.635153 9.00864 10.4948 3.19178
286 4 0.630647 6.11022 13.7566 2.23371
287 4 1.06872 7.70497 8.92501 0.97335
288 4 1.02188 6.31877 11.5133 0.21063
289 4 0.315011 6.44035 10.8382 5.11246
290 1 -0.132443 6.05541 8.10463 1.15803
292 1 -0.0962534 6.74074 9.71107 6.56643
293 2 0.059906 6.20128 12.1902 5.67916
294 2 0.0531003 6.13403 7.07044 1.50835
295 2 0.0655984 5.53867 8.10651 0.18925
296 2 0.0390019 5.42556 8.66318 1.86184
298 2 0.0622538 5.15645 9.18972 3.84242
300 2 0.0268442 7.72908 9.85562 7.01563
301 2 0.0706694 6.64338 8.65534 6.29167
302 2 0.0927002 5.9881 9.9118 7.34338
303 3 -0.762912 8.7035 8.00703 0.02944
304 3 -0.67757 8.53471 9.1471 2.35838
305 3 -0.679176 7.48955 10.3752 0.24522
306 3 -0.654782 6.16234 12.1702 1.72239
307 3 -0.56562 7.75882 10.9632 4.12397
329 2 0.0616436 7.95251 10.8322 8.82284
17 4 1.43019 -3.69599 7.58949 9.92426
22 4 0.63004 -3.24353 11.8132 16.9822
24 4 0.981821 -5.81474 11.9459 10.4525
26 4 1.03987 -1.42653 9.90273 13.4914
27 4 0.57582 -5.54151 11.2149 14.8269
28 4 0.66151 -3.18729 12.1331 12.3459
72 1 -0.102915 -2.14878 9.02715 14.9505
82 1 -0.110772 -1.9629 13.4598 11.902
92 1 -0.0995881 -6.39669 12.8041 14.3746
98 2 -0.00915835 -2.91871 10.7183 17.9275
99 2 0.0169294 -3.49299 13.0763 17.7147
100 2 0.059771 -4.74001 10.5773 13.7645
101 2 -0.0119962 -3.72021 12.5787 13.6605
114 2 0.0706838 -2.3619 11.622 9.87574
137 2 0.116459 -1.42929 9.06203 15.7802
138 2 0.0864641 -2.31792 7.97155 14.7216
139 2 0.0525061 -3.09648 9.46211 15.2857
190 2 0.0281155 -6.47858 13.4442 15.2566
191 2 0.0677309 -5.87957 13.357 13.5841
208 3 -0.861021 -2.42697 7.85542 10.8979
212 3 -0.775624 -5.87223 13.404 9.66141
216 3 -0.613614 -4.60081 11.3983 16.1651
217 3 -0.662864 -4.41838 11.9518 11.2898
218 3 -0.661836 -2.50542 10.6415 12.5108
254 3 -0.707362 -1.96935 12.0415 15.9662
352 2 0.0757538 -2.19556 8.89564 18.0669
356 2 0.0914676 -1.83945 13.663 10.8332
364 2 0.0586821 -6.96804 12.9985 17.5569
21 4 1.59504 -1.14415 7.45811 11.7927
47 4 1.06091 0.93912 10.6431 18.0354
49 4 0.70183 -1.06041 11.3563 9.23663
51 4 1.15097 2.82239 8.74565 14.9126
52 4 0.994944 -0.41201 11.8102 15.487
63 4 0.588831 4.25743 11.0325 10.1075
65 4 1.06803 3.89092 10.6165 17.0493
81 1 -0.104405 0.34552 11.045 10.3801
84 1 -0.167504 0.41752 13.4539 15.3957
93 1 -0.120882 4.32165 12.7162 9.32709
94 1 -0.125058 3.31984 10.6898 11.6865
95 1 -0.169613 3.8719 12.1633 16.0511
115 2 -0.00536719 2.2169 9.87246 14.187
116 2 0.00192358 5.22013 7.98522 9.94817
118 2 -0.00599462 5.22345 7.13712 16.5302
154 2 0.0938213 2.72843 7.51451 17.9365
162 2 0.036577 2.79765 7.82036 9.67021
163 2 0.0340322 1.27061 11.0261 9.79027
164 2 0.116759 0.25421 10.0856 10.8997
165 2 0.0307665 0.4283 11.8406 11.1316
169 2 0.0135926 1.46929 13.3452 15.11
173 2 0.0102707 2.8028 13.2063 11.9688
194 2 0.0438421 4.29002 13.5596 10.0239
195 2 0.0825749 3.35125 9.60067 11.845
196 2 0.0327276 2.2726 10.9942 11.7171
197 2 0.025268 3.82916 11.1458 12.5471
198 2 0.0184612 3.16086 12.0833 15.2182
199 2 0.0228064 4.86662 12.3251 15.6245
200 2 0.00651097 3.61523 13.0465 16.6532
215 3 -0.776972 -0.61511 8.79315 12.5764
232 3 -0.819321 0.03878 6.88269 10.8506
237 3 -0.683469 -0.1706 6.8176 17.1879
250 3 -0.710603 1.66093 7.93003 15.7125
251 3 -0.795152 3.53478 7.73425 13.8388
252 3 -0.716957 -0.38651 11.0766 14.0147
253 3 -0.720807 0.35855 10.7913 16.5104
277 3 -0.713791 3.91669 9.32698 16.0037
278 3 -0.717899 5.17525 10.62 18.0621
279 3 -0.735435 2.56854 10.5038 17.9971
355 2 0.00872347 1.76524 13.4277 9.97075
357 2 0.0342524 -0.98626 13.2186 12.3462
362 2 0.00858191 4.9403 13.3456 13.9676
58 4 1.15266 5.88352 6.93997 10.7357
62 4 1.13346 8.84557 7.48218 11.8188
64 4 1.52731 7.63732 9.14878 14.023
66 4 1.04016 6.57124 11.1701 11.908
71 1 -0.114099 10.2643 7.01903 14.9359
122 2 -0.0673971 5.78933 12.284 12.4757
135 2 0.057005 10.8697 7.17027 14.0356
136 2 0.0868698 10.1462 7.98357 15.4448
271 3 -0.726929 10.007 7.91963 10.7621
272 3 -0.746633 7.34847 7.47809 11.1822
274 3 -0.77881 6.907 7.92467 14.8095
275 3 -0.79725 8.79946 8.59126 13.0145
276 3 -0.663849 8.3359 10.0976 15.1519
280 3 -0.684405 8.04998 11.7664 11.5667
281 3 -0.658305 5.82505 10.6227 10.549
282 3 -0.757167 6.6014 10.0147 13.0885
328 1 -0.0993901 8.95442 10.6242 9.22307
330 2 0.114662 8.92042 9.63777 9.69324
342 1 -0.140897 7.08542 12.6579 17.317
343 2 0.00615045 6.42813 13.5351 17.2869
344 2 0.0627527 7.1027 12.2045 16.3199
345 2 0.00153408 6.7277 13.764 10.4369
363 2 0.0668199 7.65443 12.6025 14.0266
ITEM: TIMESTEP
1
ITEM: NUMBER OF ATOMS
365
ITEM: BOX BOUNDS xy xz yz pp pp pp
-7.7317999999999998e+00 1.5563499999999999e+01 -7.7317999999999998e+00
-1.3819999999999999e-01 1.3846299999999999e+01 2.4629999999999999e-01
0.0000000000000000e+00 1.8322199999999999e+01 -1.3819999999999999e-01
ITEM: ATOMS id type q x y z
7 4 0.642982 1.03296 3.21142 0.360337
8 2 -0.0125013 1.57053 2.13963 1.3235
9 2 -0.0273073 1.17444 4.61926 0.978181
10 3 -0.632949 -0.544732 2.91244 0.153396
13 4 1.52581 1.27453 2.33007 6.72303
16 4 1.14396 0.052326 3.75329 9.1543
30 4 0.689422 2.46348 2.832 3.98028
68 1 -0.146331 -2.02876 6.75796 4.27756
69 1 -0.121001 -0.893003 6.40374 7.14785
77 1 -0.148836 1.47286 6.25952 3.85978
96 2 -0.027531 -1.20574 4.6523 9.04981
102 2 -0.0312228 1.17911 3.38635 3.29772
126 2 0.00983977 -1.40564 5.95996 3.86818
128 2 0.0185666 -2.98225 6.32762 4.59013
129 2 0.0484984 -0.120751 5.68246 6.8673
130 2 0.0398321 -1.80126 5.85424 7.40914
143 2 0.047949 1.86765 0.473441 3.62204
151 2 0.0444334 1.32354 5.66693 4.76465
152 2 0.0340952 2.47762 6.05322 3.48769
153 2 0.00991116 0.753398 5.92923 3.10525
201 3 -0.700451 0.168206 1.43203 5.9382
202 3 -0.874805 2.12023 1.36323 7.71099
205 3 -0.805899 0.631722 3.54012 7.63701
219 3 -0.749348 2.21573 3.04377 5.59485
318 1 -0.130164 -1.60554 2.95766 4.28491
319 2 0.0413692 -0.750121 3.31053 3.68639
320 2 0.020813 -1.78041 3.68896 5.08306
347 2 0.0107509 -1.78673 5.45674 0.397278
349 2 0.0183639 -0.122445 0.610374 1.52716
11 4 1.58407 2.91613 0.45196 8.78728
29 4 1.08727 6.99033 0.730558 2.69816
31 4 1.09785 5.59793 2.26813 0.581942
32 4 1.10601 8.11255 -0.0143661 7.9569
34 4 1.14199 6.79 2.70491 6.82776
37 4 1.17588 4.79562 4.52676 2.59087
39 4 1.53548 5.53205 4.8675 8.54523
41 4 1.13203 4.07365 6.88871 6.51954
53 4 1.1076 8.34922 2.91609 4.26858
56 4 1.10929 6.3026 6.42947 4.51076
59 4 0.329792 8.82604 6.48419 6.31099
74 1 -0.115199 2.76963 1.07906 3.49736
75 1 -0.0646244 5.14296 2.36836 6.07666
107 2 -0.0630403 4.07343 5.65066 1.79259
109 2 -0.0319329 2.77145 6.07879 6.26504
112 2 -0.0524657 8.39755 0.573241 2.03493
142 2 0.0735217 3.08548 1.03053 2.4505
144 2 0.063456 3.56919 0.660438 4.1168
145 2 0.110921 5.19968 1.46649 5.46342
146 2 0.134935 4.83113 3.20855 5.4556
147 2 0.109251 4.40176 2.21756 6.86319
155 2 0.00183352 2.58778 6.62242 1.05688
189 2 0.108006 8.46289 6.2062 8.75831
220 3 -0.74344 5.87565 0.948159 1.52618
222 3 -0.733391 7.34497 1.33248 7.4943
226 3 -0.728278 3.68308 3.77299 3.47821
227 3 -0.713483 5.52581 3.59978 1.49839
229 3 -0.7927 4.28281 3.88983 9.03538
230 3 -0.774352 6.69177 3.91413 7.93565
233 3 -0.841207 4.95225 6.01474 7.57051
255 3 -0.704345 7.09892 2.09603 3.58404
256 3 -0.704054 7.90792 3.24532 5.76156
258 3 -0.68098 8.54024 4.3229 3.39384
260 3 -0.706154 5.89638 5.19095 3.55682
263 3 -0.680595 8.13043 5.55621 1.01261
266 3 -0.587117 7.38887 6.01685 5.61484
1 4 0.556214 13.8553 1.28599 5.04694
2 1 -0.11776 12.5576 0.745147 6.2748
3 2 0.0419929 11.6091 0.466082 5.81373
4 2 0.0335673 12.3691 1.56565 6.97819
6 3 -0.600325 14.0814 0.156016 3.84801
55 4 1.06973 9.22594 4.63188 1.98297
85 1 -0.170501 9.90139 1.98434 4.3053
88 1 -0.137137 10.7702 5.58797 2.20224
90 1 -0.0804741 10.1455 5.1438 6.34889
170 2 0.0049669 10.6938 2.60292 4.75174
171 2 0.0215601 10.2492 1.63587 3.3225
172 2 0.0538583 9.77363 1.11236 4.96322
178 2 0.0394998 10.588 6.59418 2.59243
179 2 0.0676795 11.335 5.66761 1.27275
180 2 0.0178663 11.3885 5.04086 2.91886
184 2 0.0429936 10.4149 4.82878 5.33663
185 2 0.086509 9.85231 4.26329 6.92452
186 2 0.0445617 11.028 5.5934 6.81783
259 3 -0.703768 9.44416 3.22167 1.20533
313 2 0.0150952 11.8092 3.6491 8.62691
339 1 -0.126413 12.1428 0.471821 1.75691
340 2 0.0229194 11.9984 0.304483 0.685075
341 2 0.0545597 11.9696 1.52794 1.97235
351 2 0.0264417 12.6003 2.92622 3.64455
365 3 -0.636956 11.8209 3.09786 0.0301642
14 4 0.689141 0.741132 2.76888 13.12
15 4 0.663651 -1.67214 6.54211 17.7613
19 4 1.14363 -0.816804 5.19835 13.731
40 4 1.14218 1.4201 6.05009 10.6683
43 4 1.16155 0.908414 6.53553 16.0299
67 1 -0.132187 0.433161 2.43469 14.9062
80 1 -0.142394 2.4436 6.83535 9.36021
97 2 0.0183567 -1.87731 4.42854 14.5512
104 2 0.0482641 2.26104 2.97282 12.8625
110 2 -0.000956142 1.96203 5.51941 16.5625
123 2 0.0260566 0.810396 1.4731 15.2478
124 2 0.015038 -0.645131 2.46304 15.061
125 2 0.0822547 0.894715 3.22151 15.5065
203 3 -0.681766 0.261013 1.54283 12.1621
204 3 -0.727562 -0.394575 2.30442 9.69551
206 3 -0.652369 -0.0673277 4.1486 12.7362
207 3 -0.618699 -2.55935 6.0796 16.4703
209 3 -0.814735 -1.61906 6.32135 12.8608
224 3 -0.699321 2.16509 3.01334 17.3246
231 3 -0.73175 1.09823 4.51291 10.1434
236 3 -0.756568 0.264349 5.90245 14.6976
238 3 -0.802307 2.26721 6.0985 12.0694
346 2 0.042391 -1.4949 3.87115 16.4971
33 4 1.16677 4.20995 2.83919 10.2998
35 4 1.03381 3.62051 2.48754 16.8084
36 4 0.692966 6.4642 3.11165 12.4066
42 4 1.48502 4.96726 4.31438 14.6861
44 4 1.59505 3.61009 6.37573 12.9398
57 4 1.48881 8.70536 6.35819 17.9016
61 4 1.23271 6.48107 6.71068 15.7972
73 1 -0.158014 9.07561 0.449464 9.46897
76 1 -0.152382 3.58529 1.11832 15.5622
103 2 0.0187204 3.1761 3.40433 11.3038
105 2 0.0298876 7.1334 4.49246 12.2584
106 2 -0.029352 7.56155 2.03621 12.5905
141 2 0.0421324 8.37719 0.952572 10.1439
148 2 0.0273323 3.03146 0.262598 15.9453
149 2 0.0582428 4.61545 0.801985 15.3692
150 2 0.0269598 3.14912 1.44355 14.6159
161 2 0.072858 3.29643 6.18668 9.17081
221 3 -0.804313 3.76138 1.38913 9.80312
223 3 -0.740144 4.38037 1.93859 18.1697
225 3 -0.709195 5.64309 2.75185 11.0671
234 3 -0.794702 4.44327 3.74422 16.1257
235 3 -0.773439 5.55251 3.10611 13.7555
239 3 -0.854641 3.73796 5.07848 13.9276
264 3 -0.830391 6.13788 5.58449 9.87112
265 3 -0.83252 4.93907 6.52443 12.0086
269 3 -0.811593 6.16573 5.39483 14.9001
270 3 -0.88166 7.55466 6.21313 16.8838
314 2 0.0416809 9.08547 4.59861 10.9387
316 2 0.0945246 8.91762 3.87422 9.32569
331 1 -0.123337 7.13407 2.30926 17.5645
332 2 0.0388829 6.76727 1.9064 16.6175
333 2 0.0176953 8.0349 1.76204 17.8433
334 2 0.107584 7.38453 3.36245 17.4193
358 2 0.0679493 5.40891 0.534837 12.3767
359 2 0.0250021 7.65914 0.269391 14.6705
360 2 0.0120388 8.12516 0.0988646 16.3739
12 4 1.02299 14.5531 1.33765 10.9274
20 4 0.916448 10.9694 5.75443 16.0573
54 4 0.618695 11.8205 1.36653 12.7025
60 4 0.617012 10.2155 3.44786 14.1588
86 1 -0.151478 10.3013 0.314023 12.4444
87 1 -0.143471 12.8088 0.57682 14.0687
117 2 -0.0342872 9.44062 2.27638 14.8068
119 2 -0.0258704 9.20028 4.34572 13.4203
120 2 -0.0548319 9.16852 6.10902 12.3648
134 2 0.0637129 9.2741 6.67532 14.6219
140 2 0.032968 9.88355 1.13738 9.21045
174 2 0.0314123 9.53495 0.828481 11.8669
175 2 0.0100951 9.89167 0.104284 13.4349
176 2 0.0502408 13.8745 0.781867 14.0052
177 2 0.0189102 12.435 0.874418 15.0507
257 3 -0.639262 12.7474 1.52807 11.3529
262 3 -0.785279 10.0958 5.65153 17.4218
267 3 -0.623437 11.2985 2.87939 13.11
268 3 -0.665977 10.9496 4.28684 15.3171
283 4 0.561525 13.4584 2.77292 17.5437
284 2 -0.0238296 13.3599 1.39821 16.8458
308 4 0.671036 10.5147 2.50609 18.2788
309 2 0.0328786 9.88878 2.95073 16.944
310 4 0.308548 11.2618 4.48814 9.81058
311 1 -0.0948822 9.55272 3.92363 10.2166
312 2 0.0990973 12.2263 4.28526 11.0006
315 2 0.036568 9.59837 2.92868 10.6687
317 3 -0.715261 11.3488 6.06375 9.37595
350 2 -0.0396323 10.3742 0.960778 18.3052
23 4 1.54765 -2.68847 9.50431 7.63512
25 4 1.09847 -3.71767 12.3336 6.69006
46 4 1.10157 -1.38247 12.058 4.62161
70 1 -0.14791 -5.34936 12.4957 5.82771
79 1 -0.125961 -2.06114 10.6912 3.5557
127 2 0.0421048 -2.22758 7.48999 3.48938
132 2 0.0106474 -5.23059 12.2926 4.7669
133 2 0.0468448 -6.04906 11.7698 6.24542
158 2 0.0146429 -2.76743 11.1011 2.82944
159 2 0.0715544 -2.56652 9.93339 4.15672
210 3 -0.857201 -3.58063 8.59714 8.65902
211 3 -0.752011 -2.3511 8.68492 6.28478
213 3 -0.817377 -3.58088 10.8036 7.24099
214 3 -0.776827 -3.73846 13.3472 7.99458
242 3 -0.712505 -2.46342 12.6638 5.69912
321 1 -0.111114 -2.71935 8.12089 0.278688
322 2 0.0312026 -2.411 8.23608 1.32089
323 2 0.0719967 -3.80994 8.01653 0.245048
324 1 -0.113533 -5.45203 11.823 2.01498
325 2 0.0521476 -4.97022 11.3131 1.17301
326 2 0.02395 -4.70355 12.4498 2.50621
327 2 0.0716857 -6.24182 12.4675 1.62808
348 2 -0.0190827 -4.91351 10.0849 4.03273
353 2 0.0907136 -5.40579 10.5949 8.40589
354 2 0.0809429 -5.78383 13.4887 5.93607
18 4 0.666341 -1.2502 7.58105 5.75796
38 4 0.594687 1.26813 8.0794 4.20783
45 4 0.652988 0.771465 8.26791 1.31161
48 4 1.08751 2.77347 9.57916 7.65237
50 4 1.10488 1.49382 11.934 5.82222
78 1 -0.11426 2.40548 7.63902 0.702944
83 1 -0.138183 2.38852 12.2961 4.224
108 2 0.0491129 2.58137 8.71067 4.74068
111 2 -0.0166415 -0.2851 7.12962 1.45123
113 2 0.00640846 1.41598 9.04341 8.18179
131 2 0.0789949 -0.561047 6.95542 8.03502
156 2 0.0666116 3.18098 8.29509 1.10839
157 2 0.0987195 -1.22634 10.2268 3.02115
160 2 0.0207521 1.86046 6.91702 8.44141
166 2 0.0286159 1.85184 13.0734 3.67822
167 2 0.0595238 2.38641 11.3825 3.62371
168 2 0.033101 3.41975 12.6069 4.39161
192 2 0.0589421 3.51969 12.8385 8.59108
228 3 -0.5868 0.138392 8.36188 5.34248
240 3 -0.621184 0.935143 8.89492 2.82273
241 3 -0.775937 -1.00521 13.3067 3.62822
243 3 -0.645867 0.0924243 9.42176 0.381111
244 3 -0.786922 3.6371 8.38108 6.97687
245 3 -0.706015 -1.27923 9.98868 8.33315
246 3 -0.642532 -0.708401 12.6547 8.29461
247 3 -0.674461 -0.0473834 11.5189 5.41896
248 3 -0.749991 2.34191 10.7806 6.6393
249 3 -0.740988 1.39604 13.2815 6.77469
261 3 -0.78972 4.91828 7.01692 5.1484
273 3 -0.699845 3.67742 10.057 8.91194
291 1 -0.0684199 4.97352 10.2269 4.14016
297 2 0.0692612 4.08783 10.2239 4.77906
299 2 0.100712 4.78381 10.8331 3.25032
335 1 -0.156243 0.226537 12.2534 0.716304
336 2 0.00523771 0.668075 13.1539 0.284831
337 2 0.0473179 0.613867 12.1257 1.7285
338 2 0.0431718 -0.858947 12.3711 0.764888
361 2 0.0372899 3.6723 13.7073 2.28899
5 2 0.0541611 5.2007 13.735 6.84095
89 1 -0.111381 9.51387 7.89703 5.30716
91 1 -0.0557053 8.41101 7.03374 8.04733
121 2 -0.0204232 6.89189 7.57995 3.63811
181 2 0.0630273 9.57245 7.63629 4.2463
182 2 0.0614607 10.5139 8.17402 5.64963
183 2 0.0409235 8.87126 8.77416 5.39858
187 2 0.0760043 7.40484 7.45994 8.07867
188 2 0.0765315 9.10779 7.81437 8.3549
193 2 0.0548114 5.27646 12.7721 8.78622
285 4 0.639288 9.00387 10.4949 3.19514
286 4 0.63501 6.10707 13.7557 2.24058
287 4 1.07465 7.70958 8.91873 0.964411
288 4 1.02504 6.31538 11.5092 0.212867
289 4 0.321514 6.45051 10.806 5.09537
290 1 -0.131933 6.04652 8.10024 1.15887
292 1 -0.0996975 6.741 9.70756 6.57178
293 2 0.0623653 6.19537 12.2219 5.69231
294 2 0.0544448 6.13571 7.07171 1.50788
295 2 0.0641157 5.54061 8.10712 0.189964
296 2 0.0393001 5.42769 8.66335 1.86102
298 2 0.0617072 5.15754 9.19122 3.84336
300 2 0.0267277 7.72815 9.85665 7.01354
301 2 0.066863 6.64311 8.65712 6.29019
302 2 0.0892412 5.98843 9.91262 7.34143
303 3 -0.790953 8.70211 8.00229 0.0291983
304 3 -0.675065 8.53508 9.14785 2.36061
305 3 -0.682376 7.48997 10.3751 0.245431
306 3 -0.656329 6.16251 12.1727 1.72308
307 3 -0.570266 7.75943 10.9638 4.12601
329 2 0.060315 7.9546 10.8338 8.82322
17 4 1.43746 -3.69225 7.58663 9.93051
22 4 0.659258 -3.24681 11.8079 16.9359
24 4 0.991633 -5.81853 11.9514 10.4574
26 4 1.04007 -1.4329 9.94169 13.5045
27 4 0.590806 -5.56564 11.2274 14.8576
28 4 0.67562 -3.17443 12.1166 12.3148
72 1 -0.101669 -2.15316 9.02145 14.9597
82 1 -0.114587 -1.95973 13.4639 11.9022
92 1 -0.10293 -6.40702 12.8082 14.3718
98 2 -0.00916136 -2.91101 10.6928 17.9502
99 2 0.0181827 -3.49898 13.1065 17.7328
100 2 0.0650672 -4.72015 10.5617 13.7379
101 2 -0.00870079 -3.7324 12.5889 13.6908
114 2 0.0779384 -2.39715 11.6295 9.89346
137 2 0.11304 -1.42925 9.06287 15.7785
138 2 0.0893508 -2.31724 7.97274 14.7204
139 2 0.0501233 -3.09517 9.46284 15.2841
190 2 0.0269182 -6.47697 13.442 15.2564
191 2 0.0678194 -5.87917 13.3548 13.5847
208 3 -0.872849 -2.42528 7.85339 10.8992
212 3 -0.779139 -5.87144 13.402 9.66129
216 3 -0.633356 -4.60074 11.3985 16.1647
217 3 -0.670898 -4.41797 11.9508 11.2892
218 3 -0.672745 -2.50687 10.6436 12.5114
254 3 -0.722527 -1.97142 12.0419 15.9677
352 2 0.0734669 -2.19486 8.89348 18.0667
356 2 0.0894284 -1.84083 13.6614 10.834
364 2 0.0579908 -6.97759 12.9957 17.5568
21 4 1.61133 -1.13965 7.42504 11.7488
47 4 1.06424 0.941516 10.6408 18.0284
49 4 0.710743 -1.02066 11.3551 9.22247
51 4 1.18192 2.83942 8.70845 14.9327
52 4 0.997327 -0.413891 11.8087 15.4945
63 4 0.597923 4.25492 11.0271 10.1
65 4 1.07657 3.89232 10.6121 17.0544
81 1 -0.108609 0.351633 11.044 10.385
84 1 -0.166411 0.424346 13.4669 15.395
93 1 -0.121386 4.32267 12.7259 9.32201
94 1 -0.123784 3.31441 10.6869 11.6965
95 1 -0.168183 3.87198 12.1728 16.0452
115 2 0.00589046 2.19959 9.9038 14.1666
116 2 0.0117176 5.20237 8.01291 9.92667
118 2 0.00299418 5.19182 7.14743 16.5485
154 2 0.091546 2.7266 7.51529 17.9376
162 2 0.0364961 2.79665 7.81921 9.6712
163 2 0.0317102 1.2688 11.0264 9.78982
164 2 0.115504 0.252668 10.0861 10.8986
165 2 0.0300591 0.426799 11.8402 11.1301
169 2 0.0140361 1.4675 13.3438 15.1105
173 2 0.0107855 2.80423 13.2082 11.9692
194 2 0.0444037 4.28979 13.5575 10.0247
195 2 0.0831047 3.3518 9.6021 11.8435
196 2 0.0327684 2.27431 10.9947 11.7152
197 2 0.0265849 3.82933 11.1459 12.5447
198 2 0.0193766 3.16142 12.0819 15.22
199 2 0.0232229 4.86591 12.3236 15.6259
200 2 0.00660896 3.61529 13.0442 16.6536
215 3 -0.745145 -0.616547 8.78932 12.5746
232 3 -0.854911 0.0362874 6.88415 10.8514
237 3 -0.704875 -0.171196 6.81649 17.1898
250 3 -0.738889 1.66162 7.92967 15.7124
251 3 -0.810738 3.53367 7.73491 13.8384
252 3 -0.725576 -0.386562 11.0767 14.0138
253 3 -0.726293 0.359032 10.7916 16.511
277 3 -0.727816 3.91583 9.32773 16.0029
278 3 -0.723801 5.17588 10.6207 18.062
279 3 -0.740805 2.56858 10.505 17.9974
355 2 0.00871464 1.76409 13.4276 9.96896
357 2 0.03343 -0.988108 13.2175 12.3458
362 2 0.00976889 4.9397 13.3473 13.9666
58 4 1.1883 5.90411 6.90678 10.7585
62 4 1.1582 8.83943 7.51626 11.7937
64 4 1.52859 7.63415 9.15705 14.0307
66 4 1.06374 6.60186 11.1368 11.8974
71 1 -0.117058 10.2613 7.02452 14.9312
122 2 -0.0576537 5.76803 12.3145 12.4907
135 2 0.0597478 10.8701 7.16916 14.037
136 2 0.0815567 10.1468 7.982 15.4455
271 3 -0.740818 10.0089 7.91844 10.7614
272 3 -0.774189 7.34805 7.47744 11.1811
274 3 -0.795152 6.90646 7.92322 14.8111
275 3 -0.802448 8.80024 8.58986 13.0156
276 3 -0.676355 8.33963 10.0997 15.1504
280 3 -0.699359 8.05248 11.7677 11.5657
281 3 -0.668658 5.82429 10.6239 10.5488
282 3 -0.770895 6.60105 10.016 13.0883
328 1 -0.0999615 8.96194 10.6179 9.21544
330 2 0.111992 8.92074 9.63939 9.69467
342 1 -0.139968 7.09696 12.6666 17.31
343 2 0.00602814 6.42858 13.5331 17.2887
344 2 0.0615106 7.1017 12.2036 16.3218
345 2 0.0126604 6.72787 13.7239 10.4232
363 2 0.0666628 7.66436 12.602 14.0286
ITEM: TIMESTEP
2
ITEM: NUMBER OF ATOMS
365
ITEM: BOX BOUNDS xy xz yz pp pp pp
-7.7317999999999998e+00 1.5563499999999999e+01 -7.7317999999999998e+00
-1.3819999999999999e-01 1.3846299999999999e+01 2.4629999999999999e-01
0.0000000000000000e+00 1.8322199999999999e+01 -1.3819999999999999e-01
ITEM: ATOMS id type q x y z
7 4 0.691071 0.99808 3.19659 0.286538
8 2 -0.0122365 1.5938 2.09529 1.36579
9 2 -0.0268194 1.18125 4.6757 1.00389
10 3 -0.671102 -0.554762 2.91032 0.152311
13 4 1.52042 1.27976 2.3123 6.71384
16 4 1.17818 0.100614 3.71637 9.18207