LAMMPS (2 Aug 2023 - Update 2)
OMP_NUM_THREADS environment is not set. Defaulting to 1 thread. (src/comm.cpp:98)
  using 1 OpenMP thread(s) per MPI task
Reading data file ...
  triclinic box = (0.15795377 0.085803784 -0.0151998) to (15.550746 13.000996 17.54) with tilt (-8.684696 1.4418447 -2.3940357)
WARNING: Triclinic box skew is large. LAMMPS will run inefficiently. (src/domain.cpp:220)
  2 by 2 by 2 MPI processor grid
  reading atoms ...
  331 atoms
  reading velocities ...
  331 velocities
Finding 1-2 1-3 1-4 neighbors ...
  special bond factors lj:    0        0        0       
  special bond factors coul:  0        0        0       
     0 = max # of 1-2 neighbors
     0 = max # of 1-3 neighbors
     0 = max # of 1-4 neighbors
     1 = max # of special neighbors
  special bonds CPU = 0.001 seconds
  read_data CPU = 0.010 seconds
*****Minimization starts.*****
Setting up cg style minimization ...
  Unit style    : real
  Current step  : 0
WARNING: No pairwise cutoff or binsize set. Atom sorting therefore disabled. (src/atom.cpp:2366)
WARNING: Communication cutoff is 0.0. No ghost atoms will be generated. Atoms may get lost. (src/comm_brick.cpp:210)
Per MPI rank memory allocation (min/avg/max) = 6.365 | 6.365 | 6.365 Mbytes
   Step          Temp          E_pair         E_mol          TotEng         Press     
         0   300            0              0              295.10019      3865.2562    
         1   300            0              0              295.10019      3865.2562    
Loop time of 6.971e-05 on 8 procs for 1 steps with 331 atoms

59.0% CPU use with 8 MPI tasks x 1 OpenMP threads

Minimization stats:
  Stopping criterion = search direction is not downhill
  Energy initial, next-to-last, final = 
                     0                  0                  0
  Force two-norm initial, final = 0 0
  Force max component initial, final = 0 0
  Final line search alpha, max atom move = 0 0
  Iterations, force evaluations = 1 0

MPI task timing breakdown:
Section |  min time  |  avg time  |  max time  |%varavg| %total
---------------------------------------------------------------
Pair    | 0          | 0          | 0          |   0.0 |  0.00
Bond    | 1.63e-07   | 2.3312e-07 | 3.8e-07    |   0.0 |  0.33
Neigh   | 0          | 0          | 0          |   0.0 |  0.00
Comm    | 9.07e-07   | 1.3126e-06 | 1.896e-06  |   0.0 |  1.88
Output  | 0          | 0          | 0          |   0.0 |  0.00
Modify  | 0          | 0          | 0          |   0.0 |  0.00
Other   |            | 6.816e-05  |            |       | 97.78

Nlocal:         41.375 ave          47 max          34 min
Histogram: 1 0 0 3 0 0 0 0 2 2
Nghost:              0 ave           0 max           0 min
Histogram: 8 0 0 0 0 0 0 0 0 0
Neighs:              0 ave           0 max           0 min
Histogram: 8 0 0 0 0 0 0 0 0 0

Total # of neighbors = 0
Ave neighs/atom = 0
Ave special neighs/atom = 0
Neighbor list builds = 0
Dangerous builds = 0
WARNING: New thermo_style command, previous thermo_modify settings will be lost (src/output.cpp:903)

CITE-CITE-CITE-CITE-CITE-CITE-CITE-CITE-CITE-CITE-CITE-CITE-CITE

Your simulation uses code contributions which should be cited:
- pair reaxff command: doi:10.1016/j.parco.2011.08.005
- fix qeq/reaxff command: doi:10.1016/j.parco.2011.08.005
The log file lists these citations in BibTeX format.

CITE-CITE-CITE-CITE-CITE-CITE-CITE-CITE-CITE-CITE-CITE-CITE-CITE

Neighbor list info ...
  update: every = 10 steps, delay = 0 steps, check = no
  max neighbors/atom: 2000, page size: 100000
  master list distance cutoff = 12
  ghost atom cutoff = 12
  binsize = 6, bins = 5 3 3
  2 neighbor lists, perpetual/occasional/extra = 2 0 0
  (1) pair reaxff, perpetual
      attributes: half, newton off, ghost
      pair build: half/bin/newtoff/ghost
      stencil: full/ghost/bin/3d
      bin: standard
  (2) fix qeq/reaxff, perpetual, copy from (1)
      attributes: half, newton off
      pair build: copy
      stencil: none
      bin: none
Setting up Verlet run ...
  Unit style    : real
  Current step  : 0
  Time step     : 0.5
Per MPI rank memory allocation (min/avg/max) = 130.9 | 132.3 | 133.3 Mbytes
   Step          Temp          PotEng         Press        f_avgp[1]       Density         Volume    
         0   300           -36687.583      2524.7527      0              1.4455902      3489.9891    
       100   309.22097     -36692.526     -4145.2454      1257.5904      1.4455902      3489.9891    
       200   319.15661     -36679.56       1828.2288      3782.2373      1.4455902      3489.9891    
       300   327.3322      -36672.963      4305.1342     -2351.3954      1.4455902      3489.9891    
       400   318.66741     -36699.507      6206.2469      2368.5452      1.4455902      3489.9891    
       500   296.27454     -36699.25      -6721.4256     -4601.7014      1.4455902      3489.9891    
       600   302.00548     -36710.36       3580.9791     -5340.2965      1.4455902      3489.9891    
       700   294.60818     -36690.538     -2928.7102     -6313.5837      1.4455902      3489.9891    
       800   326.93896     -36701.122     -7433.9125     -4672.4442      1.4455902      3489.9891    
       900   295.56422     -36679.848      848.12538     -2733.0531      1.4455902      3489.9891    
      1000   287.90842     -36710.711     -3823.1928     -3859.048       1.4455902      3489.9891    
      1100   282.43093     -36709.442     -996.16814      193.38717      1.4455902      3489.9891    
      1200   277.59576     -36692.651     -3695.0708     -7602.7904      1.4455902      3489.9891    
      1300   298.79877     -36689.688     -6794.7214     -2554.797       1.4455902      3489.9891    
      1400   318.3303      -36704.548     -2739.4403      1568.0574      1.4455902      3489.9891    
      1500   309.4473      -36705.29       527.50997     -3491.649       1.4455902      3489.9891    
      1600   297.64539     -36693.241     -6429.4726     -2703.3194      1.4455902      3489.9891    
      1700   322.79896     -36713.83      -2779.1127     -5262.0833      1.4455902      3489.9891    
      1800   302.99914     -36695.506     -9982.6621      466.97877      1.4455902      3489.9891    
      1900   300.62869     -36700.667     -1751.9613     -474.04701      1.4455902      3489.9891    
      2000   289.30794     -36705.047      7321.8534     -3056.8889      1.4455902      3489.9891    
Loop time of 101.462 on 8 procs for 2000 steps with 331 atoms

Performance: 0.852 ns/day, 28.184 hours/ns, 19.712 timesteps/s, 6.525 katom-step/s
98.9% CPU use with 8 MPI tasks x 1 OpenMP threads

MPI task timing breakdown:
Section |  min time  |  avg time  |  max time  |%varavg| %total
---------------------------------------------------------------
Pair    | 58.588     | 78.603     | 84.571     | 105.4 | 77.47
Bond    | 0.00069542 | 0.00086115 | 0.0010184  |   0.0 |  0.00
Neigh   | 4.8157     | 6.3525     | 6.936      |  28.9 |  6.26
Comm    | 1.809      | 7.7773     | 27.795     | 335.1 |  7.67
Output  | 0.0010851  | 0.0012016  | 0.0017731  |   0.6 |  0.00
Modify  | 8.0993     | 8.6865     | 10.227     |  24.8 |  8.56
Other   |            | 0.04104    |            |       |  0.04

Nlocal:         41.375 ave          49 max          37 min
Histogram: 3 0 1 1 1 0 0 1 0 1
Nghost:        3378.62 ave        3418 max        3342 min
Histogram: 2 1 0 1 0 0 2 0 0 2
Neighs:        27499.5 ave       32239 max       24941 min
Histogram: 3 0 1 2 0 0 0 1 0 1

Total # of neighbors = 219996
Ave neighs/atom = 664.64048
Ave special neighs/atom = 0
Neighbor list builds = 200
Dangerous builds not checked
System init for write_data ...
System init for write_restart ...
OMP_NUM_THREADS environment is not set. Defaulting to 1 thread. (src/comm.cpp:98)
  using 1 OpenMP thread(s) per MPI task
Reading restart file ...
  restart file = 2 Aug 2023, LAMMPS = 2 Aug 2023
  restoring atom style full from restart
  triclinic box = (0.15795377 0.085803784 -0.0151998) to (15.550746 13.000996 17.54) with tilt (-8.684696 1.4418447 -2.3940357)
WARNING: Triclinic box skew is large. LAMMPS will run inefficiently. (src/domain.cpp:220)
  2 by 2 by 2 MPI processor grid
  pair style reaxff stores no restart info
  331 atoms
Finding 1-2 1-3 1-4 neighbors ...
  special bond factors lj:    0        0        0       
  special bond factors coul:  0        0        0       
     0 = max # of 1-2 neighbors
     0 = max # of 1-3 neighbors
     0 = max # of 1-4 neighbors
     1 = max # of special neighbors
  special bonds CPU = 0.000 seconds
  read_restart CPU = 0.003 seconds
*****Negative-change 1 starts.*****
Resetting global fix info from restart file:
  fix style: nvt, fix ID: 4
Changing box ...
WARNING: Triclinic box skew is large. LAMMPS will run inefficiently. (src/domain.cpp:220)
  triclinic box = (0.15795377 0.085803784 -0.0151998) to (15.396818 13.000996 17.54) with tilt (-8.684696 1.4418447 -2.3940357)
WARNING: Triclinic box skew is large. LAMMPS will run inefficiently. (src/domain.cpp:220)
  triclinic box = (0.15795377 0.085803784 -0.0151998) to (15.396818 13.000996 17.54) with tilt (-8.5978491 1.4418447 -2.3940357)
WARNING: Triclinic box skew is large. LAMMPS will run inefficiently. (src/domain.cpp:220)
  triclinic box = (0.15795377 0.085803784 -0.0151998) to (15.396818 13.000996 17.54) with tilt (-8.5978491 1.4274263 -2.3940357)
All restart file global fix info was re-assigned
Neighbor list info ...
  update: every = 10 steps, delay = 0 steps, check = no
  max neighbors/atom: 2000, page size: 100000
  master list distance cutoff = 12
  ghost atom cutoff = 12
  binsize = 6, bins = 5 3 3
  2 neighbor lists, perpetual/occasional/extra = 2 0 0
  (1) pair reaxff, perpetual
      attributes: half, newton off, ghost
      pair build: half/bin/newtoff/ghost
      stencil: full/ghost/bin/3d
      bin: standard
  (2) fix qeq/reaxff, perpetual, copy from (1)
      attributes: half, newton off
      pair build: copy
      stencil: none
      bin: none
Setting up Verlet run ...
  Unit style    : real
  Current step  : 0
  Time step     : 0.5
Per MPI rank memory allocation (min/avg/max) = 130.5 | 132.1 | 133.6 Mbytes
   Step          Temp          PotEng         Press        f_avgp[1]        Volume    
         0   289.30794     -36680.096      63174.185      0              3455.0892    
       100   295.28453     -36706.249     -455.26981      5917.5924      3455.0892    
       200   279.82832     -36703.522     -3264.765       4016.4766      3455.0892    
       300   310.72299     -36724.084      3626.183       3020.3413      3455.0892    
       400   310.36551     -36688.703     -1676.4568      2678.6823      3455.0892    
       500   332.62803     -36700.051     -2639.375       4889.2416      3455.0892    
       600   310.34317     -36695.943      19261.069      5375.9024      3455.0892    
       700   291.91524     -36693.304      4664.3513      3332.0278      3455.0892    
       800   311.13727     -36713.829      7798.3492      4046.0519      3455.0892    
       900   302.61362     -36708.991      7692.9439      1442.6431      3455.0892    
      1000   285.91325     -36712.745      3135.7799      3406.6419      3455.0892    
      1100   280.14016     -36730.254     -9116.3849     -2750.0481      3455.0892    
      1200   276.33236     -36711.443     -14124.776     -358.0498       3455.0892    
      1300   308.67306     -36717.713     -294.59855      1529.756       3455.0892    
      1400   303.08451     -36711.768     -1292.6856      1740.234       3455.0892    
      1500   298.21096     -36709.87      -1483.469       1983.6772      3455.0892    
      1600   302.47524     -36712.933     -10104.957      1109.1256      3455.0892    
      1700   286.80982     -36694.571      341.86777      3350.2645      3455.0892    
      1800   300.0878      -36698.281     -3717.7078      2639.4995      3455.0892    
      1900   307.73515     -36702.189      1198.4382      4194.0936      3455.0892    
      2000   313.55416     -36715.187     -2193.529      -2261.6288      3455.0892    
Loop time of 104.049 on 8 procs for 2000 steps with 331 atoms

Performance: 0.830 ns/day, 28.903 hours/ns, 19.222 timesteps/s, 6.362 katom-step/s
98.9% CPU use with 8 MPI tasks x 1 OpenMP threads

MPI task timing breakdown:
Section |  min time  |  avg time  |  max time  |%varavg| %total
---------------------------------------------------------------
Pair    | 59.115     | 82.566     | 86.943     |  97.8 | 79.35
Bond    | 0.00070741 | 0.00086389 | 0.0010238  |   0.0 |  0.00
Neigh   | 4.8234     | 6.6239     | 7.1313     |  26.9 |  6.37
Comm    | 1.5758     | 5.9575     | 29.416     | 364.1 |  5.73
Output  | 0.0047949  | 0.0057498  | 0.0065994  |   0.9 |  0.01
Modify  | 8.3446     | 8.8532     | 10.656     |  23.3 |  8.51
Other   |            | 0.04182    |            |       |  0.04

Nlocal:         41.375 ave          48 max          36 min
Histogram: 3 0 0 1 0 2 0 0 0 2
Nghost:        3418.38 ave        3458 max        3375 min
Histogram: 3 0 0 0 0 2 0 0 0 3
Neighs:          27752 ave       32029 max       24229 min
Histogram: 2 1 0 1 1 1 0 0 0 2

Total # of neighbors = 222016
Ave neighs/atom = 670.7432
Ave special neighs/atom = 0
Neighbor list builds = 200
Dangerous builds not checked
*****Equilibration neg1 starts.*****
WARNING: New thermo_style command, previous thermo_modify settings will be lost (src/output.cpp:903)
Neighbor list info ...
  update: every = 10 steps, delay = 0 steps, check = no
  max neighbors/atom: 2000, page size: 100000
  master list distance cutoff = 12
  ghost atom cutoff = 12
  binsize = 6, bins = 5 3 3
  2 neighbor lists, perpetual/occasional/extra = 2 0 0
  (1) pair reaxff, perpetual
      attributes: half, newton off, ghost
      pair build: half/bin/newtoff/ghost
      stencil: full/ghost/bin/3d
      bin: standard
  (2) fix qeq/reaxff, perpetual, copy from (1)
      attributes: half, newton off
      pair build: copy
      stencil: none
      bin: none
Setting up Verlet run ...
  Unit style    : real
  Current step  : 0
  Time step     : 0.5
Per MPI rank memory allocation (min/avg/max) = 130.6 | 132.1 | 133.6 Mbytes
   Step          Temp          PotEng         Press        f_avgp[1]        Volume    
         0   313.55416     -36715.187     -2193.5137      0              3455.0892    
       100   303.6234      -36708.616     -856.24991      2078.7622      3455.0892    
       200   303.86114     -36733.06       11125.797     -54.759106      3455.0892    
       300   269.41757     -36723.774      788.56537      183.57873      3455.0892    
       400   277.54184     -36723.16       7145.4219     -183.27112      3455.0892    
       500   291.58977     -36718.841      3040.9075      1070.8028      3455.0892    
       600   290.93637     -36707.498     -4250.244      -1025.5735      3455.0892    
       700   311.29782     -36714.915      1782.4376      3236.5514      3455.0892    
       800   311.98716     -36705.958      8881.8084      1293.7643      3455.0892    
       900   292.51663     -36700.551     -2996.8062     -944.83022      3455.0892    
      1000   284.34674     -36726.253     -11472.398     -2088.805       3455.0892    
      1100   284.01453     -36727.627     -7743.5706     -2360.4577      3455.0892    
      1200   306.20712     -36725.746     -1686.7988     -10630.607      3455.0892    
      1300   326.89514     -36736.914      22430.687     -1656.0028      3455.0892    
      1400   296.33318     -36711.777      10230.822     -17.756956      3455.0892    
      1500   310.41031     -36740.166      3419.9146      4413.52        3455.0892    
      1600   280.52355     -36732.398      3484.0068      11838.638      3455.0892    
      1700   277.34532     -36749.508     -7663.2182      1336.1845      3455.0892    
      1800   289.54682     -36738.903      996.3345       1150.1361      3455.0892    
      1900   316.84584     -36737.932      3729.476      -1407.5238      3455.0892    
      2000   289.49703     -36704.851      6207.4817      131.03566      3455.0892    
Loop time of 104.811 on 8 procs for 2000 steps with 331 atoms

Performance: 0.824 ns/day, 29.114 hours/ns, 19.082 timesteps/s, 6.316 katom-step/s
99.0% CPU use with 8 MPI tasks x 1 OpenMP threads

MPI task timing breakdown:
Section |  min time  |  avg time  |  max time  |%varavg| %total
---------------------------------------------------------------
Pair    | 59.788     | 82.094     | 87.671     |  97.1 | 78.33
Bond    | 0.00066938 | 0.00083272 | 0.0010068  |   0.0 |  0.00
Neigh   | 4.8341     | 6.6233     | 7.3578     |  28.1 |  6.32
Comm    | 1.2093     | 6.7889     | 29.1       | 337.8 |  6.48
Output  | 0.00083399 | 0.00099691 | 0.0017836  |   0.0 |  0.00
Modify  | 8.5241     | 9.2628     | 11.054     |  23.8 |  8.84
Other   |            | 0.04018    |            |       |  0.04

Nlocal:         41.375 ave          47 max          35 min
Histogram: 1 0 0 1 2 0 2 1 0 1
Nghost:        3439.88 ave        3502 max        3385 min
Histogram: 1 1 1 0 2 0 1 1 0 1
Neighs:        27789.4 ave       31318 max       23781 min
Histogram: 1 0 0 1 2 0 2 1 0 1

Total # of neighbors = 222315
Ave neighs/atom = 671.64653
Ave special neighs/atom = 0
Neighbor list builds = 200
Dangerous builds not checked
OMP_NUM_THREADS environment is not set. Defaulting to 1 thread. (src/comm.cpp:98)
  using 1 OpenMP thread(s) per MPI task
Reading restart file ...
  restart file = 2 Aug 2023, LAMMPS = 2 Aug 2023
  restoring atom style full from restart
  triclinic box = (0.15795377 0.085803784 -0.0151998) to (15.550746 13.000996 17.54) with tilt (-8.684696 1.4418447 -2.3940357)
WARNING: Triclinic box skew is large. LAMMPS will run inefficiently. (src/domain.cpp:220)
  2 by 2 by 2 MPI processor grid
  pair style reaxff stores no restart info
  331 atoms
Finding 1-2 1-3 1-4 neighbors ...
  special bond factors lj:    0        0        0       
  special bond factors coul:  0        0        0       
     0 = max # of 1-2 neighbors
     0 = max # of 1-3 neighbors
     0 = max # of 1-4 neighbors
     1 = max # of special neighbors
  special bonds CPU = 0.000 seconds
  read_restart CPU = 0.003 seconds
*****Positive-change 1 starts.*****
Resetting global fix info from restart file:
  fix style: nvt, fix ID: 4
Changing box ...
WARNING: Triclinic box skew is large. LAMMPS will run inefficiently. (src/domain.cpp:220)
  triclinic box = (0.15795377 0.085803784 -0.0151998) to (15.704674 13.000996 17.54) with tilt (-8.684696 1.4418447 -2.3940357)
WARNING: Triclinic box skew is large. LAMMPS will run inefficiently. (src/domain.cpp:220)
  triclinic box = (0.15795377 0.085803784 -0.0151998) to (15.704674 13.000996 17.54) with tilt (-8.771543 1.4418447 -2.3940357)
WARNING: Triclinic box skew is large. LAMMPS will run inefficiently. (src/domain.cpp:220)
  triclinic box = (0.15795377 0.085803784 -0.0151998) to (15.704674 13.000996 17.54) with tilt (-8.771543 1.4562632 -2.3940357)
All restart file global fix info was re-assigned
Neighbor list info ...
  update: every = 10 steps, delay = 0 steps, check = no
  max neighbors/atom: 2000, page size: 100000
  master list distance cutoff = 12
  ghost atom cutoff = 12
  binsize = 6, bins = 5 3 3
  2 neighbor lists, perpetual/occasional/extra = 2 0 0
  (1) pair reaxff, perpetual
      attributes: half, newton off, ghost
      pair build: half/bin/newtoff/ghost
      stencil: full/ghost/bin/3d
      bin: standard
  (2) fix qeq/reaxff, perpetual, copy from (1)
      attributes: half, newton off
      pair build: copy
      stencil: none
      bin: none
Setting up Verlet run ...
  Unit style    : real
  Current step  : 0
  Time step     : 0.5
Per MPI rank memory allocation (min/avg/max) = 129.2 | 130.8 | 132.3 Mbytes
   Step          Temp          PotEng         Press        f_avgp[1]        Volume    
         0   289.30794     -36690.607     -40983.669      0              3524.889     
       100   293.27032     -36709.829     -5308.4222     -8756.4129      3524.889     
       200   297.19124     -36717.077     -5582.5247     -6458.1045      3524.889     
       300   291.69134     -36683.349      7425.166      -1340.7921      3524.889     
       400   280.95838     -36654.832     -2019.4859     -7389.1528      3524.889     
       500   321.16658     -36694.953     -1729.117      -3972.6115      3524.889     
       600   300.76905     -36686.855     -6736.1806     -10380.744      3524.889     
       700   284.86177     -36676.533     -1545.0305     -12011.021      3524.889     
       800   310.79173     -36702.13       1106.7721     -7704.4262      3524.889     
       900   302.08983     -36698.623      3807.7309     -4378.4167      3524.889     
      1000   290.91587     -36703.253     -15430.657     -4107.2903      3524.889     
      1100   265.22251     -36699.641     -11237.661     -5163.1198      3524.889     
      1200   289.28437     -36707.806     -4361.4703     -10780.214      3524.889     
      1300   280.7567      -36670.468      14318.145     -6462.9334      3524.889     
      1400   290.84915     -36672.655     -13180.358     -10165.468      3524.889     
      1500   317.69731     -36701.975      5284.9366     -7561.774       3524.889     
      1600   290.1209      -36702.918      978.34119     -10639.503      3524.889     
      1700   301.55718     -36724.92      -10512.599     -7693.0186      3524.889     
      1800   300.79282     -36717.172     -3014.2118     -11954.751      3524.889     
      1900   293.65467     -36695.427      6666.7722     -6152.3641      3524.889     
      2000   297.53976     -36672.949     -10223.138     -8884.4405      3524.889     
Loop time of 100.822 on 8 procs for 2000 steps with 331 atoms

Performance: 0.857 ns/day, 28.006 hours/ns, 19.837 timesteps/s, 6.566 katom-step/s
98.9% CPU use with 8 MPI tasks x 1 OpenMP threads

MPI task timing breakdown:
Section |  min time  |  avg time  |  max time  |%varavg| %total
---------------------------------------------------------------
Pair    | 60.258     | 80.34      | 84.324     |  85.0 | 79.68
Bond    | 0.00072919 | 0.00085431 | 0.001018   |   0.0 |  0.00
Neigh   | 5.0404     | 6.5568     | 6.9732     |  22.7 |  6.50
Comm    | 1.3144     | 5.2979     | 25.381     | 331.2 |  5.25
Output  | 0.0040852  | 0.0049881  | 0.0057756  |   0.9 |  0.00
Modify  | 8.1609     | 8.5795     | 10.102     |  19.9 |  8.51
Other   |            | 0.04272    |            |       |  0.04

Nlocal:         41.375 ave          48 max          35 min
Histogram: 1 0 0 2 2 0 1 1 0 1
Nghost:        3396.88 ave        3444 max        3339 min
Histogram: 1 1 0 1 0 1 1 0 2 1
Neighs:          27223 ave       31383 max       23200 min
Histogram: 1 0 1 1 2 0 1 1 0 1

Total # of neighbors = 217784
Ave neighs/atom = 657.9577
Ave special neighs/atom = 0
Neighbor list builds = 200
Dangerous builds not checked
*****Equilibration pos1 starts.*****
WARNING: New thermo_style command, previous thermo_modify settings will be lost (src/output.cpp:903)
Neighbor list info ...
  update: every = 10 steps, delay = 0 steps, check = no
  max neighbors/atom: 2000, page size: 100000
  master list distance cutoff = 12
  ghost atom cutoff = 12
  binsize = 6, bins = 5 3 3
  2 neighbor lists, perpetual/occasional/extra = 2 0 0
  (1) pair reaxff, perpetual
      attributes: half, newton off, ghost
      pair build: half/bin/newtoff/ghost
      stencil: full/ghost/bin/3d
      bin: standard
  (2) fix qeq/reaxff, perpetual, copy from (1)
      attributes: half, newton off
      pair build: copy
      stencil: none
      bin: none
Setting up Verlet run ...
  Unit style    : real
  Current step  : 0
  Time step     : 0.5
Per MPI rank memory allocation (min/avg/max) = 129.2 | 130.8 | 132.2 Mbytes
   Step          Temp          PotEng         Press        f_avgp[1]        Volume    
         0   297.53976     -36672.949     -10223.144      0              3524.889     
       100   293.64407     -36670.357      5459.9628     -10318.285      3524.889     
       200   293.22769     -36691.955     -17091.787     -4275.4167      3524.889     
       300   291.97783     -36721.848     -6190.8682     -5260.9175      3524.889     
       400   298.3219      -36723.69      -6399.0638     -11619.456      3524.889     
       500   289.73861     -36696.296      2536.872      -6706.0852      3524.889     
       600   300.97614     -36686.735     -12835.894     -8731.6258      3524.889     
       700   311.90975     -36696.198      1762.8545     -3121.3533      3524.889     
       800   297.17426     -36689.084     -7340.8079     -5207.4671      3524.889     
       900   296.56953     -36704.904     -875.73367     -9466.7601      3524.889     
      1000   286.37294     -36716.338     -609.66418     -5151.6107      3524.889     
      1100   262.22297     -36714.712     -1928.2743     -531.30909      3524.889     
      1200   294.58715     -36719.291     -10682.502     -5033.3913      3524.889     
      1300   287.74004     -36688.59      -6125.5327     -3501.7493      3524.889     
      1400   306.1317      -36688.824      9614.2686     -5241.0586      3524.889     
      1500   318.10258     -36702.118     -846.31148     -3097.2887      3524.889     
      1600   300.63509     -36714.158     -1226.3653     -8918.2675      3524.889     
      1700   289.38194     -36708.282     -12781.578     -9248.0986      3524.889     
      1800   293.04157     -36700.051     -7393.9093     -6818.0131      3524.889     
      1900   306.16263     -36708.861     -11416.041     -7517.0574      3524.889     
      2000   307.48855     -36708.525     -4430.5902     -3562.0014      3524.889     
Loop time of 101.3 on 8 procs for 2000 steps with 331 atoms

Performance: 0.853 ns/day, 28.139 hours/ns, 19.743 timesteps/s, 6.535 katom-step/s
98.9% CPU use with 8 MPI tasks x 1 OpenMP threads

MPI task timing breakdown:
Section |  min time  |  avg time  |  max time  |%varavg| %total
---------------------------------------------------------------
Pair    | 65.319     | 81.001     | 84.917     |  66.8 | 79.96
Bond    | 0.00073462 | 0.0008578  | 0.00097647 |   0.0 |  0.00
Neigh   | 5.5466     | 6.5885     | 6.871      |  15.6 |  6.50
Comm    | 1.1231     | 5.0301     | 20.706     | 268.0 |  4.97
Output  | 0.00090138 | 0.0010058  | 0.0014266  |   0.5 |  0.00
Modify  | 8.3539     | 8.6365     | 9.69       |  13.7 |  8.53
Other   |            | 0.04115    |            |       |  0.04

Nlocal:         41.375 ave          50 max          34 min
Histogram: 2 1 0 1 1 0 0 1 1 1
Nghost:         3405.5 ave        3447 max        3356 min
Histogram: 1 1 1 0 0 1 0 2 0 2
Neighs:          27205 ave       32656 max       22409 min
Histogram: 2 0 1 1 1 0 0 1 1 1

Total # of neighbors = 217640
Ave neighs/atom = 657.52266
Ave special neighs/atom = 0
Neighbor list builds = 200
Dangerous builds not checked
OMP_NUM_THREADS environment is not set. Defaulting to 1 thread. (src/comm.cpp:98)
  using 1 OpenMP thread(s) per MPI task
Reading restart file ...
  restart file = 2 Aug 2023, LAMMPS = 2 Aug 2023
  restoring atom style full from restart
  triclinic box = (0.15795377 0.085803784 -0.0151998) to (15.550746 13.000996 17.54) with tilt (-8.684696 1.4418447 -2.3940357)
WARNING: Triclinic box skew is large. LAMMPS will run inefficiently. (src/domain.cpp:220)
  2 by 2 by 2 MPI processor grid
  pair style reaxff stores no restart info
  331 atoms
Finding 1-2 1-3 1-4 neighbors ...
  special bond factors lj:    0        0        0       
  special bond factors coul:  0        0        0       
     0 = max # of 1-2 neighbors
     0 = max # of 1-3 neighbors
     0 = max # of 1-4 neighbors
     1 = max # of special neighbors
  special bonds CPU = 0.000 seconds
  read_restart CPU = 0.003 seconds
*****Negative-change 2 starts.*****
Resetting global fix info from restart file:
  fix style: nvt, fix ID: 4
Changing box ...
WARNING: Triclinic box skew is large. LAMMPS will run inefficiently. (src/domain.cpp:220)
  triclinic box = (0.15795377 0.085803784 -0.0151998) to (15.550746 12.871844 17.54) with tilt (-8.684696 1.4418447 -2.3940357)
WARNING: Triclinic box skew is large. LAMMPS will run inefficiently. (src/domain.cpp:220)
  triclinic box = (0.15795377 0.085803784 -0.0151998) to (15.550746 12.871844 17.54) with tilt (-8.684696 1.4418447 -2.3700953)
All restart file global fix info was re-assigned
Neighbor list info ...
  update: every = 10 steps, delay = 0 steps, check = no
  max neighbors/atom: 2000, page size: 100000
  master list distance cutoff = 12
  ghost atom cutoff = 12
  binsize = 6, bins = 5 3 3
  2 neighbor lists, perpetual/occasional/extra = 2 0 0
  (1) pair reaxff, perpetual
      attributes: half, newton off, ghost
      pair build: half/bin/newtoff/ghost
      stencil: full/ghost/bin/3d
      bin: standard
  (2) fix qeq/reaxff, perpetual, copy from (1)
      attributes: half, newton off
      pair build: copy
      stencil: none
      bin: none
Setting up Verlet run ...
  Unit style    : real
  Current step  : 0
  Time step     : 0.5
Per MPI rank memory allocation (min/avg/max) = 131 | 132.8 | 134.7 Mbytes
   Step          Temp          PotEng         Press        f_avgp[1]        Volume    
         0   289.30794     -36685.331      62696.698      0              3455.0892    
       100   292.12776     -36706.974      3339.3416      1263.4999      3455.0892    
       200   285.12513     -36708.802      5027.2709      1716.8244      3455.0892    
       300   285.58837     -36692.75       5046.3         2112.9514      3455.0892    
       400   309.87345     -36684.365     -776.06901     -2060.4279      3455.0892    
       500   305.11706     -36673.168      10312.664      732.12068      3455.0892    
       600   319.47403     -36703.337      10205.011     -3472.3611      3455.0892    
       700   300.6379      -36696.936     -13309.496     -4087.1608      3455.0892    
       800   296.19593     -36703.222      13056.418     -450.88909      3455.0892    
       900   306.32971     -36714.085      13833.611     -1468.0194      3455.0892    
      1000   312.14723     -36704.02       4958.3511     -816.38274      3455.0892    
      1100   327.70235     -36687.884     -12729.945     -4574.8353      3455.0892    
      1200   320.56384     -36691.386     -17516.327     -3894.4904      3455.0892    
      1300   299.72191     -36700.808      5938.0063     -587.73557      3455.0892    
      1400   300.57649     -36702.957     -5819.7783      912.65258      3455.0892    
      1500   277.81458     -36679.928      3759.9874      767.68274      3455.0892    
      1600   302.4893      -36692.174      2345.8045      3771.076       3455.0892    
      1700   304.86426     -36678.797     -4817.7651      4103.0255      3455.0892    
      1800   306.92929     -36678.888     -5615.6409     -3150.4035      3455.0892    
      1900   296.52896     -36699.278     -8224.2508     -5077.9361      3455.0892    
      2000   297.37583     -36721.014      10062.161     -409.99595      3455.0892    
Loop time of 103.725 on 8 procs for 2000 steps with 331 atoms

Performance: 0.833 ns/day, 28.812 hours/ns, 19.282 timesteps/s, 6.382 katom-step/s
98.8% CPU use with 8 MPI tasks x 1 OpenMP threads

MPI task timing breakdown:
Section |  min time  |  avg time  |  max time  |%varavg| %total
---------------------------------------------------------------
Pair    | 59.382     | 82.549     | 87.016     |  96.8 | 79.58
Bond    | 0.00072798 | 0.00087258 | 0.0010221  |   0.0 |  0.00
Neigh   | 5.0248     | 6.647      | 6.9772     |  24.0 |  6.41
Comm    | 1.3571     | 5.8236     | 28.986     | 364.4 |  5.61
Output  | 0.0044255  | 0.0053511  | 0.0062307  |   1.0 |  0.01
Modify  | 8.3279     | 8.6563     | 10.286     |  21.1 |  8.35
Other   |            | 0.04274    |            |       |  0.04

Nlocal:         41.375 ave          48 max          37 min
Histogram: 2 2 1 0 0 0 1 0 1 1
Nghost:        3437.62 ave        3473 max        3409 min
Histogram: 3 1 0 0 0 1 0 1 0 2
Neighs:        27787.5 ave       31998 max       25086 min
Histogram: 2 1 2 0 0 0 1 0 1 1

Total # of neighbors = 222300
Ave neighs/atom = 671.60121
Ave special neighs/atom = 0
Neighbor list builds = 200
Dangerous builds not checked
*****Equilibration neg2 starts.*****
WARNING: New thermo_style command, previous thermo_modify settings will be lost (src/output.cpp:903)
Neighbor list info ...
  update: every = 10 steps, delay = 0 steps, check = no
  max neighbors/atom: 2000, page size: 100000
  master list distance cutoff = 12
  ghost atom cutoff = 12
  binsize = 6, bins = 5 3 3
  2 neighbor lists, perpetual/occasional/extra = 2 0 0
  (1) pair reaxff, perpetual
      attributes: half, newton off, ghost
      pair build: half/bin/newtoff/ghost
      stencil: full/ghost/bin/3d
      bin: standard
  (2) fix qeq/reaxff, perpetual, copy from (1)
      attributes: half, newton off
      pair build: copy
      stencil: none
      bin: none
Setting up Verlet run ...
  Unit style    : real
  Current step  : 0
  Time step     : 0.5
Per MPI rank memory allocation (min/avg/max) = 131.1 | 132.8 | 134.6 Mbytes
   Step          Temp          PotEng         Press        f_avgp[1]        Volume    
         0   297.37583     -36721.014      10062.174      0              3455.0892    
       100   313.71147     -36719.776      5566.8829      1326.5637      3455.0892    
       200   306.78388     -36694.076      3490.9895      6125.2013      3455.0892    
       300   320.47902     -36694.101     -6980.6153     -2070.1129      3455.0892    
       400   330.3525      -36696.216     -443.53892     -3605.3887      3455.0892    
       500   305.38562     -36703.426      747.57516     -2744.9814      3455.0892    
       600   300.79935     -36724.843      9238.1791      2211.4632      3455.0892    
       700   296.1827      -36729.406     -3697.1682     -488.56171      3455.0892    
       800   286.16814     -36706.134      6395.0683     -2866.9717      3455.0892    
       900   320.90531     -36714.588     -1534.3094      1955.2323      3455.0892    
      1000   304.42945     -36705.013     -5174.3075      2624.0321      3455.0892    
      1100   292.98668     -36701.696     -1563.1258     -1462.4067      3455.0892    
      1200   294.37349     -36706.602     -3086.8872     -2775.7642      3455.0892    
      1300   303.15174     -36718.673      7319.8952     -1258.4951      3455.0892    
      1400   309.78751     -36724.033      3306.3074      935.88984      3455.0892    
      1500   288.65963     -36696         -17572.075      1912.7525      3455.0892    
      1600   307.65648     -36691.879     -3968.1334     -2512.4709      3455.0892    
      1700   317.95324     -36677.318      717.53674     -3167.9354      3455.0892    
      1800   317.56381     -36693.103     -2582.5564     -4883.4899      3455.0892    
      1900   287.01008     -36680.221     -3413.6501     -924.84588      3455.0892    
      2000   309.06686     -36716.117      19652.256      5265.69        3455.0892    
Loop time of 103.893 on 8 procs for 2000 steps with 331 atoms

Performance: 0.832 ns/day, 28.859 hours/ns, 19.250 timesteps/s, 6.372 katom-step/s
98.9% CPU use with 8 MPI tasks x 1 OpenMP threads

MPI task timing breakdown:
Section |  min time  |  avg time  |  max time  |%varavg| %total
---------------------------------------------------------------
Pair    | 58.935     | 82.431     | 86.914     |  98.3 | 79.34
Bond    | 0.00072949 | 0.00086928 | 0.0010181  |   0.0 |  0.00
Neigh   | 5.0116     | 6.6556     | 7.0865     |  24.5 |  6.41
Comm    | 1.5631     | 6.0439     | 29.536     | 362.8 |  5.82
Output  | 0.00099456 | 0.0010937  | 0.0016002  |   0.6 |  0.00
Modify  | 8.2829     | 8.7196     | 10.372     |  21.5 |  8.39
Other   |            | 0.04183    |            |       |  0.04

Nlocal:         41.375 ave          48 max          35 min
Histogram: 1 0 1 2 1 0 1 0 0 2
Nghost:        3460.62 ave        3502 max        3419 min
Histogram: 1 1 1 1 0 1 0 1 1 1
Neighs:        27785.5 ave       32075 max       23780 min
Histogram: 1 0 1 2 1 1 0 0 0 2

Total # of neighbors = 222284
Ave neighs/atom = 671.55287
Ave special neighs/atom = 0
Neighbor list builds = 200
Dangerous builds not checked
OMP_NUM_THREADS environment is not set. Defaulting to 1 thread. (src/comm.cpp:98)
  using 1 OpenMP thread(s) per MPI task
Reading restart file ...
  restart file = 2 Aug 2023, LAMMPS = 2 Aug 2023
  restoring atom style full from restart
  triclinic box = (0.15795377 0.085803784 -0.0151998) to (15.550746 13.000996 17.54) with tilt (-8.684696 1.4418447 -2.3940357)
WARNING: Triclinic box skew is large. LAMMPS will run inefficiently. (src/domain.cpp:220)
  2 by 2 by 2 MPI processor grid
  pair style reaxff stores no restart info
  331 atoms
Finding 1-2 1-3 1-4 neighbors ...
  special bond factors lj:    0        0        0       
  special bond factors coul:  0        0        0       
     0 = max # of 1-2 neighbors
     0 = max # of 1-3 neighbors
     0 = max # of 1-4 neighbors
     1 = max # of special neighbors
  special bonds CPU = 0.000 seconds
  read_restart CPU = 0.003 seconds
*****Positive-change 2 starts.*****
Resetting global fix info from restart file:
  fix style: nvt, fix ID: 4
Changing box ...
WARNING: Triclinic box skew is large. LAMMPS will run inefficiently. (src/domain.cpp:220)
  triclinic box = (0.15795377 0.085803784 -0.0151998) to (15.550746 13.130148 17.54) with tilt (-8.684696 1.4418447 -2.3940357)
WARNING: Triclinic box skew is large. LAMMPS will run inefficiently. (src/domain.cpp:220)
  triclinic box = (0.15795377 0.085803784 -0.0151998) to (15.550746 13.130148 17.54) with tilt (-8.684696 1.4418447 -2.417976)
All restart file global fix info was re-assigned
Neighbor list info ...
  update: every = 10 steps, delay = 0 steps, check = no
  max neighbors/atom: 2000, page size: 100000
  master list distance cutoff = 12
  ghost atom cutoff = 12
  binsize = 6, bins = 5 3 3
  2 neighbor lists, perpetual/occasional/extra = 2 0 0
  (1) pair reaxff, perpetual
      attributes: half, newton off, ghost
      pair build: half/bin/newtoff/ghost
      stencil: full/ghost/bin/3d
      bin: standard
  (2) fix qeq/reaxff, perpetual, copy from (1)
      attributes: half, newton off
      pair build: copy
      stencil: none
      bin: none
Setting up Verlet run ...
  Unit style    : real
  Current step  : 0
  Time step     : 0.5
Per MPI rank memory allocation (min/avg/max) = 128.8 | 129.9 | 131.1 Mbytes
   Step          Temp          PotEng         Press        f_avgp[1]        Volume    
         0   289.30794     -36686.092     -38257.568      0              3524.889     
       100   288.34681     -36701.468     -1069.219      -5869.6349      3524.889     
       200   277.01529     -36699.191      620.08739     -2656.0423      3524.889     
       300   297.53307     -36695.739      2012.4532     -3098.0247      3524.889     
       400   294.34251     -36667.56      -11663.974     -8943.8156      3524.889     
       500   323.76827     -36695.669      4085.7838     -2111.6151      3524.889     
       600   313.45555     -36703.051     -3628.1154     -6480.3134      3524.889     
       700   294.24315     -36695.699     -37.521602     -5325.2268      3524.889     
       800   303.37544     -36706.175      4992.7202     -5949.5404      3524.889     
       900   296.09604     -36687.852     -12686.442     -1871.7903      3524.889     
      1000   303.86283     -36671.612     -4054.2499      305.49445      3524.889     
      1100   350.98619     -36689.797     -7621.9924     -6494.8054      3524.889     
      1200   316.32071     -36635.667     -4658.8882     -3097.546       3524.889     
      1300   315.23785     -36674.829     -4608.0418     -4901.2389      3524.889     
      1400   297.63772     -36684.071     -2044.7841     -6456.8982      3524.889     
      1500   320.48684     -36719.511     -2082.3266     -7947.0086      3524.889     
      1600   295.75074     -36699.2       -20109.731     -4118.8913      3524.889     
      1700   294.7416      -36697.937     -4659.5454     -2560.5484      3524.889     
      1800   287.69962     -36685.41      -11097.132     -2324.088       3524.889     
      1900   295.67799     -36682.053      7336.3134     -1452.0417      3524.889     
      2000   319.0771      -36687.657      1270.6928     -2722.6853      3524.889     
Loop time of 101.937 on 8 procs for 2000 steps with 331 atoms

Performance: 0.848 ns/day, 28.316 hours/ns, 19.620 timesteps/s, 6.494 katom-step/s
98.4% CPU use with 8 MPI tasks x 1 OpenMP threads

MPI task timing breakdown:
Section |  min time  |  avg time  |  max time  |%varavg| %total
---------------------------------------------------------------
Pair    | 58.123     | 76.435     | 84.278     | 111.5 | 74.98
Bond    | 0.00068796 | 0.00087203 | 0.0010287  |   0.0 |  0.00
Neigh   | 4.9635     | 6.2141     | 6.8875     |  28.9 |  6.10
Comm    | 1.9086     | 9.7834     | 28.097     | 311.7 |  9.60
Output  | 0.0056184  | 0.0066362  | 0.0076185  |   0.9 |  0.01
Modify  | 8.8115     | 9.4559     | 10.708     |  23.2 |  9.28
Other   |            | 0.0404     |            |       |  0.04

Nlocal:         41.375 ave          45 max          33 min
Histogram: 1 0 0 0 1 1 0 1 0 4
Nghost:        3374.62 ave        3423 max        3327 min
Histogram: 1 0 2 1 0 0 2 1 0 1
Neighs:        27192.6 ave       29493 max       21973 min
Histogram: 1 0 0 0 1 0 1 1 0 4

Total # of neighbors = 217541
Ave neighs/atom = 657.22356
Ave special neighs/atom = 0
Neighbor list builds = 200
Dangerous builds not checked
*****Equilibration pos2 starts.*****
WARNING: New thermo_style command, previous thermo_modify settings will be lost (src/output.cpp:903)
Neighbor list info ...
  update: every = 10 steps, delay = 0 steps, check = no
  max neighbors/atom: 2000, page size: 100000
  master list distance cutoff = 12
  ghost atom cutoff = 12
  binsize = 6, bins = 5 3 3
  2 neighbor lists, perpetual/occasional/extra = 2 0 0
  (1) pair reaxff, perpetual
      attributes: half, newton off, ghost
      pair build: half/bin/newtoff/ghost
      stencil: full/ghost/bin/3d
      bin: standard
  (2) fix qeq/reaxff, perpetual, copy from (1)
      attributes: half, newton off
      pair build: copy
      stencil: none
      bin: none
Setting up Verlet run ...
  Unit style    : real
  Current step  : 0
  Time step     : 0.5
Per MPI rank memory allocation (min/avg/max) = 128.9 | 129.9 | 131.1 Mbytes
   Step          Temp          PotEng         Press        f_avgp[1]        Volume    
         0   319.0771      -36687.657      1270.6803      0              3524.889     
       100   307.44415     -36688.327     -4050.0345     -1794.0061      3524.889     
       200   296.92728     -36709.559     -6303.9597     -6353.3327      3524.889     
       300   297.70674     -36717.188     -12900.178     -7007.9917      3524.889     
       400   272.47071     -36683.248     -19216.543     -7401.2669      3524.889     
       500   309.42536     -36697.755      4282.0773     -6779.7329      3524.889     
       600   296.00107     -36676.633      1767.4177     -5279.8884      3524.889     
       700   301.62862     -36690.679     -3653.5944     -6377.5396      3524.889     
       800   290.57056     -36688.209     -7864.1708     -3413.9124      3524.889     
       900   311.28568     -36710.774      1930.9819     -2084.151       3524.889     
      1000   280.67282     -36682.155     -752.50375      342.75424      3524.889     
      1100   298.6674      -36694.559     -8597.3104     -5116.2938      3524.889     
      1200   293.18        -36675.121     -7656.5136     -2362.1642      3524.889     
      1300   300.35655     -36684.978      3885.8795     -2629.6969      3524.889     
      1400   277.58953     -36689.778     -631.20373     -4053.5972      3524.889     
      1500   276.1806      -36717.992      4603.9286     -1180.6794      3524.889     
      1600   280.48111     -36717.552      3715.6642     -1820.4698      3524.889     
      1700   274.32808     -36690.761     -15327.966     -5894.3842      3524.889     
      1800   304.60049     -36696.077      420.51503      1602.4395      3524.889     
      1900   308.8987      -36681.744     -6771.4098     -1179.1668      3524.889     
      2000   336.31803     -36700.723      2673.8096     -4061.8245      3524.889     
Loop time of 100.641 on 8 procs for 2000 steps with 331 atoms

Performance: 0.858 ns/day, 27.956 hours/ns, 19.873 timesteps/s, 6.578 katom-step/s
98.8% CPU use with 8 MPI tasks x 1 OpenMP threads

MPI task timing breakdown:
Section |  min time  |  avg time  |  max time  |%varavg| %total
---------------------------------------------------------------
Pair    | 61.338     | 79.209     | 84.497     |  85.7 | 78.70
Bond    | 0.00071476 | 0.00083563 | 0.001033   |   0.0 |  0.00
Neigh   | 5.04       | 6.3936     | 6.8806     |  22.9 |  6.35
Comm    | 1.1354     | 6.4275     | 24.299     | 300.9 |  6.39
Output  | 0.00095665 | 0.0010679  | 0.0017075  |   0.7 |  0.00
Modify  | 8.0791     | 8.5677     | 9.9273     |  19.9 |  8.51
Other   |            | 0.04136    |            |       |  0.04

Nlocal:         41.375 ave          46 max          37 min
Histogram: 1 2 0 0 0 2 1 0 1 1
Nghost:        3351.88 ave        3399 max        3303 min
Histogram: 3 0 0 0 1 0 1 0 0 3
Neighs:        27194.4 ave       30013 max       24571 min
Histogram: 2 1 0 0 0 2 1 0 0 2

Total # of neighbors = 217555
Ave neighs/atom = 657.26586
Ave special neighs/atom = 0
Neighbor list builds = 200
Dangerous builds not checked
OMP_NUM_THREADS environment is not set. Defaulting to 1 thread. (src/comm.cpp:98)
  using 1 OpenMP thread(s) per MPI task
Reading restart file ...
  restart file = 2 Aug 2023, LAMMPS = 2 Aug 2023
  restoring atom style full from restart
  triclinic box = (0.15795377 0.085803784 -0.0151998) to (15.550746 13.000996 17.54) with tilt (-8.684696 1.4418447 -2.3940357)
WARNING: Triclinic box skew is large. LAMMPS will run inefficiently. (src/domain.cpp:220)
  2 by 2 by 2 MPI processor grid
  pair style reaxff stores no restart info
  331 atoms
Finding 1-2 1-3 1-4 neighbors ...
  special bond factors lj:    0        0        0       
  special bond factors coul:  0        0        0       
     0 = max # of 1-2 neighbors
     0 = max # of 1-3 neighbors
     0 = max # of 1-4 neighbors
     1 = max # of special neighbors
  special bonds CPU = 0.000 seconds
  read_restart CPU = 0.003 seconds
*****Negative-change 3 starts.*****
Resetting global fix info from restart file:
  fix style: nvt, fix ID: 4
Changing box ...
WARNING: Triclinic box skew is large. LAMMPS will run inefficiently. (src/domain.cpp:220)
  triclinic box = (0.15795377 0.085803784 -0.0151998) to (15.550746 13.000996 17.364448) with tilt (-8.684696 1.4418447 -2.3940357)
All restart file global fix info was re-assigned
Neighbor list info ...
  update: every = 10 steps, delay = 0 steps, check = no
  max neighbors/atom: 2000, page size: 100000
  master list distance cutoff = 12
  ghost atom cutoff = 12
  binsize = 6, bins = 5 3 3
  2 neighbor lists, perpetual/occasional/extra = 2 0 0
  (1) pair reaxff, perpetual
      attributes: half, newton off, ghost
      pair build: half/bin/newtoff/ghost
      stencil: full/ghost/bin/3d
      bin: standard
  (2) fix qeq/reaxff, perpetual, copy from (1)
      attributes: half, newton off
      pair build: copy
      stencil: none
      bin: none
Setting up Verlet run ...
  Unit style    : real
  Current step  : 0
  Time step     : 0.5
Per MPI rank memory allocation (min/avg/max) = 130.7 | 132.2 | 133.3 Mbytes
   Step          Temp          PotEng         Press        f_avgp[1]        Volume    
         0   289.30794     -36686.252      57737.04       0              3455.0892    
       100   297.54701     -36711.505      1794.7135      1653.7914      3455.0892    
       200   275.43618     -36697.722     -1975.0848      3949.8063      3455.0892    
       300   294.75177     -36701.271     -342.97563      1615.8284      3455.0892    
       400   300.90209     -36675.827      6059.3333     -171.73043      3455.0892    
       500   329.10528     -36699.043     -989.70692     -219.04413      3455.0892    
       600   299.62914     -36691.377      23450.938     -174.56686      3455.0892    
       700   291.67911     -36696.031     -12101.022     -1255.2239      3455.0892    
       800   295.20789     -36704.339      7067.9615     -2674.8204      3455.0892    
       900   284.69565     -36682.888     -6261.6541     -1775.1034      3455.0892    
      1000   318.64093     -36685.831      7855.5768      1602.8846      3455.0892    
      1100   315.26477     -36670.344     -6762.7485     -3253.0625      3455.0892    
      1200   322.97062     -36689.933     -8779.6516      334.35173      3455.0892    
      1300   331.94439     -36711.114     -8106.3251     -4941.1035      3455.0892    
      1400   302.05144     -36701.302     -8763.2528     -5083.6209      3455.0892    
      1500   284.71857     -36703.076      8257.6277      3953.8065      3455.0892    
      1600   291.42239     -36706.986      12828.395     -3277.4163      3455.0892    
      1700   296.79488     -36683.766      7200.2958      2110.925       3455.0892    
      1800   330.83045     -36696.091     -5649.3194     -1483.359       3455.0892    
      1900   311.38814     -36689.052      1162.4144     -6467.3865      3455.0892    
      2000   314.98444     -36711.531      6061.103       3508.4817      3455.0892    
Loop time of 103.526 on 8 procs for 2000 steps with 331 atoms

Performance: 0.835 ns/day, 28.757 hours/ns, 19.319 timesteps/s, 6.395 katom-step/s
98.9% CPU use with 8 MPI tasks x 1 OpenMP threads

MPI task timing breakdown:
Section |  min time  |  avg time  |  max time  |%varavg| %total
---------------------------------------------------------------
Pair    | 59.202     | 79.314     | 86.599     | 130.2 | 76.61
Bond    | 0.00073806 | 0.00083931 | 0.00098568 |   0.0 |  0.00
Neigh   | 4.8749     | 6.4133     | 7.1353     |  34.8 |  6.19
Comm    | 1.4681     | 8.755      | 28.866     | 391.8 |  8.46
Output  | 0.0045458  | 0.0055359  | 0.0064632  |   1.0 |  0.01
Modify  | 8.2721     | 8.9964     | 10.546     |  29.6 |  8.69
Other   |            | 0.04047    |            |       |  0.04

Nlocal:         41.375 ave          48 max          36 min
Histogram: 2 0 1 1 0 1 0 2 0 1
Nghost:        3449.75 ave        3505 max        3388 min
Histogram: 2 0 0 0 2 0 1 1 0 2
Neighs:        27770.1 ave       32021 max       24488 min
Histogram: 2 0 1 1 1 0 0 2 0 1

Total # of neighbors = 222161
Ave neighs/atom = 671.18127
Ave special neighs/atom = 0
Neighbor list builds = 200
Dangerous builds not checked
*****Equilibration neg3 starts.*****
WARNING: New thermo_style command, previous thermo_modify settings will be lost (src/output.cpp:903)
Neighbor list info ...
  update: every = 10 steps, delay = 0 steps, check = no
  max neighbors/atom: 2000, page size: 100000
  master list distance cutoff = 12
  ghost atom cutoff = 12
  binsize = 6, bins = 5 3 3
  2 neighbor lists, perpetual/occasional/extra = 2 0 0
  (1) pair reaxff, perpetual
      attributes: half, newton off, ghost
      pair build: half/bin/newtoff/ghost
      stencil: full/ghost/bin/3d
      bin: standard
  (2) fix qeq/reaxff, perpetual, copy from (1)
      attributes: half, newton off
      pair build: copy
      stencil: none
      bin: none
Setting up Verlet run ...
  Unit style    : real
  Current step  : 0
  Time step     : 0.5
Per MPI rank memory allocation (min/avg/max) = 130.7 | 132.2 | 133.3 Mbytes
   Step          Temp          PotEng         Press        f_avgp[1]        Volume    
         0   314.98444     -36711.531      6061.1603      0              3455.0892    
       100   309.58989     -36715.349     -7754.3582     -2663.9906      3455.0892    
       200   282.98888     -36713.408     -14870.774     -5610.9662      3455.0892    
       300   285.91432     -36735.205      789.61503     -3393.181       3455.0892    
       400   304.83921     -36727.324      7182.8923     -2195.6697      3455.0892    
       500   297.17459     -36696.822      10736.353      7357.9863      3455.0892    
       600   294.32194     -36693.633     -1681.9147     -1160.1688      3455.0892    
       700   284.79809     -36691.609      436.97662     -3816.4613      3455.0892    
       800   302.28784     -36718.033      1422.2134     -6410.9155      3455.0892    
       900   285.77022     -36711.653      13062.613      4431.9292      3455.0892    
      1000   312.62557     -36731.064     -1248.7567     -3086.561       3455.0892    
      1100   293.90531     -36690.155     -810.47391      156.82298      3455.0892    
      1200   296.76373     -36676.619      2753.8194     -7550.3181      3455.0892    
      1300   296.49128     -36693.525     -3054.2343      1882.2535      3455.0892    
      1400   290.1516      -36717.094      13386.244     -2008.0048      3455.0892    
      1500   285.77227     -36716.368     -1975.1673     -8537.2248      3455.0892    
      1600   280.49545     -36705.816      10121.075      1091.2132      3455.0892    
      1700   296.5491      -36708.736     -4119.4697      3306.8402      3455.0892    
      1800   294.38905     -36673.238      10723.417      4792.9344      3455.0892    
      1900   322.09105     -36680.522     -3552.2142     -6347.3509      3455.0892    
      2000   308.66418     -36686.072      7769.8        -2000.7949      3455.0892    
Loop time of 104.001 on 8 procs for 2000 steps with 331 atoms

Performance: 0.831 ns/day, 28.889 hours/ns, 19.231 timesteps/s, 6.365 katom-step/s
98.9% CPU use with 8 MPI tasks x 1 OpenMP threads

MPI task timing breakdown:
Section |  min time  |  avg time  |  max time  |%varavg| %total
---------------------------------------------------------------
Pair    | 59.751     | 81.337     | 86.901     | 103.7 | 78.21
Bond    | 0.00072561 | 0.00084917 | 0.001035   |   0.0 |  0.00
Neigh   | 4.8924     | 6.5756     | 7.1754     |  28.4 |  6.32
Comm    | 1.697      | 7.2632     | 28.85      | 347.2 |  6.98
Output  | 0.00092232 | 0.001038   | 0.0016819  |   0.8 |  0.00
Modify  | 8.1819     | 8.7825     | 10.473     |  24.8 |  8.44
Other   |            | 0.04161    |            |       |  0.04

Nlocal:         41.375 ave          48 max          35 min
Histogram: 2 0 0 0 2 1 1 1 0 1
Nghost:        3436.25 ave        3490 max        3390 min
Histogram: 3 0 0 0 1 0 2 0 1 1
Neighs:        27764.2 ave       32018 max       23799 min
Histogram: 2 0 0 0 2 1 1 1 0 1

Total # of neighbors = 222114
Ave neighs/atom = 671.03927
Ave special neighs/atom = 0
Neighbor list builds = 200
Dangerous builds not checked
OMP_NUM_THREADS environment is not set. Defaulting to 1 thread. (src/comm.cpp:98)
  using 1 OpenMP thread(s) per MPI task
Reading restart file ...
  restart file = 2 Aug 2023, LAMMPS = 2 Aug 2023
  restoring atom style full from restart
  triclinic box = (0.15795377 0.085803784 -0.0151998) to (15.550746 13.000996 17.54) with tilt (-8.684696 1.4418447 -2.3940357)
WARNING: Triclinic box skew is large. LAMMPS will run inefficiently. (src/domain.cpp:220)
  2 by 2 by 2 MPI processor grid
  pair style reaxff stores no restart info
  331 atoms
Finding 1-2 1-3 1-4 neighbors ...
  special bond factors lj:    0        0        0       
  special bond factors coul:  0        0        0       
     0 = max # of 1-2 neighbors
     0 = max # of 1-3 neighbors
     0 = max # of 1-4 neighbors
     1 = max # of special neighbors
  special bonds CPU = 0.000 seconds
  read_restart CPU = 0.002 seconds
*****Positive-change 3 starts.*****
Resetting global fix info from restart file:
  fix style: nvt, fix ID: 4
Changing box ...
WARNING: Triclinic box skew is large. LAMMPS will run inefficiently. (src/domain.cpp:220)
  triclinic box = (0.15795377 0.085803784 -0.0151998) to (15.550746 13.000996 17.715552) with tilt (-8.684696 1.4418447 -2.3940357)
All restart file global fix info was re-assigned
Neighbor list info ...
  update: every = 10 steps, delay = 0 steps, check = no
  max neighbors/atom: 2000, page size: 100000
  master list distance cutoff = 12
  ghost atom cutoff = 12
  binsize = 6, bins = 5 3 3
  2 neighbor lists, perpetual/occasional/extra = 2 0 0
  (1) pair reaxff, perpetual
      attributes: half, newton off, ghost
      pair build: half/bin/newtoff/ghost
      stencil: full/ghost/bin/3d
      bin: standard
  (2) fix qeq/reaxff, perpetual, copy from (1)
      attributes: half, newton off
      pair build: copy
      stencil: none
      bin: none
Setting up Verlet run ...
  Unit style    : real
  Current step  : 0
  Time step     : 0.5
Per MPI rank memory allocation (min/avg/max) = 128.9 | 130.5 | 131.9 Mbytes
   Step          Temp          PotEng         Press        f_avgp[1]        Volume    
         0   289.30794     -36689.286     -40905.964      0              3524.889     
       100   293.7368      -36710.312     -4653.9532     -3647.1722      3524.889     
       200   285.91827     -36710.707      757.97069     -13.565884      3524.889     
       300   313.07249     -36713.273      7999.6629      836.69743      3524.889     
       400   308.88496     -36685.316     -13031.953     -5042.2423      3524.889     
       500   327.20017     -36701.149      1363.1584     -1675.1735      3524.889     
       600   327.42715     -36718.837     -5875.1815     -8120.6016      3524.889     
       700   291.60501     -36693.801      4257.701      -2988.4053      3524.889     
       800   317.22903     -36718.118     -7926.958      -5001.9002      3524.889     
       900   307.60955     -36709.514     -5642.5169     -2054.7061      3524.889     
      1000   313.80287     -36700.14      -6978.0222     -5500.4364      3524.889     
      1100   302.47244     -36669.204     -3569.3004     -10248.24       3524.889     
      1200   313.28475     -36689.4        6240.7048     -3055.5707      3524.889     
      1300   284.51362     -36692.07      -6240.6033     -3404.0459      3524.889     
      1400   296.22111     -36705.493      634.78934     -10389.882      3524.889     
      1500   304.72135     -36707.194      4692.619       203.43288      3524.889     
      1600   317.09752     -36696.285     -4513.9087     -3102.9477      3524.889     
      1700   338.35298     -36692.541      11020.814      964.9507       3524.889     
      1800   322.29026     -36691.443     -4118.5743     -7121.3703      3524.889     
      1900   303.95206     -36686.505     -3711.5077     -6881.1611      3524.889     
      2000   311.15484     -36710.583     -7910.0442     -7651.8893      3524.889     
Loop time of 100.093 on 8 procs for 2000 steps with 331 atoms

Performance: 0.863 ns/day, 27.804 hours/ns, 19.981 timesteps/s, 6.614 katom-step/s
98.9% CPU use with 8 MPI tasks x 1 OpenMP threads

MPI task timing breakdown:
Section |  min time  |  avg time  |  max time  |%varavg| %total
---------------------------------------------------------------
Pair    | 57.375     | 78.833     | 83.775     |  94.4 | 78.76
Bond    | 0.00070239 | 0.00084067 | 0.0010192  |   0.0 |  0.00
Neigh   | 4.7303     | 6.4193     | 6.956      |  26.4 |  6.41
Comm    | 1.2693     | 6.2152     | 27.675     | 336.4 |  6.21
Output  | 0.0041732  | 0.0051185  | 0.0059815  |   1.0 |  0.01
Modify  | 8.036      | 8.5775     | 10.272     |  22.9 |  8.57
Other   |            | 0.04256    |            |       |  0.04

Nlocal:         41.375 ave          49 max          35 min
Histogram: 1 0 2 1 1 1 0 1 0 1
Nghost:         3379.5 ave        3430 max        3319 min
Histogram: 2 0 0 0 1 1 1 1 1 1
Neighs:        27207.6 ave       32040 max       23171 min
Histogram: 1 0 2 1 1 1 0 1 0 1

Total # of neighbors = 217661
Ave neighs/atom = 657.5861
Ave special neighs/atom = 0
Neighbor list builds = 200
Dangerous builds not checked
*****Equilibration pos3 starts.*****
WARNING: New thermo_style command, previous thermo_modify settings will be lost (src/output.cpp:903)
Neighbor list info ...
  update: every = 10 steps, delay = 0 steps, check = no
  max neighbors/atom: 2000, page size: 100000
  master list distance cutoff = 12
  ghost atom cutoff = 12
  binsize = 6, bins = 5 3 3
  2 neighbor lists, perpetual/occasional/extra = 2 0 0
  (1) pair reaxff, perpetual
      attributes: half, newton off, ghost
      pair build: half/bin/newtoff/ghost
      stencil: full/ghost/bin/3d
      bin: standard
  (2) fix qeq/reaxff, perpetual, copy from (1)
      attributes: half, newton off
      pair build: copy
      stencil: none
      bin: none
Setting up Verlet run ...
  Unit style    : real
  Current step  : 0
  Time step     : 0.5
Per MPI rank memory allocation (min/avg/max) = 129 | 130.5 | 131.8 Mbytes
   Step          Temp          PotEng         Press        f_avgp[1]        Volume    
         0   311.15484     -36710.583     -7910.0399      0              3524.889     
       100   301.24231     -36711.595      9369.2623      424.99738      3524.889     
       200   292.12862     -36723.968      4710.6506      1230.6129      3524.889     
       300   291.04341     -36742.962     -14352.586      4316.9379      3524.889     
       400   282.30643     -36746.31      -4039.2657      787.71796      3524.889     
       500   276.84252     -36708.623     -2970.8783     -3313.6853      3524.889     
       600   297.24488     -36703.133     -6448.0404     -1093.1204      3524.889     
       700   306.9308      -36703.38       1222.395      -3370.6906      3524.889     
       800   292.026       -36691.24      -4108.7882      195.27916      3524.889     
       900   292.76845     -36710.417      2473.7084     -2137.5262      3524.889     
      1000   284.32747     -36716.399      4448.0228     -2667.8908      3524.889     
      1100   294.15479     -36720.579     -4350.6827     -5242.7061      3524.889     
      1200   312.98399     -36703.615      7618.4592     -756.48333      3524.889     
      1300   310.67343     -36688.177     -3138.711      -4297.2248      3524.889     
      1400   285.49487     -36678.631      4048.8539     -4051.2804      3524.889     
      1500   307.96964     -36725.804     -18449.006     -5470.1691      3524.889     
      1600   287.33889     -36712.686     -3040.6136      1529.1695      3524.889     
      1700   296.72973     -36712.9       -4540.2848     -3199.3285      3524.889     
      1800   305.67416     -36715.23      -6368.3753     -3968.7518      3524.889     
      1900   292.26202     -36687.759     -10834.905     -5039.9906      3524.889     
      2000   313.1499      -36681.438     -1501.7388     -8492.4462      3524.889     
Loop time of 100.36 on 8 procs for 2000 steps with 331 atoms

Performance: 0.861 ns/day, 27.878 hours/ns, 19.928 timesteps/s, 6.596 katom-step/s
99.0% CPU use with 8 MPI tasks x 1 OpenMP threads

MPI task timing breakdown:
Section |  min time  |  avg time  |  max time  |%varavg| %total
---------------------------------------------------------------
Pair    | 58.263     | 78.317     | 83.963     |  95.3 | 78.04
Bond    | 0.00072157 | 0.00084117 | 0.0009689  |   0.0 |  0.00
Neigh   | 4.7787     | 6.4005     | 6.9769     |  27.5 |  6.38
Comm    | 1.0356     | 6.6919     | 26.744     | 326.2 |  6.67
Output  | 0.00087834 | 0.00098882 | 0.0014908  |   0.0 |  0.00
Modify  | 8.3288     | 8.9066     | 10.534     |  23.4 |  8.87
Other   |            | 0.04198    |            |       |  0.04

Nlocal:         41.375 ave          48 max          36 min
Histogram: 1 0 2 0 1 3 0 0 0 1
Nghost:        3381.88 ave        3456 max        3310 min
Histogram: 2 0 0 1 0 2 1 1 0 1
Neighs:        27199.5 ave       31339 max       23851 min
Histogram: 1 0 2 0 2 2 0 0 0 1

Total # of neighbors = 217596
Ave neighs/atom = 657.38973
Ave special neighs/atom = 0
Neighbor list builds = 200
Dangerous builds not checked
OMP_NUM_THREADS environment is not set. Defaulting to 1 thread. (src/comm.cpp:98)
  using 1 OpenMP thread(s) per MPI task
Reading restart file ...
  restart file = 2 Aug 2023, LAMMPS = 2 Aug 2023
  restoring atom style full from restart
  triclinic box = (0.15795377 0.085803784 -0.0151998) to (15.550746 13.000996 17.54) with tilt (-8.684696 1.4418447 -2.3940357)
WARNING: Triclinic box skew is large. LAMMPS will run inefficiently. (src/domain.cpp:220)
  2 by 2 by 2 MPI processor grid
  pair style reaxff stores no restart info
  331 atoms
Finding 1-2 1-3 1-4 neighbors ...
  special bond factors lj:    0        0        0       
  special bond factors coul:  0        0        0       
     0 = max # of 1-2 neighbors
     0 = max # of 1-3 neighbors
     0 = max # of 1-4 neighbors
     1 = max # of special neighbors
  special bonds CPU = 0.000 seconds
  read_restart CPU = 0.003 seconds
*****Negative-change 4 starts.*****
Resetting global fix info from restart file:
  fix style: nvt, fix ID: 4
Changing box ...
WARNING: Triclinic box skew is large. LAMMPS will run inefficiently. (src/domain.cpp:220)
  triclinic box = (0.15795377 0.085803784 -0.0151998) to (15.550746 13.000996 17.54) with tilt (-8.684696 1.4418447 -2.5695877)
All restart file global fix info was re-assigned
Neighbor list info ...
  update: every = 10 steps, delay = 0 steps, check = no
  max neighbors/atom: 2000, page size: 100000
  master list distance cutoff = 12
  ghost atom cutoff = 12
  binsize = 6, bins = 5 3 3
  2 neighbor lists, perpetual/occasional/extra = 2 0 0
  (1) pair reaxff, perpetual
      attributes: half, newton off, ghost
      pair build: half/bin/newtoff/ghost
      stencil: full/ghost/bin/3d
      bin: standard
  (2) fix qeq/reaxff, perpetual, copy from (1)
      attributes: half, newton off
      pair build: copy
      stencil: none
      bin: none
Setting up Verlet run ...
  Unit style    : real
  Current step  : 0
  Time step     : 0.5
Per MPI rank memory allocation (min/avg/max) = 129.6 | 131.3 | 132.9 Mbytes
   Step          Temp          PotEng         Press        f_avgp[1]        Volume    
         0   289.30794     -36701.664      11340.048      0              3489.9891    
       100   292.45783     -36715.711      3614.0882     -2961.8146      3489.9891    
       200   279.6951      -36694.618      746.72218     -1218.7608      3489.9891    
       300   318.95824     -36703.763      2342.5232      581.26799      3489.9891    
       400   290.76691     -36674.742     -17132.466     -1854.3921      3489.9891    
       500   326.39        -36710.918     -1822.662       1677.648       3489.9891    
       600   311.61012     -36732.365     -2747.3918     -7677.7989      3489.9891    
       700   286.77965     -36724.937      1428.9142     -2386.0752      3489.9891    
       800   296.12479     -36722.121     -8000.704      -7082.7306      3489.9891    
       900   283.03917     -36686.275      7625.6573      2159.5959      3489.9891    
      1000   299.83509     -36694.127     -4895.682      -1875.8456      3489.9891    
      1100   291.6719      -36689.144     -14127.218     -8578.5342      3489.9891    
      1200   311.07375     -36721.391     -2741.9254     -5524.9752      3489.9891    
      1300   265.50263     -36714.351     -9444.5947     -4981.059       3489.9891    
      1400   278.78852     -36719.166     -2130.9049     -3466.6099      3489.9891    
      1500   295.55924     -36707.107      3644.9302     -1981.6661      3489.9891    
      1600   292.18483     -36695.772     -2045.4113     -2683.5585      3489.9891    
      1700   286.26666     -36695.541     -4136.6542     -1797.0418      3489.9891    
      1800   291.79168     -36710.838      7259.3335     -2638.6989      3489.9891    
      1900   294.36003     -36719.701     -874.9727      -2569.4627      3489.9891    
      2000   304.44175     -36714.686      2529.4044     -2658.2519      3489.9891    
Loop time of 102.51 on 8 procs for 2000 steps with 331 atoms

Performance: 0.843 ns/day, 28.475 hours/ns, 19.510 timesteps/s, 6.458 katom-step/s
98.8% CPU use with 8 MPI tasks x 1 OpenMP threads

MPI task timing breakdown:
Section |  min time  |  avg time  |  max time  |%varavg| %total
---------------------------------------------------------------
Pair    | 65.376     | 81.647     | 85.794     |  71.0 | 79.65
Bond    | 0.00072844 | 0.00085084 | 0.00096523 |   0.0 |  0.00
Neigh   | 5.3166     | 6.6177     | 7.0638     |  20.3 |  6.46
Comm    | 1.3286     | 5.4869     | 21.747     | 273.8 |  5.35
Output  | 0.0041779  | 0.0050247  | 0.0058464  |   0.9 |  0.00
Modify  | 8.275      | 8.712      | 10.027     |  17.9 |  8.50
Other   |            | 0.04057    |            |       |  0.04

Nlocal:         41.375 ave          47 max          36 min
Histogram: 2 0 1 1 1 0 0 0 1 2
Nghost:        3430.38 ave        3480 max        3391 min
Histogram: 2 1 0 1 0 1 1 1 0 1
Neighs:        27478.9 ave       30976 max       24181 min
Histogram: 1 1 1 1 1 0 0 0 1 2

Total # of neighbors = 219831
Ave neighs/atom = 664.14199
Ave special neighs/atom = 0
Neighbor list builds = 200
Dangerous builds not checked
*****Equilibration neg4 starts.*****
WARNING: New thermo_style command, previous thermo_modify settings will be lost (src/output.cpp:903)
Neighbor list info ...
  update: every = 10 steps, delay = 0 steps, check = no
  max neighbors/atom: 2000, page size: 100000
  master list distance cutoff = 12
  ghost atom cutoff = 12
  binsize = 6, bins = 5 3 3
  2 neighbor lists, perpetual/occasional/extra = 2 0 0
  (1) pair reaxff, perpetual
      attributes: half, newton off, ghost
      pair build: half/bin/newtoff/ghost
      stencil: full/ghost/bin/3d
      bin: standard
  (2) fix qeq/reaxff, perpetual, copy from (1)
      attributes: half, newton off
      pair build: copy
      stencil: none
      bin: none
Setting up Verlet run ...
  Unit style    : real
  Current step  : 0
  Time step     : 0.5
Per MPI rank memory allocation (min/avg/max) = 129.6 | 131.3 | 132.9 Mbytes
   Step          Temp          PotEng         Press        f_avgp[1]        Volume    
         0   304.44175     -36714.686      2529.355       0              3489.9891    
       100   306.7767      -36710.587      9981.8119     -3288.815       3489.9891    
       200   322.21805     -36694.343     -3273.2822      5453.7011      3489.9891    
       300   318.3874      -36673.539     -4406.2606     -4262.0943      3489.9891    
       400   318.37944     -36688.963     -3433.1147     -2137.4022      3489.9891    
       500   301.88735     -36694.132     -1074.3792     -2280.1865      3489.9891    
       600   287.94857     -36692.412      796.83472     -904.62581      3489.9891    
       700   296.17493     -36704.89      -5384.9123     -4717.8039      3489.9891    
       800   297.38727     -36698.461     -7098.4617     -2729.3162      3489.9891    
       900   312.08397     -36700.93       5228.7206     -3323.9601      3489.9891    
      1000   308.62556     -36705.747      4651.2324      5297.4457      3489.9891    
      1100   297.60102     -36718.397      6808.251      -1469.3205      3489.9891    
      1200   278.48376     -36711.201     -6658.7488     -406.59018      3489.9891    
      1300   327.05224     -36741.304     -8443.5873     -336.97247      3489.9891    
      1400   309.1767      -36687.985     -5343.9641     -1042.486       3489.9891    
      1500   321.22414     -36697.475     -6310.9364     -2803.5983      3489.9891    
      1600   315.85495     -36711.574     -2629.3294     -3444.0448      3489.9891    
      1700   293.98121     -36705.362     -7365.3089     -8100.7026      3489.9891    
      1800   297.85243     -36714.581     -7277.225      -1704.8292      3489.9891    
      1900   280.86195     -36695.696      8061.1411     -3944.8266      3489.9891    
      2000   302.09036     -36685.521      9035.9557      1802.3986      3489.9891    
Loop time of 102.302 on 8 procs for 2000 steps with 331 atoms

Performance: 0.845 ns/day, 28.417 hours/ns, 19.550 timesteps/s, 6.471 katom-step/s
99.0% CPU use with 8 MPI tasks x 1 OpenMP threads

MPI task timing breakdown:
Section |  min time  |  avg time  |  max time  |%varavg| %total
---------------------------------------------------------------
Pair    | 75.557     | 83.477     | 85.725     |  33.2 | 81.60
Bond    | 0.00076329 | 0.00085945 | 0.00099854 |   0.0 |  0.00
Neigh   | 6.2144     | 6.747      | 7.0207     |   8.8 |  6.60
Comm    | 1.3282     | 3.5878     | 11.502     | 160.2 |  3.51
Output  | 0.00090948 | 0.0010242  | 0.0015357  |   0.6 |  0.00
Modify  | 8.185      | 8.4452     | 8.9837     |   7.8 |  8.26
Other   |            | 0.04251    |            |       |  0.04

Nlocal:         41.375 ave          50 max          34 min
Histogram: 2 0 1 0 1 1 1 0 1 1
Nghost:        3417.75 ave        3462 max        3379 min
Histogram: 3 0 0 0 2 0 0 0 2 1
Neighs:          27468 ave       32810 max       22855 min
Histogram: 2 0 1 0 1 1 1 0 1 1

Total # of neighbors = 219744
Ave neighs/atom = 663.87915
Ave special neighs/atom = 0
Neighbor list builds = 200
Dangerous builds not checked
OMP_NUM_THREADS environment is not set. Defaulting to 1 thread. (src/comm.cpp:98)
  using 1 OpenMP thread(s) per MPI task
Reading restart file ...
  restart file = 2 Aug 2023, LAMMPS = 2 Aug 2023
  restoring atom style full from restart
  triclinic box = (0.15795377 0.085803784 -0.0151998) to (15.550746 13.000996 17.54) with tilt (-8.684696 1.4418447 -2.3940357)
WARNING: Triclinic box skew is large. LAMMPS will run inefficiently. (src/domain.cpp:220)
  2 by 2 by 2 MPI processor grid
  pair style reaxff stores no restart info
  331 atoms
Finding 1-2 1-3 1-4 neighbors ...
  special bond factors lj:    0        0        0       
  special bond factors coul:  0        0        0       
     0 = max # of 1-2 neighbors
     0 = max # of 1-3 neighbors
     0 = max # of 1-4 neighbors
     1 = max # of special neighbors
  special bonds CPU = 0.000 seconds
  read_restart CPU = 0.003 seconds
*****Positive-change 4 starts.*****
Resetting global fix info from restart file:
  fix style: nvt, fix ID: 4
Changing box ...
WARNING: Triclinic box skew is large. LAMMPS will run inefficiently. (src/domain.cpp:220)
  triclinic box = (0.15795377 0.085803784 -0.0151998) to (15.550746 13.000996 17.54) with tilt (-8.684696 1.4418447 -2.2184837)
All restart file global fix info was re-assigned
Neighbor list info ...
  update: every = 10 steps, delay = 0 steps, check = no
  max neighbors/atom: 2000, page size: 100000
  master list distance cutoff = 12
  ghost atom cutoff = 12
  binsize = 6, bins = 5 3 3
  2 neighbor lists, perpetual/occasional/extra = 2 0 0
  (1) pair reaxff, perpetual
      attributes: half, newton off, ghost
      pair build: half/bin/newtoff/ghost
      stencil: full/ghost/bin/3d
      bin: standard
  (2) fix qeq/reaxff, perpetual, copy from (1)
      attributes: half, newton off
      pair build: copy
      stencil: none
      bin: none
Setting up Verlet run ...
  Unit style    : real
  Current step  : 0
  Time step     : 0.5
Per MPI rank memory allocation (min/avg/max) = 129.5 | 131 | 132.4 Mbytes
   Step          Temp          PotEng         Press        f_avgp[1]        Volume    
         0   289.30794     -36700.148      3431.1207      0              3489.9891    
       100   293.1289      -36715.178      4146.5245     -3018.3694      3489.9891    
       200   280.68761     -36696.952      9350.7659      1262.6904      3489.9891    
       300   305.34883     -36690.421     -6614.5836     -2549.5607      3489.9891    
       400   299.51335     -36676.983     -10697.134     -3742.2553      3489.9891    
       500   326.49624     -36700.145      4976.5547     -1394.4156      3489.9891    
       600   304.13201     -36703.865     -2392.896      -7362.7127      3489.9891    
       700   277.59307     -36709.994      1171.7533     -3068.7538      3489.9891    
       800   289.59764     -36714.624      7834.2498     -6107.2922      3489.9891    
       900   315.57405     -36718.48       11002.639      3185.5987      3489.9891    
      1000   313.51891     -36698.547     -7865.514      -3659.1712      3489.9891    
      1100   282.10694     -36673.571      4711.0318     -7056.6086      3489.9891    
      1200   300.99166     -36694.716      10093.927     -5783.1529      3489.9891    
      1300   298.39034     -36699.322      17969.462     -4056.7249      3489.9891    
      1400   304.07816     -36727.187     -12410.4       -1165.6495      3489.9891    
      1500   291.70189     -36721.458      3112.9878      780.24788      3489.9891    
      1600   294.4895      -36703.62      -5035.9362     -2710.1507      3489.9891    
      1700   299.69198     -36685.104     -1895.3203     -171.24588      3489.9891    
      1800   307.74262     -36696.479      6554.1639     -413.1245       3489.9891    
      1900   311.30754     -36719.571      4499.8654      997.085        3489.9891    
      2000   294.85491     -36716.971      2327.5269     -3921.6456      3489.9891    
Loop time of 102.415 on 8 procs for 2000 steps with 331 atoms

Performance: 0.844 ns/day, 28.449 hours/ns, 19.528 timesteps/s, 6.464 katom-step/s
98.9% CPU use with 8 MPI tasks x 1 OpenMP threads

MPI task timing breakdown:
Section |  min time  |  avg time  |  max time  |%varavg| %total
---------------------------------------------------------------
Pair    | 83.415     | 84.31      | 85.941     |   8.5 | 82.32
Bond    | 0.00075843 | 0.00086928 | 0.0010482  |   0.0 |  0.00
Neigh   | 6.608      | 6.7758     | 6.989      |   5.0 |  6.62
Comm    | 1.152      | 2.7892     | 3.6834     |  46.8 |  2.72
Output  | 0.0042754  | 0.0052007  | 0.0060762  |   0.9 |  0.01
Modify  | 8.283      | 8.4915     | 8.66       |   4.4 |  8.29
Other   |            | 0.0431     |            |       |  0.04

Nlocal:         41.375 ave          47 max          36 min
Histogram: 1 1 1 0 1 1 1 0 1 1
Nghost:        3402.88 ave        3432 max        3366 min
Histogram: 1 2 0 0 0 1 1 0 0 3
Neighs:        27497.8 ave       30963 max       24207 min
Histogram: 1 0 2 0 1 1 1 0 1 1

Total # of neighbors = 219982
Ave neighs/atom = 664.59819
Ave special neighs/atom = 0
Neighbor list builds = 200
Dangerous builds not checked
*****Equilibration pos4 starts.*****
WARNING: New thermo_style command, previous thermo_modify settings will be lost (src/output.cpp:903)
Neighbor list info ...
  update: every = 10 steps, delay = 0 steps, check = no
  max neighbors/atom: 2000, page size: 100000
  master list distance cutoff = 12
  ghost atom cutoff = 12
  binsize = 6, bins = 5 3 3
  2 neighbor lists, perpetual/occasional/extra = 2 0 0
  (1) pair reaxff, perpetual
      attributes: half, newton off, ghost
      pair build: half/bin/newtoff/ghost
      stencil: full/ghost/bin/3d
      bin: standard
  (2) fix qeq/reaxff, perpetual, copy from (1)
      attributes: half, newton off
      pair build: copy
      stencil: none
      bin: none
Setting up Verlet run ...
  Unit style    : real
  Current step  : 0
  Time step     : 0.5
Per MPI rank memory allocation (min/avg/max) = 129.5 | 131 | 132.4 Mbytes
   Step          Temp          PotEng         Press        f_avgp[1]        Volume    
         0   294.85491     -36716.971      2327.4835      0              3489.9891    
       100   309.2947      -36720.181     -2273.274      -2704.3397      3489.9891    
       200   311.05747     -36695.436     -16884.764     -233.81874      3489.9891    
       300   317.24757     -36680.173     -7157.3965     -6872.3258      3489.9891    
       400   325.53797     -36681.882     -4432.4505     -5287.6334      3489.9891    
       500   339.95668     -36730.696     -3413.4684     -7178.9387      3489.9891    
       600   302.99376     -36728.03      -8919.1946     -6145.7933      3489.9891    
       700   286.86406     -36728.776     -6533.482      -1881.9753      3489.9891    
       800   281.77507     -36716.844      1980.428      -1779.3128      3489.9891    
[...]
      1600   306.51656     -36682.947      9822.0141     -4234.9371      3489.9891    
      1700   313.8217      -36705.222     -14207.054     -6329.0036      3489.9891    
      1800   294.43671     -36699.978      4778.4452     -2770.6427      3489.9891    
      1900   281.91966     -36695.932     -12221.996     -5415.3548      3489.9891    
      2000   288.27481     -36707.672     -2681.8268     -4049.7584      3489.9891    
Loop time of 102.338 on 8 procs for 2000 steps with 331 atoms

Performance: 0.844 ns/day, 28.427 hours/ns, 19.543 timesteps/s, 6.469 katom-step/s
98.8% CPU use with 8 MPI tasks x 1 OpenMP threads

MPI task timing breakdown:
Section |  min time  |  avg time  |  max time  |%varavg| %total
---------------------------------------------------------------
Pair    | 83.4       | 84.486     | 85.78      |   8.4 | 82.56
Bond    | 0.00077543 | 0.00085717 | 0.00095647 |   0.0 |  0.00
Neigh   | 6.6367     | 6.8248     | 7.006      |   4.6 |  6.67
Comm    | 1.2214     | 2.5295     | 3.6184     |  48.7 |  2.47
Output  | 0.00095513 | 0.0010487  | 0.001505   |   0.5 |  0.00
Modify  | 8.2787     | 8.4543     | 8.6397     |   4.0 |  8.26
Other   |            | 0.04218    |            |       |  0.04

Nlocal:         41.375 ave          48 max          36 min
Histogram: 1 1 0 2 0 2 1 0 0 1
Nghost:        3402.12 ave        3462 max        3333 min
Histogram: 1 1 0 1 1 0 1 1 0 2
Neighs:        27507.8 ave       31828 max       24208 min
Histogram: 1 1 0 2 1 1 1 0 0 1

Total # of neighbors = 220062
Ave neighs/atom = 664.83988
Ave special neighs/atom = 0
Neighbor list builds = 200
Dangerous builds not checked
OMP_NUM_THREADS environment is not set. Defaulting to 1 thread. (src/comm.cpp:98)
  using 1 OpenMP thread(s) per MPI task
Reading restart file ...
  restart file = 2 Aug 2023, LAMMPS = 2 Aug 2023
  restoring atom style full from restart
  triclinic box = (0.15795377 0.085803784 -0.0151998) to (15.550746 13.000996 17.54) with tilt (-8.684696 1.4418447 -2.3940357)
WARNING: Triclinic box skew is large. LAMMPS will run inefficiently. (src/domain.cpp:220)
  2 by 2 by 2 MPI processor grid
  pair style reaxff stores no restart info
  331 atoms
Finding 1-2 1-3 1-4 neighbors ...
  special bond factors lj:    0        0        0       
  special bond factors coul:  0        0        0       
     0 = max # of 1-2 neighbors
     0 = max # of 1-3 neighbors
     0 = max # of 1-4 neighbors
     1 = max # of special neighbors
  special bonds CPU = 0.000 seconds
  read_restart CPU = 0.003 seconds
*****Negative-change 6 starts.*****
Resetting global fix info from restart file:
  fix style: nvt, fix ID: 4
Changing box ...
WARNING: Triclinic box skew is large. LAMMPS will run inefficiently. (src/domain.cpp:220)
  triclinic box = (0.15795377 0.085803784 -0.0151998) to (15.550746 13.000996 17.54) with tilt (-8.813848 1.4418447 -2.3940357)
All restart file global fix info was re-assigned
Neighbor list info ...
  update: every = 10 steps, delay = 0 steps, check = no
  max neighbors/atom: 2000, page size: 100000
  master list distance cutoff = 12
  ghost atom cutoff = 12
  binsize = 6, bins = 5 3 3
  2 neighbor lists, perpetual/occasional/extra = 2 0 0
  (1) pair reaxff, perpetual
      attributes: half, newton off, ghost
      pair build: half/bin/newtoff/ghost
      stencil: full/ghost/bin/3d
      bin: standard
  (2) fix qeq/reaxff, perpetual, copy from (1)
      attributes: half, newton off
      pair build: copy
      stencil: none
      bin: none
Setting up Verlet run ...
  Unit style    : real
  Current step  : 0
  Time step     : 0.5
Per MPI rank memory allocation (min/avg/max) = 130.2 | 131.8 | 133.4 Mbytes
   Step          Temp          PotEng         Press        f_avgp[1]        Volume    
         0   289.30794     -36700.839      6673.8928      0              3489.9891    
       100   289.86994     -36712.822      9869.7771     -3298.1283      3489.9891    
       200   280.28575     -36696.222      5208.8966      301.1048       3489.9891    
       300   326.33501     -36712.347      8940.8421      782.40534      3489.9891    
       400   302.82981     -36685.805     -5229.6272     -2919.1232      3489.9891    
       500   316.7925      -36702.884     -10169.554      202.60503      3489.9891    
       600   288.38639     -36713.37       14724.325     -2309.6337      3489.9891    
       700   294.21614     -36726.602      5488.8574     -1481.4631      3489.9891    
       800   295.28084     -36711.536      5333.1676     -777.94178      3489.9891    
       900   308.30717     -36702.934      917.66549      2503.6037      3489.9891    
      1000   324.20116     -36715.989      632.37549     -1333.6688      3489.9891    
      1100   286.94834     -36694.296     -11500.684     -8633.5889      3489.9891    
      1200   275.63276     -36717.821     -14285.729     -433.48279      3489.9891    
      1300   259.05615     -36706.383      7382.9966      1455.8564      3489.9891    
      1400   292.31393     -36716.523      345.45033     -5878.3728      3489.9891    
      1500   284.69421     -36691.717     -7074.2909      2550.1546      3489.9891    
      1600   299.04347     -36686.918     -3604.2854     -2399.4399      3489.9891    
      1700   307.4148      -36686.649      1654.8915      788.65229      3489.9891    
      1800   288.15504     -36682.882      1340.0948     -328.50854      3489.9891    
      1900   276.00085     -36704.019      7482.4378     -25.85613       3489.9891    
      2000   277.77778     -36710          12552.276     -204.32079      3489.9891    
Loop time of 102.451 on 8 procs for 2000 steps with 331 atoms

Performance: 0.843 ns/day, 28.459 hours/ns, 19.521 timesteps/s, 6.462 katom-step/s
98.9% CPU use with 8 MPI tasks x 1 OpenMP threads

MPI task timing breakdown:
Section |  min time  |  avg time  |  max time  |%varavg| %total
---------------------------------------------------------------
Pair    | 84.073     | 84.922     | 85.429     |   4.6 | 82.89
Bond    | 0.00074949 | 0.00087509 | 0.00097452 |   0.0 |  0.00
Neigh   | 6.6929     | 6.8852     | 7.0916     |   4.9 |  6.72
Comm    | 1.6628     | 2.1775     | 3.0288     |  29.1 |  2.13
Output  | 0.0042497  | 0.0052198  | 0.0061468  |   1.0 |  0.01
Modify  | 8.2108     | 8.4141     | 8.6059     |   4.4 |  8.21
Other   |            | 0.04624    |            |       |  0.05

Nlocal:         41.375 ave          47 max          32 min
Histogram: 1 0 0 0 3 0 0 0 2 2
Nghost:        3416.25 ave        3496 max        3338 min
Histogram: 1 1 1 0 0 2 0 2 0 1
Neighs:          27495 ave       30929 max       21678 min
Histogram: 1 0 0 0 3 0 0 0 2 2

Total # of neighbors = 219960
Ave neighs/atom = 664.53172
Ave special neighs/atom = 0
Neighbor list builds = 200
Dangerous builds not checked
*****Equilibration neg6 starts.*****
WARNING: New thermo_style command, previous thermo_modify settings will be lost (src/output.cpp:903)
Neighbor list info ...
  update: every = 10 steps, delay = 0 steps, check = no
  max neighbors/atom: 2000, page size: 100000
  master list distance cutoff = 12
  ghost atom cutoff = 12
  binsize = 6, bins = 5 3 3
  2 neighbor lists, perpetual/occasional/extra = 2 0 0
  (1) pair reaxff, perpetual
      attributes: half, newton off, ghost
      pair build: half/bin/newtoff/ghost
      stencil: full/ghost/bin/3d
      bin: standard
  (2) fix qeq/reaxff, perpetual, copy from (1)
      attributes: half, newton off
      pair build: copy
      stencil: none
      bin: none
Setting up Verlet run ...
  Unit style    : real
  Current step  : 0
  Time step     : 0.5
Per MPI rank memory allocation (min/avg/max) = 130.1 | 131.8 | 133.5 Mbytes
   Step          Temp          PotEng         Press        f_avgp[1]        Volume    
         0   277.77778     -36710          12552.204      0              3489.9891    
       100   303.63636     -36713.624     -2943.8721     -1972.8924      3489.9891    
       200   299.33124     -36691.143      4759.3477      238.40921      3489.9891    
       300   293.46107     -36684.987     -8704.928      -3633.7079      3489.9891    
       400   309.42419     -36696.371     -5946.3276     -2680.1457      3489.9891    
       500   295.0146      -36687.795     -1674.7796      835.15462      3489.9891    
       600   289.38203     -36708.625     -9567.4444     -3453.1116      3489.9891    
       700   296.25167     -36727.226     -11605.221     -4787.1442      3489.9891    
       800   299.16297     -36710.171     -3757.2612     -3297.6135      3489.9891    
       900   292.82967     -36681.362     -14560.117     -3378.2368      3489.9891    
      1000   296.64364     -36686.893     -4944.8794      2432.3535      3489.9891    
      1100   302.41665     -36699.063     -7964.423      -8010.343       3489.9891    
      1200   303.64021     -36708.535      1542.256       1601.9922      3489.9891    
      1300   287.04223     -36714.096      2723.4054     -1807.0326      3489.9891    
      1400   275.12982     -36726.905     -5517.5353     -3258.3678      3489.9891    
      1500   296.62211     -36733.111     -1707.9618     -3186.7221      3489.9891    
      1600   300.56036     -36716.508      4242.7947     -2225.2806      3489.9891    
      1700   291.02424     -36700.375     -8210.4318      981.19161      3489.9891    
      1800   312.57604     -36716.622     -14024.995     -3758.2048      3489.9891    
      1900   298.89246     -36692.379     -2260.7254      3473.2507      3489.9891    
      2000   310.06306     -36686.135     -1883.7062     -1257.7278      3489.9891    
Loop time of 102.378 on 8 procs for 2000 steps with 331 atoms

Performance: 0.844 ns/day, 28.438 hours/ns, 19.535 timesteps/s, 6.466 katom-step/s
98.9% CPU use with 8 MPI tasks x 1 OpenMP threads

MPI task timing breakdown:
Section |  min time  |  avg time  |  max time  |%varavg| %total
---------------------------------------------------------------
Pair    | 61.795     | 81.603     | 85.544     |  83.2 | 79.71
Bond    | 0.00077008 | 0.00086085 | 0.00096086 |   0.0 |  0.00
Neigh   | 5.2144     | 6.6459     | 7.0681     |  21.6 |  6.49
Comm    | 1.4702     | 5.4207     | 25.226     | 322.7 |  5.29
Output  | 0.00091496 | 0.0010387  | 0.0016841  |   0.8 |  0.00
Modify  | 8.2485     | 8.6632     | 10.102     |  19.0 |  8.46
Other   |            | 0.04295    |            |       |  0.04

Nlocal:         41.375 ave          50 max          32 min
Histogram: 1 0 0 0 1 4 1 0 0 1
Nghost:        3429.12 ave        3480 max        3386 min
Histogram: 3 0 0 1 0 1 0 2 0 1
Neighs:        27465.2 ave       32916 max       21529 min
Histogram: 1 0 0 0 2 3 1 0 0 1

Total # of neighbors = 219722
Ave neighs/atom = 663.81269
Ave special neighs/atom = 0
Neighbor list builds = 200
Dangerous builds not checked
OMP_NUM_THREADS environment is not set. Defaulting to 1 thread. (src/comm.cpp:98)
  using 1 OpenMP thread(s) per MPI task
Reading restart file ...
  restart file = 2 Aug 2023, LAMMPS = 2 Aug 2023
  restoring atom style full from restart
  triclinic box = (0.15795377 0.085803784 -0.0151998) to (15.550746 13.000996 17.54) with tilt (-8.684696 1.4418447 -2.3940357)
WARNING: Triclinic box skew is large. LAMMPS will run inefficiently. (src/domain.cpp:220)
  2 by 2 by 2 MPI processor grid
  pair style reaxff stores no restart info
  331 atoms
Finding 1-2 1-3 1-4 neighbors ...
  special bond factors lj:    0        0        0       
  special bond factors coul:  0        0        0       
     0 = max # of 1-2 neighbors
     0 = max # of 1-3 neighbors
     0 = max # of 1-4 neighbors
     1 = max # of special neighbors
  special bonds CPU = 0.000 seconds
  read_restart CPU = 0.003 seconds
*****Positive-change 6 starts.*****
Resetting global fix info from restart file:
  fix style: nvt, fix ID: 4
Changing box ...
WARNING: Triclinic box skew is large. LAMMPS will run inefficiently. (src/domain.cpp:220)
  triclinic box = (0.15795377 0.085803784 -0.0151998) to (15.550746 13.000996 17.54) with tilt (-8.5555441 1.4418447 -2.3940357)
All restart file global fix info was re-assigned
Neighbor list info ...
  update: every = 10 steps, delay = 0 steps, check = no
  max neighbors/atom: 2000, page size: 100000
  master list distance cutoff = 12
  ghost atom cutoff = 12
  binsize = 6, bins = 5 3 3
  2 neighbor lists, perpetual/occasional/extra = 2 0 0
  (1) pair reaxff, perpetual
      attributes: half, newton off, ghost
      pair build: half/bin/newtoff/ghost
      stencil: full/ghost/bin/3d
      bin: standard
  (2) fix qeq/reaxff, perpetual, copy from (1)
      attributes: half, newton off
      pair build: copy
      stencil: none
      bin: none
Setting up Verlet run ...
  Unit style    : real
  Current step  : 0
  Time step     : 0.5
Per MPI rank memory allocation (min/avg/max) = 129.6 | 130.9 | 132.3 Mbytes
   Step          Temp          PotEng         Press        f_avgp[1]        Volume    
         0   289.30794     -36701.713      8365.8398      0              3489.9891    
       100   291.91528     -36715.704      5668.4862     -2592.0302      3489.9891    
       200   284.41838     -36699.139     -2447.1299     -2773.0679      3489.9891    
       300   310.75391     -36695.449      9534.1289     -231.0575       3489.9891    
       400   302.97693     -36683.725     -5804.6822     -4425.3955      3489.9891    
       500   314.26991     -36696.319     -8170.8304     -820.49185      3489.9891    
       600   300.92106     -36713.524     -943.75431     -1405.3499      3489.9891    
       700   278.18994     -36713.985     -7332.5271     -1625.1512      3489.9891    
       800   293.3141      -36712.218     -9266.2657     -1542.4601      3489.9891    
       900   306.41632     -36703.626     -4778.919       1464.3131      3489.9891    
      1000   303.31765     -36685.473     -1486.4834      2945.6686      3489.9891    
      1100   296.99989     -36685.268      2672.7131     -2838.3935      3489.9891    
      1200   297.4209      -36699.301      4992.5919     -4463.4814      3489.9891    
      1300   271.08817     -36714.554      9064.9794     -3011.4717      3489.9891    
      1400   295.83085     -36732.238      9513.8904     -1660.6428      3489.9891    
      1500   296.68001     -36707.164      5878.434       1627.4807      3489.9891    
      1600   307.75615     -36699.776     -3464.6324     -1791.7949      3489.9891    
      1700   304.40146     -36690.648     -2575.5054      3889.6036      3489.9891    
      1800   295.85459     -36698.177     -1635.195      -1516.9553      3489.9891    
      1900   275.98562     -36708.623     -3204.847      -4414.8015      3489.9891    
      2000   287.65039     -36714.491     -7457.4122     -2728.4753      3489.9891    
Loop time of 100.188 on 8 procs for 2000 steps with 331 atoms

Performance: 0.862 ns/day, 27.830 hours/ns, 19.962 timesteps/s, 6.608 katom-step/s
98.8% CPU use with 8 MPI tasks x 1 OpenMP threads

MPI task timing breakdown:
Section |  min time  |  avg time  |  max time  |%varavg| %total
---------------------------------------------------------------
Pair    | 63.367     | 79.394     | 83.446     |  72.2 | 79.25
Bond    | 0.00075357 | 0.00082795 | 0.00096631 |   0.0 |  0.00
Neigh   | 5.3174     | 6.4956     | 6.9397     |  19.3 |  6.48
Comm    | 1.5303     | 5.5802     | 21.606     | 272.3 |  5.57
Output  | 0.0040552  | 0.0053147  | 0.0063735  |   1.3 |  0.01
Modify  | 8.2314     | 8.6706     | 9.8533     |  16.8 |  8.65
Other   |            | 0.04137    |            |       |  0.04

Nlocal:         41.375 ave          47 max          36 min
Histogram: 2 1 0 1 0 0 1 1 0 2
Nghost:        3381.12 ave        3415 max        3339 min
Histogram: 1 1 1 0 0 0 1 2 0 2
Neighs:        27506.6 ave       31155 max       24136 min
Histogram: 2 1 0 1 0 0 1 1 1 1

Total # of neighbors = 220053
Ave neighs/atom = 664.81269
Ave special neighs/atom = 0
Neighbor list builds = 200
Dangerous builds not checked
*****Equilibration pos6 starts.*****
WARNING: New thermo_style command, previous thermo_modify settings will be lost (src/output.cpp:903)
Neighbor list info ...
  update: every = 10 steps, delay = 0 steps, check = no
  max neighbors/atom: 2000, page size: 100000
  master list distance cutoff = 12
  ghost atom cutoff = 12
  binsize = 6, bins = 5 3 3
  2 neighbor lists, perpetual/occasional/extra = 2 0 0
  (1) pair reaxff, perpetual
      attributes: half, newton off, ghost
      pair build: half/bin/newtoff/ghost
      stencil: full/ghost/bin/3d
      bin: standard
  (2) fix qeq/reaxff, perpetual, copy from (1)
      attributes: half, newton off
      pair build: copy
      stencil: none
      bin: none
Setting up Verlet run ...
  Unit style    : real
  Current step  : 0
  Time step     : 0.5
Per MPI rank memory allocation (min/avg/max) = 129.6 | 130.9 | 132.3 Mbytes
   Step          Temp          PotEng         Press        f_avgp[1]        Volume    
         0   287.65039     -36714.491     -7457.4432      0              3489.9891    
       100   292.21723     -36709.669     -6480.9464     -7846.0203      3489.9891    
       200   323.05825     -36710.866     -7018.211      -4254.4684      3489.9891    
       300   307.70787     -36677.735      15043.278     -568.90297      3489.9891    
       400   318.23284     -36694.116     -11053.979     -3630.6843      3489.9891    
       500   294.77607     -36684.154      450.54467     -5921.176       3489.9891    
       600   299.36282     -36703.623     -3147.6439     -4011.9432      3489.9891    
       700   304.29797     -36720.636     -4840.8405     -2251.8538      3489.9891    
       800   284.15451     -36699.885     -11438.252     -4989.3294      3489.9891    
       900   306.56322     -36696.215      2820.2717     -1918.4444      3489.9891    
      1000   314.13934     -36682.968      6150.9682     -1941.5151      3489.9891    
      1100   312.21405     -36688.532      10586.053     -6603.4886      3489.9891    
      1200   305.26206     -36712.423      1983.3963     -5791.2033      3489.9891    
      1300   304.58407     -36720.694     -783.14021     -3811.5663      3489.9891    
      1400   289.17063     -36693.527     -3327.817      -3739.4198      3489.9891    
      1500   316.34918     -36702.95      -1665.8951      884.64711      3489.9891    
      1600   307.58294     -36694.431     -224.4738      -3795.6237      3489.9891    
      1700   312.89897     -36708.86      -5512.4495     -9563.6751      3489.9891    
      1800   279.29948     -36720.16       10507.013     -4857.1223      3489.9891    
      1900   274.08227     -36721.413      4038.8826     -2923.6437      3489.9891    
      2000   305.78942     -36728.272     -191.8304      -2891.281       3489.9891    
Loop time of 92.9411 on 8 procs for 2000 steps with 331 atoms

Performance: 0.930 ns/day, 25.817 hours/ns, 21.519 timesteps/s, 7.123 katom-step/s
98.8% CPU use with 8 MPI tasks x 1 OpenMP threads

MPI task timing breakdown:
Section |  min time  |  avg time  |  max time  |%varavg| %total
---------------------------------------------------------------
Pair    | 53.477     | 68.318     | 75.916     | 104.0 | 73.51
Bond    | 0.00065055 | 0.00074964 | 0.001019   |   0.0 |  0.00
Neigh   | 4.7485     | 6.0558     | 6.974      |  30.7 |  6.52
Comm    | 2.155      | 9.7551     | 24.597     | 275.2 | 10.50
Output  | 0.00080463 | 0.00088517 | 0.0012745  |   0.0 |  0.00
Modify  | 7.8541     | 8.7726     | 10.082     |  25.6 |  9.44
Other   |            | 0.03815    |            |       |  0.04

Nlocal:         41.375 ave          48 max          32 min
Histogram: 1 0 0 1 1 2 0 0 0 3
Nghost:           3403 ave        3431 max        3379 min
Histogram: 1 2 0 1 0 1 0 2 0 1
Neighs:        27489.9 ave       31640 max       21519 min
Histogram: 1 0 0 1 1 2 0 0 0 3

Total # of neighbors = 219919
Ave neighs/atom = 664.40785
Ave special neighs/atom = 0
Neighbor list builds = 200
Dangerous builds not checked
Total wall time: 0:42:31
