ITEM: TIMESTEP
0
ITEM: NUMBER OF ATOMS
386
ITEM: BOX BOUNDS xy xz yz pp pp pp
-7.6535000000000002e+00 1.6722200000000001e+01 -7.3464000000000000e+00
-1.7999999999999999e-02 1.3589000000000000e+01 -3.0709999999999998e-01
0.0000000000000000e+00 1.7316099999999999e+01 -1.7999999999999999e-02
ITEM: ATOMS id type q x y z
108 2 0.153178 -3.18231 5.94735 5.18468
2 2 -0.0603347 -0.156253 2.04241 1.9455
234 3 -0.787881 0.571721 6.02156 5.74231
4 2 0.105146 -0.191578 3.25435 4.16128
5 2 0.142521 0.0068152 1.64181 5.47077
6 1 -0.649036 -0.812503 2.50101 4.86796
10 4 0.695354 -0.294549 2.95024 8.11072
246 3 -0.836236 2.32164 6.49171 1.0686
12 2 -0.00660806 0.179808 3.17942 6.45518
34 4 0.992914 4.3572 0.956569 3.47078
36 4 0.80956 4.02452 1.98463 8.25154
326 2 0.131493 -0.558407 4.61781 2.12396
109 2 0.147278 -1.7857 5.18177 3.99688
41 4 1.21204 1.96871 6.09338 4.67041
21 3 -0.790113 0.17744 0.0122665 3.91941
327 1 -0.68838 -0.161972 4.87918 1.0772
87 2 0.016894 2.70927 0.972224 7.57537
7 4 0.815147 0.387413 2.96308 0.512024
90 2 0.00634342 3.68702 2.55795 3.31088
118 2 0.129368 4.49102 0.988697 1.21955
197 1 -0.652774 7.61792 0.375789 6.29653
238 3 -0.862203 3.51236 6.17235 5.32775
133 2 0.236996 3.31524 4.84086 7.20035
322 2 0.143763 3.15229 2.78484 1.12974
235 3 -0.809792 4.5164 5.03798 0.0723624
126 2 0.154242 5.78312 3.03301 2.74767
127 2 0.149596 4.06305 3.38494 1.98362
128 2 0.165231 4.82342 4.29973 3.53788
129 2 0.163118 1.1655 4.75084 2.55702
130 2 0.123881 1.57351 3.86343 4.36517
131 2 0.161785 3.19076 4.40351 3.15269
132 2 0.108319 1.95751 3.9654 8.19656
134 2 0.248343 1.51908 5.36633 7.03334
37 4 1.05619 7.09093 1.72265 5.08231
324 2 0.166967 -0.951963 5.18148 0.410962
362 2 0.15481 6.0124 1.43764 0.36883
120 2 0.180485 4.84072 0.00431271 6.96253
199 1 -0.706727 5.00317 3.79867 2.5539
200 1 -0.652075 2.006 4.63632 3.53021
201 1 -0.716498 2.2986 4.90288 7.70527
231 3 -0.779714 5.7703 1.18667 4.45166
325 2 0.238967 0.835468 5.55034 1.08821
236 3 -0.838887 4.78922 2.99675 7.3069
376 2 0.118333 -3.07079 6.53198 1.61753
192 1 -0.66106 -2.19979 6.1103 4.57006
320 2 0.186427 2.18353 1.15633 1.33181
321 2 0.143758 1.7948 2.42969 2.54742
323 1 -0.687189 2.13911 2.24766 1.49343
11 2 -0.0272202 0.912806 1.79392 8.59608
195 1 -0.664134 5.10321 0.301458 1.89124
14 2 0.172023 -0.450284 5.24702 8.22181
360 2 0.144753 7.38671 0.33975 1.02365
122 2 0.163076 7.42692 0.659277 7.4087
117 2 0.153408 6.2687 0.419795 1.7963
3 2 0.158755 -1.40262 3.01186 5.70272
43 4 1.46752 6.08237 3.84777 6.89548
378 2 0.184191 -2.54334 5.18974 0.266979
160 2 0.174146 5.09505 0.916055 14.9017
91 2 0.0138665 0.752151 5.88693 9.32822
9 3 -0.749463 -0.554941 2.26235 16.538
13 2 0.158208 -1.54538 4.63145 9.82588
156 2 0.237025 2.53094 6.31045 13.7941
15 2 0.103907 0.428756 4.29191 9.78248
16 1 -0.625902 -0.58321 4.47725 9.13227
26 4 0.966628 -1.7944 4.67352 14.2463
23 4 1.1495 1.3423 0.265611 14.3571
47 4 1.22631 0.586826 6.40379 15.4515
42 4 1.16048 3.06492 6.05275 17.0128
85 2 -0.00996554 -2.01735 4.74824 12.556
119 2 0.0941938 5.25242 0.325665 8.99016
375 2 0.147833 -1.49741 3.84749 11.051
123 2 0.161106 4.07252 1.4089 10.7308
124 2 0.131682 2.85941 2.85489 10.0076
125 2 0.193985 4.71732 3.1576 10.4446
232 3 -0.860414 7.30965 0.723813 11.3477
135 2 0.18919 5.88426 1.69499 13.2409
136 2 0.181536 4.53457 2.96852 13.5484
137 2 0.181041 5.75236 2.36009 15.003
44 4 1.087 2.41339 6.18806 9.08601
368 2 0.171487 3.73508 0.5149 12.3827
198 1 -0.677422 3.96235 2.38361 10.1023
202 1 -0.670502 5.54328 2.58818 13.8752
346 2 0.140496 1.55926 0.436872 9.44274
241 3 -0.836522 -0.609304 5.6468 14.7275
242 3 -0.782464 1.92047 5.61203 15.5643
243 3 -0.775509 3.35183 5.72886 10.2672
364 2 0.196859 5.46718 2.99946 16.696
334 2 0.167426 0.489684 1.14177 12.1394
335 2 0.223253 -0.358443 1.93866 13.6251
336 1 -0.65411 -0.110806 1.04557 13.0576
337 2 0.166601 2.42613 2.49936 13.8935
338 2 0.171068 3.29951 1.37751 15.1711
339 2 0.211773 1.77025 2.39604 15.6361
340 1 -0.661678 2.28042 1.83712 14.8154
363 2 0.16382 6.68192 1.60565 16.0915
92 2 0.0188954 -0.151112 6.30305 17.0238
365 1 -0.691453 6.19518 2.13076 16.995
244 3 -0.812174 5.40478 4.82905 12.1528
347 2 0.192683 -0.354777 0.442142 9.512
223 3 -0.852234 -1.9187 3.20999 14.7125
8 2 0.0554267 1.71378 3.3848 17.2863
17 4 0.984088 -5.46569 12.678 4.4166
342 2 0.145668 -2.09037 9.59701 2.0282
20 1 -0.672478 -5.57137 10.9489 3.44398
349 2 0.16379 -4.53699 13.4969 0.401223
105 2 0.091465 4.33086 7.06037 2.79569
367 2 0.192988 -0.325608 12.9739 5.9861
366 2 0.14983 -3.43414 12.4968 8.07595
28 4 1.19664 -2.46431 8.37212 8.05146
49 4 1.20488 2.81797 7.56366 2.22532
50 4 1.1327 0.0620473 11.0194 4.30002
83 2 0.0158124 -0.553462 8.42626 4.82776
19 2 0.152355 -4.65563 10.7763 2.79242
111 2 0.168285 -4.83616 9.04809 7.16815
112 2 0.142555 -3.1866 9.11029 5.92581
113 2 0.165196 -3.49142 10.4787 7.17609
138 2 0.176808 -0.360597 9.9652 2.20128
139 2 0.128339 -1.42163 8.96951 3.27037
140 2 0.25176 0.477994 8.70244 3.32585
141 2 0.177825 -1.6828 11.2706 6.23885
142 2 0.136802 -2.15871 10.6665 4.51759
143 2 0.23005 -1.81813 12.5519 4.92093
144 2 0.165169 0.0493728 11.5685 7.28628
102 2 0.0967198 -3.18875 8.71261 0.407914
146 2 0.171159 -1.2813 12.598 8.15225
158 2 0.158009 0.846922 11.1838 0.498006
193 1 -0.669606 -3.62119 9.36911 6.9517
203 1 -0.6905 -0.422363 9.43896 3.14492
204 1 -0.676042 -1.55508 11.4804 5.17103
205 1 -0.676807 -0.275234 12.0431 8.29877
225 3 -0.777401 -1.81456 7.21144 7.01518
329 2 0.171099 -6.58964 12.8471 6.65214
245 3 -0.791602 1.86748 7.47403 3.61084
110 2 0.105348 -2.28714 7.07062 3.81115
247 3 -0.785173 0.581571 12.1616 3.35298
248 3 -0.840541 3.03817 8.98024 1.55027
253 3 -0.805479 1.186 10.7064 5.48196
93 2 -0.0122301 1.64358 11.6053 7.98438
330 2 0.160276 -5.47933 11.184 6.13143
331 1 -0.629367 -5.53525 12.4584 6.21714
332 2 0.180965 -4.53321 12.8543 6.82429
25 4 0.96845 -0.933681 6.89156 5.62247
343 2 0.129683 -4.07381 9.75555 1.89678
344 1 -0.664937 -3.14942 9.7107 1.25046
22 3 -0.759407 -4.08683 13.502 4.0133
350 2 0.147045 -4.60829 11.8828 1.29206
351 2 0.181031 -6.01527 13.0948 1.68341
352 1 -0.688029 -5.21351 12.7256 0.931211
357 2 0.174106 -2.55926 12.8003 1.85543
341 2 0.129646 -3.00515 10.6595 0.695164
196 1 -0.651443 -3.06828 13.574 7.96542
345 2 0.177371 -6.91367 13.2775 7.91546
155 2 0.196483 2.6117 7.21306 12.1182
27 4 0.976573 -4.72344 9.16158 16.5227
30 4 1.22505 -2.93967 9.62055 13.9657
31 4 1.03183 -6.73487 12.052 16.9767
32 4 1.25782 -4.65257 11.9475 12.3316
38 4 1.28706 0.627621 13.3545 12.4409
53 4 1.16754 -0.553098 10.5722 9.5187
55 4 1.3151 1.95216 8.78323 13.8645
56 4 1.05007 -0.971355 12.1958 14.8743
57 4 1.46147 1.68654 10.569 11.4852
175 2 0.151356 -3.69818 7.06071 13.9924
370 2 0.200763 1.46713 10.6657 16.1975
94 2 -0.0130784 0.156521 11.7295 16.103
318 2 -0.0744965 -5.70423 10.6084 16.7279
114 2 0.138784 -2.53039 7.77207 12.4649
115 2 0.163865 -2.13436 7.24942 14.3709
116 2 0.235125 -0.928981 8.43314 13.5019
147 2 0.196694 -1.37005 10.1245 11.6312
148 2 0.200255 -2.77846 11.0108 10.8188
149 2 0.183274 -1.362 12.0264 11.4386
150 2 0.146009 -3.54073 13.1576 10.6751
151 2 0.197584 -2.16784 12.9335 12.1138
159 2 0.20452 -3.3556 12.8396 15.1083
252 3 -0.788483 -1.47529 9.51976 8.72607
161 2 0.129765 -2.13345 13.3653 16.5406
194 1 -0.679215 -2.01142 8.03719 13.5135
206 1 -0.663617 -1.72176 11.0135 11.001
207 1 -0.655225 -3.2705 13.1527 11.8163
209 1 -0.695354 2.89562 7.26829 13.2339
211 1 -0.651357 -2.37255 13.3749 15.3933
380 2 0.217699 3.25802 8.39469 16.6866
224 3 -0.817495 -3.55274 7.68836 9.31461
226 3 -0.812581 -3.98335 9.2401 15.1249
227 3 -0.752023 -6.63674 13.0426 15.7021
228 3 -0.865839 -5.75218 11.9244 11.193
229 3 -0.775557 -3.80983 10.2382 12.6919
230 3 -0.821691 -5.17131 12.8035 13.5571
259 3 -0.822786 1.27425 9.48716 12.6661
317 2 0.055945 -4.27479 9.09256 11.552
255 3 -0.787112 0.845398 7.95893 15.043
256 3 -0.763312 -1.71994 10.8862 14.4611
257 3 -0.833126 -0.175999 12.991 13.743
258 3 -0.805608 0.860454 10.1621 10.0019
250 3 -0.792699 2.76001 7.66121 8.71846
348 1 -0.674098 -6.77708 13.5696 9.10658
260 3 -0.866572 1.37412 12.0661 11.929
145 2 0.152736 0.532079 12.7046 8.69186
210 1 -0.665554 1.0395 10.3527 17.2299
157 2 0.160783 3.99339 7.39409 13.3303
369 2 0.19506 0.368973 9.42973 17.1629
35 4 1.08254 7.85011 3.22848 0.459384
59 4 1.27834 13.8957 0.845824 7.40784
61 4 1.03156 12.62 2.59359 5.2981
354 2 0.143794 9.89533 1.71093 4.37997
67 4 1.29138 11.5145 4.52774 7.24147
86 2 -0.0270221 7.95367 1.90895 1.63246
40 4 1.30092 5.72052 5.16668 1.37872
96 2 0.0447702 11.7213 1.79205 4.06455
97 2 0.0116952 14.0663 3.10048 4.5319
379 1 -0.674517 13.3838 5.94364 0.577376
359 2 0.152858 9.27633 1.01477 1.00786
121 2 0.131963 8.78317 0.45758 5.98203
170 2 0.184012 9.23499 5.56075 3.74489
171 2 0.179354 7.44467 4.68868 3.44051
172 2 0.206809 7.88624 5.26939 5.24569
356 1 -0.698731 10.0181 0.830151 3.69277
214 1 -0.683726 13.2855 4.88528 8.02627
215 1 -0.650459 8.06281 5.44957 4.08732
88 2 -0.00579854 8.31765 1.73081 3.77682
233 3 -0.813987 7.12712 4.60762 1.02229
270 3 -0.80345 10.9188 3.46879 8.37667
167 2 0.180457 13.8379 4.96115 7.01471
263 3 -0.850523 13.015 1.46044 6.2611
267 3 -0.828182 5.78128 6.4461 2.23662
272 3 -0.803912 7.31028 3.82093 8.39876
271 3 -0.850331 11.7931 3.77446 5.78425
361 1 -0.689498 8.48367 0.121841 0.910406
274 3 -0.817588 10.656 5.96393 7.00646
237 3 -0.824866 6.98368 3.18558 5.72573
308 4 1.47423 12.4979 2.31667 0.583017
309 4 1.16797 11.7679 5.30802 1.40461
310 2 0.203432 10.82 4.89367 3.66362
239 3 -0.879142 5.73844 5.32682 6.5521
180 2 0.216002 8.28993 6.07077 6.74986
313 1 -0.681147 11.2276 5.8524 3.34329
314 3 -0.825095 12.2953 1.06464 1.57619
315 3 -0.795619 11.9881 3.80375 1.52328
316 3 -0.782815 10.5719 5.88796 0.507638
311 2 0.16149 10.4601 6.71256 3.1063
386 3 -0.851247 14.3597 0.768592 3.24985
355 2 0.232458 10.7736 0.980818 2.91064
261 3 -0.736876 15.0102 2.13107 8.16673
218 1 -0.665893 7.97595 6.54288 7.70004
168 2 0.197391 13.6375 4.04144 8.6381
45 4 1.51065 4.94766 6.5837 5.97539
312 2 0.143892 12.1345 6.12337 3.95381
1 4 1.02438 15.8821 1.19202 3.42869
169 2 0.24272 13.3235 5.86952 8.57621
306 3 -0.8345 13.9927 2.61219 0.106509
39 4 1.23419 7.81983 2.23573 10.8345
46 4 1.31184 6.5072 4.03815 12.9979
371 2 0.204958 12.2948 1.82555 13.701
60 4 1.27268 10.6179 2.3138 9.45532
63 4 1.33736 10.0469 2.82982 15.8458
64 4 1.0718 12.5885 3.67591 11.1521
68 4 1.38334 7.61761 5.27276 9.07961
70 4 1.3824 10.9716 5.057 13.6075
305 4 1.4349 14.5654 2.16499 15.9259
72 4 1.50579 9.62372 6.52631 11.257
99 2 0.0360028 12.5688 4.95437 9.88105
166 2 0.199944 14.5577 2.90595 12.5418
162 2 0.182288 10.065 0.868971 14.5323
163 2 0.220331 8.90275 2.19392 13.7694
164 2 0.187966 8.34812 1.11573 15.2598
165 2 0.187604 14.3028 2.14325 10.8456
377 2 0.172366 12.8073 6.6397 17.1157
374 2 0.180163 11.1816 0.430392 12.8453
333 2 0.277862 15.7501 0.271609 13.0146
307 3 -0.758326 14.0271 0.758657 15.3238
98 2 0.0213295 9.41771 0.609226 12.8916
185 2 0.167388 12.3005 0.339562 9.57122
212 1 -0.686365 9.12945 1.53666 14.6196
213 1 -0.690591 14.3999 3.1361 11.4535
48 4 1.26426 5.07226 5.98969 10.8636
89 2 0.0753873 6.76349 2.81145 9.58648
240 3 -0.804628 7.67068 3.23057 12.161
372 2 0.195831 12.9401 0.830564 12.0749
262 3 -0.851537 9.29047 2.15312 10.2115
264 3 -0.823125 11.1579 1.97494 16.5832
265 3 -0.779891 8.73178 3.21995 16.7623
266 3 -0.815893 11.8358 2.46708 10.5603
273 3 -0.826017 6.24866 5.84169 9.76264
275 3 -0.797248 10.5942 4.1656 14.8479
276 3 -0.820682 12.0213 4.30786 12.5948
277 3 -0.731303 7.08327 5.06347 14.3523
373 1 -0.640825 12.1977 0.86952 13.0487
71 4 1.32388 7.189 6.55083 14.9655
280 3 -0.782079 8.86326 5.43629 10.1457
281 3 -0.79714 9.79351 5.77952 12.7635
173 2 0.195269 11.8966 6.27053 15.4516
278 3 -0.797053 8.51178 6.65152 15.867
216 1 -0.63425 11.8629 6.61952 14.3158
103 2 -0.000718047 5.76774 6.73233 15.9364
84 2 -0.0144687 13.4711 5.50612 14.6664
95 2 -0.017665 11.0082 0.829999 8.68658
33 4 1.08268 1.81291 12.9612 2.50213
295 3 -0.842068 7.54527 13.3056 6.86394
65 4 1.30757 6.96919 6.96402 3.72664
100 2 0.00456518 10.2804 6.96704 4.71185
182 2 0.231043 6.92012 8.58862 8.22953
385 2 0.182701 4.6282 13.2175 7.76095
69 4 0.972837 10.7686 7.27018 6.29949
73 4 1.28834 8.4935 8.84251 1.94737
74 4 1.33347 4.93521 11.6587 4.79582
75 4 1.31072 7.40132 11.3077 0.79533
76 4 1.25761 9.06195 9.8149 7.67515
78 4 1.27188 7.72909 11.9963 5.94707
289 3 -0.803769 9.98308 8.47739 6.95162
58 4 1.56528 5.90786 13.5222 2.46858
18 2 0.145768 10.9 10.0819 4.08022
104 2 -0.00873304 9.83529 9.73198 2.67702
268 3 -0.835596 6.0148 7.3541 4.8824
107 2 0.0964258 8.72113 12.4065 4.5536
176 2 0.239983 4.82722 9.15755 4.47102
177 2 0.225308 5.04169 10.1481 2.90638
178 2 0.236449 3.35895 10.0662 3.63253
179 2 0.252941 7.02004 7.11312 7.61408
52 4 1.48796 3.92626 8.68475 7.98686
288 3 -0.853522 6.64363 12.4738 1.49452
217 1 -0.667467 4.48571 10.0905 3.86698
293 3 -0.841622 6.2849 11.422 5.49522
294 3 -0.842001 8.69433 10.8391 6.55379
249 3 -0.772004 2.78284 11.7193 1.90344
251 3 -0.811479 4.98311 7.6976 7.27496
51 4 1.32557 2.99162 10.4914 0.862289
282 3 -0.848698 8.08657 7.93612 3.14569
283 3 -0.85232 9.09751 8.04761 0.752412
284 3 -0.832867 5.04154 12.802 3.61994
285 3 -0.785439 3.5081 11.9337 6.09775
286 3 -0.860373 8.87418 11.6902 0.306049
287 3 -0.856118 7.32567 9.89428 1.4741
220 1 -0.68617 5.37922 13.4087 8.6432
353 2 0.201367 2.86942 13.4572 4.4112
54 4 1.25833 2.34796 10.9591 6.54473
181 2 0.234172 8.83935 7.20298 8.12029
254 3 -0.815831 3.16272 9.6721 6.83892
328 2 0.138921 10.2051 11.4593 2.79968
101 2 -0.0304357 12.358 7.75809 5.90449
24 4 0.999616 12 8.1454 10.1992
29 4 1.32026 9.8735 11.9517 10.1217
62 4 1.25594 5.79207 13.2516 14.1059
184 2 0.242452 8.03681 8.67993 9.771
77 4 1.2913 4.56754 10.7572 10.1602
79 4 1.32401 8.10647 8.60011 12.8785
80 4 1.29118 4.09982 10.822 15.2332
81 4 1.55719 7.16514 11.49 11.7214
82 2 0.0803384 11.1762 9.41979 9.41866
279 3 -0.866607 11.0328 7.04731 10.6402
106 2 -0.0140629 3.95458 12.1051 9.25817
152 2 0.236178 6.02334 8.26082 10.7838
153 2 0.208456 5.68608 7.60547 12.5443
154 2 0.214243 4.24888 8.2106 11.4141
290 3 -0.770871 10.0637 10.5571 8.94674
382 1 -0.699081 4.07115 7.63074 16.4576
183 2 0.210441 7.20458 10.2627 9.02861
186 2 0.187124 9.62577 10.2193 13.8925
187 2 0.171366 10.6027 8.77005 13.0896
188 2 0.214143 9.8356 8.61131 14.7806
189 2 0.186634 5.4541 9.0792 14.3497
190 2 0.158373 5.84319 9.35507 16.1413
191 2 0.201175 6.65907 10.4763 14.8787
208 1 -0.686795 5.2878 7.70386 11.4784
221 1 -0.697968 9.779 9.11636 13.8203
222 1 -0.670223 5.74571 9.89171 15.1468
269 3 -0.858569 10.9199 8.03841 16.6093
291 3 -0.852615 4.76318 9.58728 9.14179
383 2 0.172667 4.98114 7.76733 17.1226
292 3 -0.807615 3.40701 10.4484 11.2151
296 3 -0.879624 7.26727 7.65053 13.8907
297 3 -0.847898 8.67802 7.81673 11.4528
384 2 0.199282 6.0463 12.4817 8.81745
299 3 -0.811149 4.67927 12.2952 14.6651
300 3 -0.786534 3.69789 10.8368 16.945
301 3 -0.833179 8.40219 11.8478 10.7275
302 3 -0.861055 5.85253 11.396 10.8707
303 3 -0.820875 7.40648 10.0584 12.5037
304 3 -0.796672 7.04328 12.6511 12.9067
319 2 0.0392719 6.41991 11.1013 16.5922
381 2 0.158168 4.30245 7.55765 15.3996
66 4 1.54059 9.60624 7.1247 17.0068
174 2 0.205815 11.0162 7.51662 14.1599
219 1 -0.68523 7.67172 9.19812 8.79812
298 3 -0.825812 2.94325 9.9212 14.5142
358 2 0.165276 1.05088 13.129 17.2996
ITEM: TIMESTEP
100
ITEM: NUMBER OF ATOMS
386
ITEM: BOX BOUNDS xy xz yz pp pp pp
-7.6535000000000002e+00 1.6722200000000001e+01 -7.3464000000000000e+00
-1.7999999999999999e-02 1.3589000000000000e+01 -3.0709999999999998e-01
0.0000000000000000e+00 1.7310327966666666e+01 -1.7999999999999999e-02
ITEM: ATOMS id type q x y z
108 2 0.180367 -2.97118 5.42411 4.73679
2 2 -0.049166 -0.1389 2.03719 2.00183
234 3 -0.790898 0.569313 5.95395 5.57694
4 2 0.122914 -0.322038 3.33403 4.10271
5 2 0.136301 -0.0189419 2.08001 5.44144
6 1 -0.690303 -0.813634 2.54605 4.83146
10 4 0.675985 -0.547755 2.95358 8.05111
246 3 -0.816076 2.4234 6.55601 1.12703
12 2 -0.0120143 -0.130644 3.46677 6.50054
34 4 1.01038 4.33937 0.881264 3.53564
36 4 0.803605 4.03428 1.98829 8.27297
326 2 0.153939 -0.602737 5.13602 2.20396
109 2 0.159037 -1.46717 5.44216 3.7433
41 4 1.21637 1.94571 6.07488 4.70547
378 2 0.185995 -2.18331 5.58355 1.20814
327 1 -0.69884 -0.194742 5.034 1.20187
87 2 0.0267841 2.7887 0.805485 7.52289
7 4 0.770611 0.417979 3.03341 0.586873
90 2 0.00890503 3.6924 2.43163 3.39699
118 2 0.129128 4.36405 1.22558 1.26767
197 1 -0.663444 7.79713 0.426659 6.32417
238 3 -0.786593 3.35303 6.31836 5.47588
133 2 0.230363 3.3482 4.86969 7.46802
322 2 0.147833 3.0104 2.59681 1.28662
235 3 -0.808943 4.5526 5.07559 0.120257
126 2 0.144923 5.76477 3.0905 2.85463
127 2 0.146788 3.96563 3.31517 2.0676
128 2 0.153299 4.63325 4.65829 3.34515
129 2 0.166161 1.05282 4.67798 2.71611
130 2 0.147699 1.64868 3.75473 4.3812
131 2 0.16194 2.97083 4.32046 3.22016
132 2 0.11456 2.01109 4.03746 8.49537
134 2 0.22563 1.47794 5.06763 7.08636
37 4 1.03342 7.15317 1.64361 5.03894
324 2 0.145329 -0.939542 5.19312 0.374846
362 2 0.149514 5.88512 1.597 0.524662
8 2 0.0610639 2.07847 3.68288 0.288057
199 1 -0.687639 4.89198 3.80087 2.58064
200 1 -0.678212 1.88475 4.53423 3.62444
201 1 -0.690359 2.272 4.91128 7.89524
231 3 -0.76495 5.7552 0.95133 4.48369
325 2 0.228925 0.861036 5.6082 1.11932
236 3 -0.827801 4.82624 2.93449 7.3285
22 3 -0.757835 3.079 0.0182426 4.01234
192 1 -0.680256 -2.09611 6.05393 4.42678
320 2 0.179989 1.93992 1.06674 1.1357
321 2 0.141867 1.72486 2.36586 2.60553
323 1 -0.684414 1.97529 2.20762 1.49067
11 2 -0.0375887 0.745204 1.75781 8.29048
195 1 -0.663448 4.89499 0.338246 1.85726
14 2 0.18198 -0.33096 5.28802 8.44886
360 2 0.136786 7.25211 0.632992 1.30072
122 2 0.164637 7.66532 0.756558 7.41799
117 2 0.172826 6.03519 0.188373 1.6944
3 2 0.148486 -1.48323 3.10142 5.49932
43 4 1.45904 6.08751 3.80026 6.90883
379 1 -0.678236 -3.20126 6.04906 1.04554
120 2 0.209418 4.96237 0.192646 6.76402
160 2 0.174192 5.13403 0.948826 14.8555
91 2 0.0140011 0.818406 5.83696 9.60368
9 3 -0.765619 -0.430254 2.1946 16.5002
13 2 0.156053 -1.40752 4.59755 9.88886
156 2 0.237484 2.60032 6.45902 13.9175
15 2 0.10044 0.537131 4.01476 9.72451
16 1 -0.646151 -0.498984 4.43062 9.18058
26 4 0.96485 -1.76212 4.83022 14.2389
23 4 1.09887 1.25866 0.327963 14.504
47 4 1.15812 0.519102 6.36283 15.5439
42 4 1.1967 3.08632 6.14836 16.8859
85 2 -0.00446424 -1.77623 4.71102 12.5336
119 2 0.0802943 5.24485 0.352615 8.81676
375 2 0.13533 -1.48467 3.87778 11.0611
123 2 0.164671 4.25309 1.45541 10.7748
124 2 0.128591 3.04771 2.85055 10.0783
125 2 0.198045 4.99314 3.17834 10.2432
232 3 -0.856283 7.36504 0.720944 11.3959
135 2 0.185374 5.72182 1.71098 13.3075
136 2 0.177295 4.35153 3.01909 13.6569
137 2 0.176176 5.68688 2.55731 14.9716
44 4 1.08985 2.40715 6.25886 9.21969
368 2 0.162775 3.92728 0.538747 12.4807
198 1 -0.675616 4.154 2.40832 10.0956
202 1 -0.669171 5.44354 2.68956 13.8506
346 2 0.140398 1.39063 0.461238 9.85618
241 3 -0.838829 -0.405459 5.56876 14.5696
242 3 -0.770894 2.15565 5.54046 15.7451
243 3 -0.823886 3.50489 5.82719 10.2849
364 2 0.200466 5.24464 2.92715 16.5675
334 2 0.165325 0.16128 0.860201 12.3163
335 2 0.174863 -0.388696 1.72041 13.8248
336 1 -0.660903 -0.190682 0.70814 13.3597
337 2 0.164075 2.34906 2.56609 14.0606
338 2 0.180794 3.20866 1.39381 15.2597
339 2 0.227662 1.80606 2.45806 15.7929
340 1 -0.669468 2.24022 1.89567 14.9743
363 2 0.144099 6.6326 1.58038 16.2088
92 2 -0.00569683 -0.24734 6.36337 17.1174
365 1 -0.683506 6.05861 2.23896 17.0198
244 3 -0.823526 5.34415 5.01703 12.1869
89 2 0.0861159 6.72637 2.44572 9.49283
223 3 -0.845569 -2.13549 3.48766 14.9566
84 2 -0.0106998 -3.13416 5.84631 14.5652
377 2 0.144825 -3.58137 6.31452 17.2806
17 4 0.977547 -5.61903 12.6569 4.39823
342 2 0.154022 -2.22138 9.44757 2.07464
20 1 -0.682942 -5.53857 10.9063 3.48618
345 2 0.16536 -6.33062 13.4919 8.02036
376 2 0.129016 -3.3605 6.94619 1.74398
367 2 0.193739 -0.202302 13.0453 6.08964
366 2 0.161727 -3.19161 12.4704 7.76566
28 4 1.20227 -2.46435 8.37861 8.04417
49 4 1.23647 2.80244 7.67383 2.25271
50 4 1.05589 -0.0405755 10.9319 4.30446
83 2 0.0231794 -0.604225 8.39304 4.9039
19 2 0.14914 -4.50493 10.4896 3.20078
111 2 0.168949 -4.72584 9.14414 6.9693
112 2 0.13449 -3.24419 8.8174 5.79355
113 2 0.163176 -3.25614 10.3881 7.02629
138 2 0.163622 -0.354398 9.92369 2.18426
139 2 0.118918 -1.56062 8.80419 3.25829
140 2 0.257444 0.405914 8.56194 3.23011
141 2 0.174773 -1.25195 11.5988 6.50716
142 2 0.133802 -2.13706 10.5351 5.03801
143 2 0.24504 -1.78941 12.4954 4.90315
144 2 0.15517 0.186797 11.5178 7.29603
102 2 0.110633 -3.48413 8.60984 0.831589
146 2 0.156358 -1.27652 12.5974 8.05234
158 2 0.152183 0.422562 10.866 0.273714
193 1 -0.682818 -3.59364 9.27129 6.80042
203 1 -0.673683 -0.525024 9.39211 3.17682
204 1 -0.661941 -1.48221 11.5456 5.35714
205 1 -0.663647 -0.221325 11.9624 8.2744
225 3 -0.757096 -1.67304 7.22885 7.12151
329 2 0.175752 -6.55132 12.9035 6.75506
245 3 -0.788813 1.80337 7.5598 3.48932
110 2 0.116244 -2.42209 7.07097 3.94461
247 3 -0.765848 0.380131 12.3164 3.26034
248 3 -0.858389 2.93271 9.07518 1.54748
253 3 -0.790814 1.18975 10.6221 5.43694
93 2 -0.00665552 1.67052 11.7596 7.89078
330 2 0.158126 -5.52462 11.2294 6.17041
331 1 -0.651282 -5.6135 12.4732 6.20984
332 2 0.190917 -4.61057 12.8581 6.74063
25 4 0.975553 -0.894101 6.83883 5.6419
343 2 0.127586 -4.18114 10.086 1.8706
344 1 -0.679008 -3.23952 9.63956 1.30418
21 3 -0.797529 -7.27215 13.5404 3.78142
350 2 0.170751 -4.55315 11.9247 1.63397
351 2 0.186269 -5.95469 13.1756 1.71805
352 1 -0.695937 -5.17322 12.607 1.03747
357 2 0.18242 -3.04032 12.938 1.8268
341 2 0.147984 -2.90809 10.3803 0.509524
349 2 0.169905 -4.58403 13.3349 0.368531
252 3 -0.81185 -1.37123 9.41172 8.65745
250 3 -0.776335 2.57368 7.67669 8.59439
196 1 -0.640173 -2.99092 13.5453 7.67935
155 2 0.182867 2.4667 7.2468 12.1799
27 4 0.975048 -4.73379 9.04635 16.6186
30 4 1.29477 -3.01733 9.79221 13.9465
31 4 1.05103 -6.74577 12.0527 17.0504
32 4 1.21249 -4.44043 12.0411 12.3335
38 4 1.2289 0.793162 13.2669 12.4023
53 4 1.20857 -0.455003 10.4239 9.42316
55 4 1.28478 1.86321 8.74664 13.8809
56 4 1.02514 -1.14976 12.1861 14.8672
57 4 1.43504 1.74116 10.5336 11.5059
175 2 0.149541 -3.7532 7.11015 13.7868
370 2 0.166854 1.34851 11.0393 16.1113
94 2 -0.00970722 -0.262478 11.7556 16.3416
318 2 -0.0600157 -5.68885 10.5599 16.8722
114 2 0.149137 -2.48829 7.69179 12.5437
115 2 0.155297 -1.98538 7.4715 14.3945
116 2 0.229211 -1.05021 8.66575 13.1926
147 2 0.20078 -1.12252 10.3449 11.6818
148 2 0.182767 -2.59618 10.837 10.5972
149 2 0.177694 -1.15543 12.1623 10.9945
150 2 0.137467 -3.48041 13.305 10.6581
151 2 0.210066 -1.9307 13.01 11.7811
159 2 0.211454 -3.37871 12.9409 15.2645
348 1 -0.669251 -6.70198 13.514 9.12102
161 2 0.141665 -2.04752 13.5244 16.5951
194 1 -0.675571 -2.0492 8.18099 13.465
206 1 -0.664482 -1.4762 11.0081 10.8451
207 1 -0.659671 -3.06151 13.2405 11.7889
209 1 -0.664603 2.90293 7.3184 13.2602
211 1 -0.658942 -2.39064 13.5005 15.4718
157 2 0.16776 4.08043 7.45278 13.2698
224 3 -0.825691 -3.58623 7.64601 9.3049
226 3 -0.794364 -3.90616 9.36468 15.3462
227 3 -0.766655 -6.56921 13.0746 15.831
228 3 -0.788987 -5.58529 11.911 11.069
229 3 -0.799045 -3.78028 10.2473 12.6197
230 3 -0.766809 -5.03879 12.7052 13.6099
259 3 -0.832128 1.08066 9.36567 12.7158
317 2 0.0712466 -4.27906 9.12836 11.4995
255 3 -0.8024 0.862136 7.82461 15.1403
256 3 -0.801435 -2.00356 10.8842 14.5275
257 3 -0.803639 -0.148342 12.8679 13.7542
258 3 -0.789639 0.970578 10.1662 9.97459
210 1 -0.67612 1.01696 10.443 17.0449
145 2 0.152665 0.585236 12.6546 8.7445
260 3 -0.884613 1.48036 12.0829 11.703
369 2 0.209647 0.916188 9.31991 16.8288
35 4 1.09168 7.81073 3.21761 0.338561
59 4 1.31879 13.9407 0.942106 7.45894
61 4 0.998761 12.6141 2.51339 5.27874
354 2 0.128525 9.79179 1.88781 4.04666
67 4 1.30085 11.4169 4.35814 7.30355
86 2 -0.017593 7.8215 2.04959 1.69079
40 4 1.31052 5.62541 5.14506 1.28883
96 2 0.0407998 11.6124 1.77145 4.07275
97 2 0.0273062 13.9851 2.90269 4.27951
58 4 1.56281 13.2893 0.0181056 2.4196
359 2 0.153441 9.25901 1.08863 1.32516
121 2 0.148099 8.89953 0.467228 6.01409
170 2 0.168311 9.22193 5.52937 3.53464
171 2 0.175566 7.66356 4.47022 3.11748
172 2 0.199082 7.97069 5.02418 4.95725
356 1 -0.69349 9.95729 0.848346 3.55754
214 1 -0.656646 13.1352 4.92132 7.96451
215 1 -0.679535 8.04477 5.26663 3.81912
88 2 -0.00491795 8.21117 1.68851 3.64316
233 3 -0.820476 7.07813 4.56785 0.882879
270 3 -0.837724 10.847 3.27309 8.34415
1 4 1.06287 15.9331 1.20014 3.39846
263 3 -0.864078 12.9659 1.46885 6.3863
267 3 -0.822352 5.79813 6.54958 2.02915
272 3 -0.801154 7.08157 3.73593 8.50134
271 3 -0.829121 11.9528 3.86775 5.65654
361 1 -0.637074 8.38677 0.260858 1.12438
274 3 -0.800467 10.7065 5.8104 7.21741
237 3 -0.824655 6.98045 3.05693 5.72721
308 4 1.5505 12.524 2.27864 0.510189
309 4 1.15198 11.8232 5.19459 1.36991
310 2 0.186945 10.865 4.9113 3.7777
239 3 -0.865392 5.69276 5.30283 6.54258
180 2 0.197468 8.32753 5.82093 6.74989
313 1 -0.676793 11.1659 5.90243 3.21941
314 3 -0.847592 12.3281 1.00389 1.61138
315 3 -0.828955 12.1826 3.64762 1.32598
316 3 -0.806558 10.6223 5.77731 0.487662
311 2 0.171982 10.353 6.60837 2.90472
386 3 -0.862025 14.4345 0.937406 3.10722
355 2 0.246623 10.728 0.889955 2.74163
261 3 -0.79269 14.7029 2.12608 8.27709
218 1 -0.655802 8.0522 6.40544 7.69097
312 2 0.137941 12.1856 6.36711 3.35405
45 4 1.51818 5.09382 6.70912 6.06229
100 2 0.011546 10.2684 6.69606 4.75982
167 2 0.185192 13.7727 4.90049 7.01163
65 4 1.27025 6.97831 6.78158 3.51902
169 2 0.255848 13.0703 6.0307 8.42768
39 4 1.29022 7.77264 2.18227 10.8503
46 4 1.35609 6.41145 4.14322 13.0168
371 2 0.195612 11.8395 1.6853 13.5645
60 4 1.24053 10.6359 2.25478 9.53686
63 4 1.41871 10.1034 2.95393 15.7979
64 4 1.09376 12.7024 3.73174 11.1621
68 4 1.34524 7.53511 5.28468 9.12779
70 4 1.39447 11.0759 5.01501 13.4444
305 4 1.46819 14.7158 2.20646 15.8977
72 4 1.53633 9.59451 6.49466 11.1936
99 2 0.0168724 12.8324 4.82127 9.92105
166 2 0.182171 14.5612 2.90717 12.6422
162 2 0.20722 10.1256 0.546291 14.8023
163 2 0.173001 9.25155 2.02574 13.8813
164 2 0.176953 8.46096 1.09049 15.455
165 2 0.183076 14.5552 2.05452 10.8248
95 2 -0.0187978 10.8628 0.665917 8.84533
374 2 0.181847 11.2581 0.0375854 12.648
333 2 0.284589 15.6007 -0.00895062 13.3325
307 3 -0.80196 13.9972 0.822661 15.0295
98 2 0.00933423 9.49733 0.606359 13.0153
185 2 0.178837 12.5783 0.722997 9.63797
212 1 -0.652533 9.38041 1.36857 14.8654
213 1 -0.66359 14.48 3.0704 11.5019
48 4 1.3504 5.04532 6.00778 10.8975
103 2 0.0284581 5.89066 6.51194 16.0316
240 3 -0.805782 7.41435 3.29068 11.9844
372 2 0.22965 12.7904 0.9695 12.0293
262 3 -0.842914 9.22945 2.215 10.3393
264 3 -0.833733 11.2635 2.21165 16.5067
265 3 -0.815682 8.82478 3.10346 16.796
266 3 -0.809474 11.9083 2.49784 10.6582
273 3 -0.842558 6.18882 5.92854 9.77453
275 3 -0.824955 10.5078 4.00362 14.5922
276 3 -0.847312 12.2273 4.48117 12.5334
277 3 -0.813571 6.98542 5.11571 14.2809
373 1 -0.658453 12.1203 0.761948 12.8509
71 4 1.39613 7.31909 6.42193 15.0205
280 3 -0.805404 8.91266 5.59522 10.0618
281 3 -0.790265 9.81331 5.58675 12.5201
173 2 0.184408 11.9012 6.32237 15.2718
278 3 -0.855884 8.53232 6.48301 15.9176
216 1 -0.646015 11.8437 6.64759 14.1565
306 3 -0.820203 13.7183 2.38861 17.1646
347 2 0.181398 16.2922 0.26067 9.27973
168 2 0.186002 13.6138 4.19834 8.66358
33 4 1.1368 1.74626 12.8161 2.59323
295 3 -0.852225 7.55036 13.2819 6.99194
254 3 -0.840648 3.20328 9.80788 7.02267
358 2 0.154165 1.17698 13.4081 0.0639428
182 2 0.226503 7.04797 8.70423 8.3483
385 2 0.172222 4.56268 13.3203 7.90697
69 4 0.935829 10.7118 7.19638 6.37427
73 4 1.27133 8.51067 8.89276 2.01578
74 4 1.35396 4.81922 11.8036 4.82594
75 4 1.35153 7.42736 11.3584 0.715322
76 4 1.28212 9.25536 9.88222 7.72255
78 4 1.32294 7.67663 12.0308 6.04568
289 3 -0.808757 9.88327 8.41223 6.8984
328 2 0.161688 10.5023 11.1871 2.62698
18 2 0.139917 10.6426 10.2207 4.22024
104 2 -0.00882576 9.98546 9.53826 2.73748
268 3 -0.828023 5.99468 7.06029 4.81336
107 2 0.0854516 8.42493 12.6068 4.6508
176 2 0.224394 5.45785 9.50161 4.2358
177 2 0.229484 4.57007 10.3605 2.81745
178 2 0.222465 3.57779 9.58421 4.26672
179 2 0.22322 7.1715 7.06851 7.4777
52 4 1.52066 3.87684 8.72631 7.98861
288 3 -0.83635 6.65185 12.4925 1.46126
217 1 -0.666476 4.5184 10.1142 3.92304
293 3 -0.838688 6.23962 11.6325 5.56446
294 3 -0.835259 8.48912 10.8945 6.77353
249 3 -0.791661 2.71241 11.7808 1.84617
251 3 -0.850948 4.99033 7.87347 7.17427
51 4 1.30646 2.9074 10.4715 0.808609
282 3 -0.821227 7.98553 8.02265 3.24147
283 3 -0.869925 9.00639 7.94683 0.810885
284 3 -0.82325 5.01462 12.9311 3.68875
285 3 -0.830205 3.36896 12.0531 5.79003
286 3 -0.866983 8.86133 11.7772 0.326751
287 3 -0.857802 7.57785 10.1053 1.59016
101 2 -0.0208749 12.2784 7.65522 6.05694
353 2 0.208212 2.85234 13.5692 4.36447
54 4 1.2605 2.37477 11.0084 6.47152
181 2 0.249231 8.95899 7.00195 8.1356
105 2 0.0856494 4.40664 7.33293 2.70968
24 4 0.990097 11.9876 8.14786 10.1676
29 4 1.22448 9.90567 11.8502 9.99926
62 4 1.25034 5.80747 13.4828 14.1005
184 2 0.223576 8.2157 8.89153 9.76346
77 4 1.32613 4.49841 10.8705 10.2223
79 4 1.31518 8.18821 8.68614 12.9675
80 4 1.21903 4.19601 10.6467 15.3235
81 4 1.58117 7.09894 11.4121 11.7751
82 2 0.0745895 11.3044 9.39294 9.26657
279 3 -0.858722 11.0178 7.05527 10.7155
106 2 -0.00832853 3.9139 12.2984 9.31575
152 2 0.245719 6.04071 8.21789 10.6138
153 2 0.197943 5.61065 7.98814 12.4013
154 2 0.223212 4.19279 8.28111 11.1909
384 2 0.198113 6.2166 12.7207 8.91583
382 1 -0.689942 4.27702 7.61804 16.3008
183 2 0.224458 7.35853 10.3944 9.10158
186 2 0.179808 9.63611 10.3165 13.8718
187 2 0.176733 10.596 9.01314 12.9292
188 2 0.226471 10.1538 8.72329 14.8247
189 2 0.203822 5.52739 9.10608 14.0723
190 2 0.159965 6.28475 9.29928 15.9453
191 2 0.193193 6.35016 10.7948 14.6294
208 1 -0.6696 5.26632 7.8426 11.3663