ITEM: TIMESTEP
0
ITEM: NUMBER OF ATOMS
386
ITEM: BOX BOUNDS xy xz yz pp pp pp
-7.6535000000000002e+00 1.6722200000000001e+01 -7.3464000000000000e+00
-1.7999999999999999e-02 1.3589000000000000e+01 -3.0709999999999998e-01
0.0000000000000000e+00 1.7316099999999999e+01 -1.7999999999999999e-02
ITEM: ATOMS id type q x y z
132 2 0.107317 1.96863 4.09053 8.39902
2 2 -0.0533288 -0.0533652 2.30884 1.98116
234 3 -0.795012 0.618226 6.01473 5.61833
4 2 0.0971914 -0.362318 3.4011 4.58558
5 2 0.141346 -0.231292 1.65638 5.73595
6 1 -0.652462 -0.980606 2.42901 5.17032
10 4 0.702051 -0.650624 3.04141 8.3848
1 4 0.992478 -0.753474 1.47578 3.46308
12 2 -0.00608823 -0.143169 3.32236 6.81268
34 4 1.02305 4.28654 0.998943 3.40807
376 2 0.143222 -3.30599 6.18951 2.0712
326 2 0.154573 -0.629168 5.17047 1.94029
109 2 0.165449 -2.80235 5.75027 4.43378
41 4 1.18664 2.12649 6.18752 4.4731
246 3 -0.873238 2.55842 6.52523 0.863582
327 1 -0.709487 0.0317829 4.90625 1.01776
87 2 0.00882155 2.67704 1.08962 7.86447
7 4 0.835364 0.530309 3.14368 0.426937
90 2 0.0217879 3.578 2.6472 3.07041
118 2 0.136817 4.25429 1.06554 1.12703
197 1 -0.679272 7.27275 0.504351 6.2824
238 3 -0.868911 3.63779 6.19776 5.12049
133 2 0.232634 3.3718 5.09491 7.55353
322 2 0.141973 3.26167 2.60183 0.938552
21 3 -0.758783 0.158692 0.146136 3.85543
126 2 0.156312 5.97806 3.27564 2.76192
127 2 0.153907 4.18259 3.26379 1.73673
128 2 0.176587 4.5823 4.43374 3.31896
129 2 0.174896 1.27744 4.79672 2.58348
130 2 0.128287 1.68486 3.89728 4.32632
131 2 0.166833 3.21582 4.34907 3.05111
360 2 0.15318 7.82248 0.181347 0.455976
134 2 0.261156 1.55556 5.45262 6.92844
37 4 1.03348 6.96132 1.88835 5.06494
167 2 0.259496 -2.87447 5.79281 7.64572
362 2 0.14993 5.92177 1.54679 0.45893
377 2 0.177123 -3.61279 6.70645 0.215182
199 1 -0.678437 4.98351 3.81879 2.47525
200 1 -0.660549 2.07754 4.65489 3.45307
201 1 -0.68788 2.25622 5.07846 7.86962
231 3 -0.771487 5.57926 1.42189 4.2092
325 2 0.228559 1.0335 5.51609 0.975959
236 3 -0.775501 4.89316 2.8855 7.87254
117 2 0.194071 6.04659 0.47457 1.70877
192 1 -0.688018 -1.75819 5.95665 4.19
320 2 0.172611 2.30984 0.925153 1.00688
321 2 0.127407 1.91398 2.3456 2.25365
323 1 -0.679231 2.2436 2.11359 1.16522
195 1 -0.661232 4.90434 0.343448 1.77805
110 2 0.152008 -1.18649 5.06015 3.81601
324 2 0.159332 -0.5836 4.99243 0.0112185
121 2 0.180732 7.07079 0.765267 7.33697
235 3 -0.80397 4.58342 4.96831 0.157282
25 4 1.02726 -0.781552 6.72527 5.53224
120 2 0.178006 4.79771 0.0927396 7.40485
108 2 0.128038 -1.59353 6.7728 3.35194
160 2 0.17528 5.50268 0.822725 14.7234
91 2 0.0183063 0.720473 5.97864 9.7753
9 3 -0.770988 -0.540601 2.46361 16.5304
13 2 0.136042 -1.36134 4.57446 10.43
156 2 0.214464 2.37767 6.30492 13.2438
15 2 0.0949254 0.522006 4.1133 10.0024
16 1 -0.657243 -0.561654 4.49087 9.61776
26 4 0.978007 -1.68972 4.5479 14.0763
84 2 0.0259767 -2.89406 5.6036 13.4002
47 4 1.19677 0.587249 6.2749 15.4677
42 4 1.22047 3.10101 6.01388 16.8485
85 2 -0.0277959 -1.20905 3.6937 12.6504
119 2 0.117621 4.85716 0.046803 9.36621
375 2 0.136463 -1.29186 2.67651 11.2349
123 2 0.152063 3.85458 1.34592 11.1372
124 2 0.124594 2.81886 3.01722 10.4886
125 2 0.196772 4.77228 3.00845 10.9733
14 2 0.170797 -0.619909 5.28901 8.76031
135 2 0.177628 5.87869 1.89169 13.106
136 2 0.174595 4.67241 3.13951 13.8156
137 2 0.176049 6.0399 2.38227 14.9615
44 4 1.07195 2.36014 6.25745 9.26171
368 2 0.161761 3.94318 0.553603 12.5858
198 1 -0.664269 3.88867 2.40251 10.593
202 1 -0.677704 5.71445 2.70657 13.9073
346 2 0.142064 1.31194 0.467976 9.87317
241 3 -0.842532 -0.5431 5.43772 14.7866
242 3 -0.789062 2.01414 5.48337 15.629
243 3 -0.77378 3.4457 5.91837 10.3495
364 2 0.190206 5.65201 3.1581 16.6907
8 2 0.0696761 1.92079 3.4792 17.2056
335 2 0.129864 0.507594 1.76321 13.3536
336 1 -0.646316 -0.146622 0.820116 13.4586
337 2 0.150916 2.32366 1.98214 14.6578
338 2 0.187073 3.53227 0.695653 15.3441
339 2 0.199463 2.24601 1.65423 16.5192
340 1 -0.652352 2.47391 1.21546 15.4644
363 2 0.156994 6.71598 1.56072 16.1681
92 2 0.0173376 0.0657187 6.43782 17.1496
334 2 0.217612 -0.292448 0.148794 12.5029
23 4 1.11301 1.21089 0.0507889 14.5766
36 4 0.787587 3.92321 1.97246 8.79053
365 1 -0.677014 6.30016 2.17084 16.9938
11 2 -0.0288472 0.465381 1.77808 8.66646
17 4 1.00387 -5.57929 12.7109 4.41975
342 2 0.147921 -2.02267 9.657 2.02486
20 1 -0.688117 -5.75202 10.9503 3.58889
254 3 -0.8504 2.89856 9.61184 6.69612
366 2 0.150113 -3.9615 12.6851 8.3187
250 3 -0.765441 2.55399 7.708 8.59423
225 3 -0.76825 -1.75853 6.92089 6.8663
28 4 1.19019 -2.63024 8.433 7.56622
49 4 1.23885 2.83166 7.64105 2.00334
50 4 1.05244 -0.0737023 11.1967 4.14711
83 2 0.0109719 -0.608446 8.30759 4.79959
19 2 0.140916 -4.78204 10.5865 3.08411
111 2 0.154025 -4.77823 9.43247 6.26261
112 2 0.110904 -3.14871 8.84777 5.33671
113 2 0.181688 -3.16641 10.471 6.504
138 2 0.151543 -0.372514 9.99598 2.11713
139 2 0.113051 -1.46412 9.11087 3.44436
140 2 0.263196 0.436356 8.5522 3.16149
141 2 0.177139 -1.46364 11.4019 6.29684
142 2 0.144174 -2.25552 10.6555 4.61699
143 2 0.20124 -1.94756 12.5843 4.86844
144 2 0.163656 0.0380695 11.7 7.14605
102 2 0.112261 -3.39402 8.79728 0.722144
146 2 0.157104 -1.36318 12.5973 8.28947
248 3 -0.858257 3.05221 9.15041 1.49383
193 1 -0.678734 -3.62857 9.42527 6.28014
203 1 -0.661143 -0.374624 9.40711 3.1205
204 1 -0.662694 -1.64464 11.5037 5.16097
205 1 -0.671281 -0.27756 12.0047 8.21068
252 3 -0.776031 -1.54664 9.33406 8.20394
329 2 0.158612 -6.57603 13.3689 6.47221
245 3 -0.821383 1.84212 7.4447 3.24478
158 2 0.152405 0.701444 11.2991 0.251307
247 3 -0.743359 0.211635 12.7581 3.03056
122 2 0.201468 -0.759159 13.3229 5.89212
253 3 -0.830993 1.05148 11.0171 5.1937
345 2 0.176804 -6.3041 13.1343 8.1522
330 2 0.17791 -5.69624 11.5467 6.38808
331 1 -0.639736 -5.59008 12.703 6.30609
332 2 0.173545 -4.68296 13.1219 6.95247
369 2 0.191108 0.810387 9.39694 0.191456
343 2 0.115282 -3.94488 10.2514 1.99986
344 1 -0.659993 -3.05538 9.83296 1.24467
349 2 0.174109 -4.34625 13.1818 0.150024
350 2 0.146512 -4.2405 11.4599 0.942476
351 2 0.178384 -5.42808 12.8002 1.75945
352 1 -0.708243 -4.86728 12.4271 0.800224
357 2 0.193998 -2.81962 12.8745 1.85984
341 2 0.142552 -2.70908 10.5663 0.435019
93 2 -0.00377309 1.58117 11.4198 7.91329
54 4 1.24227 2.20528 10.9705 6.32894
22 3 -0.760105 -4.28948 13.5745 4.0222
196 1 -0.661393 -3.18312 13.5662 8.33848
155 2 0.192469 2.65547 7.63493 11.8739
27 4 1.01588 -4.72225 9.13776 16.6044
30 4 1.202 -2.93303 9.62707 13.9441
31 4 1.0757 -6.82365 12.048 17.2325
32 4 1.2442 -4.71848 11.9509 12.3825
348 1 -0.658427 -6.78043 13.4619 9.22728
53 4 1.11117 -0.655627 10.3605 9.24894
55 4 1.24769 1.85179 8.61124 13.7973
56 4 1.01881 -0.809218 12.0161 14.4994
57 4 1.45337 1.61095 10.3738 11.2954
260 3 -0.853156 1.3734 12.0007 11.2794
370 2 0.193258 1.48239 10.3653 16.1641
94 2 -0.0109869 0.235053 11.5799 15.8075
318 2 -0.0479637 -5.73286 10.6214 16.8467
114 2 0.138275 -2.8851 7.69678 12.5365
115 2 0.167993 -2.12764 7.41861 14.3694
116 2 0.223031 -1.08406 8.22439 13.0344
147 2 0.19179 -2.4342 9.87878 10.6465
148 2 0.157339 -2.36264 11.8327 10.2669
149 2 0.226989 -1.25521 11.2025 11.6179
150 2 0.127058 -3.48777 13.1468 10.8606
151 2 0.214051 -2.30472 12.5864 12.3167
159 2 0.197452 -3.03296 12.736 14.6815
210 1 -0.676642 0.915397 10.3455 17.2056
161 2 0.137107 -1.84295 13.2011 16.2532
194 1 -0.684945 -2.12516 8.0264 13.4226
206 1 -0.640428 -1.82758 10.9143 10.6857
207 1 -0.66575 -3.30681 13.1239 12.052
209 1 -0.686086 2.87935 7.24974 12.9389
211 1 -0.65937 -2.06636 13.317 15.1399
157 2 0.182137 3.94491 7.41906 13.2519
224 3 -0.783189 -3.69692 8.17079 8.92684
226 3 -0.828085 -3.93159 9.29655 15.2843
227 3 -0.755319 -6.99154 12.799 15.8953
228 3 -0.80829 -6.02922 11.8509 11.2114
229 3 -0.748937 -3.95194 10.3246 12.4778
230 3 -0.817478 -5.39202 12.6119 13.6248
259 3 -0.784393 1.04225 9.58775 12.8545
317 2 0.0813809 -4.37448 9.21231 11.4007
255 3 -0.809833 0.943556 7.78019 14.8699
256 3 -0.787595 -1.86142 10.794 14.1606
257 3 -0.845389 -0.0518931 12.7459 13.2454
258 3 -0.782049 0.687392 9.84718 10.0123
38 4 1.30026 0.848314 13.2182 12.1205
175 2 0.177799 -3.73505 6.95769 14.2597
145 2 0.179084 0.478764 12.6209 8.74562
35 4 1.11305 8.03637 3.43356 0.190407
59 4 1.27869 13.6901 0.929015 7.61181
61 4 1.01547 12.5174 2.61838 5.45977
354 2 0.142081 9.6576 1.84589 4.38431
67 4 1.32482 11.4589 4.74383 7.26934
168 2 0.208235 13.7042 4.03161 8.27412
65 4 1.31564 7.04898 6.66266 3.6375
96 2 0.0234193 11.6329 1.94074 4.12163
97 2 0.0149618 13.9178 2.86022 4.51292
58 4 1.5263 13.3547 0.0867232 2.54401
359 2 0.176934 9.41819 1.17889 0.800536
379 1 -0.674033 13.2146 5.88112 0.962348
170 2 0.18735 9.22947 5.30458 3.42632
171 2 0.162958 7.68251 4.34494 2.99963
172 2 0.203144 7.9966 4.72103 4.81077
356 1 -0.684907 9.88969 1.06466 3.68408
214 1 -0.677249 13.17 5.11939 8.19984
215 1 -0.674764 8.11463 5.07941 3.72202
88 2 -0.00201633 8.21554 2.01073 3.77193
233 3 -0.831692 7.30743 4.68955 0.798896
270 3 -0.792957 10.9176 3.53743 8.29248
312 2 0.125246 11.9698 6.40148 3.74036
263 3 -0.863395 12.7309 1.61321 6.5577
267 3 -0.836851 5.81642 6.54594 2.11502
378 2 0.196062 13.9711 5.0313 0.643936
271 3 -0.847152 11.84 3.99879 5.84689
45 4 1.55821 4.98683 6.46421 5.94068
274 3 -0.829158 10.6984 6.14962 7.12903
237 3 -0.820956 6.74215 3.22735 5.87247
308 4 1.50297 12.4025 2.12648 0.513833
309 4 1.17487 11.5247 5.09207 1.36335
310 2 0.185742 10.932 4.91138 3.91814
272 3 -0.804852 7.32136 3.88023 8.36149
180 2 0.225383 8.09325 6.22618 6.95806
313 1 -0.693135 11.1393 5.83125 3.27637
314 3 -0.849932 12.4082 0.92671 1.50981
315 3 -0.798183 11.6187 3.49113 1.37458
316 3 -0.813731 10.4504 5.89078 0.567615
261 3 -0.775414 14.6862 2.32768 8.47765
386 3 -0.851692 14.4703 1.07305 3.13003
355 2 0.211789 10.7414 1.38226 3.01141
218 1 -0.659057 7.88252 6.73138 7.93803
239 3 -0.847346 5.48049 5.20869 6.91353
86 2 0.00449229 7.57627 2.07578 1.28475
367 2 0.147816 8.37465 0.334797 6.07783
311 2 0.180698 10.2364 6.46024 3.10207
40 4 1.2643 5.75711 5.20881 1.30125
353 2 0.209863 10.2561 0.0985321 4.3394
43 4 1.53732 6.15535 3.86518 7.26572
361 1 -0.668871 8.89917 0.150162 0.700169
268 3 -0.848143 6.21707 6.75665 4.94306
3 2 0.152563 14.8921 2.80073 5.84915
306 3 -0.836744 13.8963 2.63585 0.0879013
95 2 -0.00010614 10.931 0.838351 8.54124
39 4 1.28346 7.96886 2.33976 10.8123
46 4 1.32922 6.62296 4.17586 13.1054
371 2 0.231926 12.5456 1.94815 13.6447
60 4 1.32333 10.7505 2.38849 9.38945
63 4 1.34462 10.0129 2.60693 15.5195
64 4 1.09647 13.0686 3.28549 11.1099
68 4 1.35412 7.77253 5.50334 9.35424
70 4 1.35323 11.3433 4.82253 13.4333
305 4 1.44192 14.5194 2.30826 16.0567
72 4 1.43133 9.97556 6.54521 11.3411
99 2 0.01329 13.6608 4.42762 9.99072
166 2 0.181479 14.5584 2.25915 12.9816
162 2 0.178925 9.68649 0.164012 14.817
163 2 0.156741 9.22108 1.7499 13.495
164 2 0.171215 8.06099 1.15378 14.9767
165 2 0.202589 14.2608 1.24223 11.3705
232 3 -0.858469 7.72632 0.800729 11.1341
374 2 0.186687 10.9249 0.863949 13.8191
169 2 0.24207 12.7483 5.66683 9.12617
307 3 -0.771118 14.196 0.824481 15.2571
98 2 0.00899234 9.61869 0.114539 12.9397
185 2 0.174172 12.1718 0.222428 9.88996
212 1 -0.685365 9.09756 1.1368 14.5339
213 1 -0.677316 14.5037 2.21802 11.8077
216 1 -0.687007 12.26 6.10479 14.5233
223 3 -0.840253 14.3568 3.51984 14.9932
240 3 -0.83035 7.50811 3.34203 12.018
372 2 0.196565 12.1524 0.799596 12.2087
262 3 -0.843696 9.4515 2.39483 10.1669
264 3 -0.774912 11.2117 1.74293 16.4234
265 3 -0.830304 8.89811 3.12589 16.5145
266 3 -0.830154 11.9814 2.38736 10.4305
273 3 -0.837981 6.35284 5.78489 10.0539
275 3 -0.799805 10.7185 3.6477 14.4677
276 3 -0.809949 12.5626 4.09003 12.4009
277 3 -0.798173 7.23308 5.14665 14.3173
373 1 -0.664846 12.0351 0.982773 13.3253
71 4 1.33516 7.52805 6.5531 14.992
280 3 -0.835476 9.01847 5.688 10.2069
281 3 -0.81894 10.2851 5.69941 12.6831
173 2 0.186381 12.6599 5.33549 15.2712
89 2 0.0973573 6.92312 2.66446 9.44101
279 3 -0.804903 11.5202 6.77257 10.5306
48 4 1.32923 5.16597 6.13148 11.0411
333 2 0.265113 15.6311 0.89993 14.1123
347 2 0.188739 16.1561 0.280305 9.18879
174 2 0.224112 11.3087 6.57495 15.0113
381 2 0.155824 4.85687 6.6702 15.2735
244 3 -0.787144 5.46407 5.17616 12.2633
278 3 -0.852025 8.83531 6.69732 15.7773
33 4 1.0868 1.69736 13.0804 2.50044
181 2 0.213152 8.82863 7.31253 8.34762
184 2 0.23651 6.56914 10.5421 8.20054
18 2 0.149973 10.5928 10.2801 4.41038
219 1 -0.658988 7.15692 9.61712 8.05118
385 2 0.162985 4.64489 12.9849 8.15193
69 4 0.997822 10.6349 7.35721 6.1706
73 4 1.25406 8.75565 8.76439 2.33224
74 4 1.30069 4.81105 11.8124 4.89676
75 4 1.2929 7.48923 11.2288 1.23488
76 4 1.26259 8.95193 9.93564 7.53395
78 4 1.31601 7.63435 12.2662 6.08074
289 3 -0.79814 9.80721 8.43561 6.77567
183 2 0.247803 6.59754 8.98547 7.34003
328 2 0.174204 10.1324 11.1249 2.81236
104 2 -0.0276459 10.3864 9.26452 2.74802
51 4 1.30639 2.90888 10.5409 0.82391
107 2 0.100707 8.4449 12.8933 4.69357
176 2 0.216665 5.00398 9.40905 4.83046
177 2 0.214393 5.05086 10.1654 3.09169
178 2 0.239103 3.42939 9.90992 3.93652
179 2 0.214729 6.91135 7.40552 7.99476
52 4 1.49442 3.70915 8.69414 7.76107
288 3 -0.844211 6.65635 12.336 1.94246
217 1 -0.671075 4.49188 10.1291 4.05385
293 3 -0.819172 6.29239 11.554 5.71231
294 3 -0.834276 8.75434 11.2389 6.59824
249 3 -0.747778 2.61888 11.7575 2.0666
251 3 -0.82547 4.82723 7.79203 6.95649
101 2 -0.0377336 12.2025 7.78509 5.62257
282 3 -0.831758 8.26362 7.65951 3.47355
283 3 -0.826683 8.83703 8.0455 0.902365
284 3 -0.800885 4.97632 13.0729 3.91912
285 3 -0.804258 3.38271 12.0059 5.99544
286 3 -0.847938 8.90735 11.782 0.691861
287 3 -0.847439 7.84681 9.98003 2.17319
295 3 -0.878716 7.32552 13.43 7.05112
105 2 0.108937 4.47146 7.39076 2.44138
100 2 0.00852475 10.2021 6.93431 4.57494
358 2 0.198788 2.16828 13.0751 0.00482537
220 1 -0.688919 5.32197 13.4831 8.93989
29 4 1.28481 9.53897 11.8871 10.1748
290 3 -0.798068 9.62763 10.3701 8.89792
103 2 0.00940152 6.22337 6.83027 16.1185
77 4 1.2755 4.3532 10.6256 10.1004
79 4 1.31231 8.51793 8.96489 12.975
80 4 1.26934 4.2264 10.6971 15.3897
81 4 1.51436 6.98526 11.4094 11.6678
66 4 1.49772 9.58882 7.18257 17.1414
291 3 -0.833216 4.5863 9.57256 8.89422
106 2 -0.0217448 3.92108 12.1317 9.45285
152 2 0.211587 5.9808 8.34232 10.7134
153 2 0.263238 6.25288 7.77472 12.5625
154 2 0.209113 4.50187 8.48614 11.8826
24 4 0.967063 11.9014 8.2232 10.0189
382 1 -0.680103 4.323 7.34406 16.0667
298 3 -0.794418 3.16251 9.72112 14.6065
186 2 0.199693 9.58516 10.6385 14.4921
187 2 0.228397 10.7996 9.4048 13.8321
188 2 0.196509 9.59845 8.85702 15.0498
189 2 0.191307 5.61085 9.04671 14.5607
190 2 0.161678 6.02613 8.97793 16.4939
191 2 0.171778 6.53049 10.5187 15.491
208 1 -0.680681 5.50729 7.87958 11.6075
221 1 -0.711483 9.82948 9.54309 14.2103
222 1 -0.669993 5.8111 9.64626 15.6115
269 3 -0.885496 10.9003 8.1393 16.8793
182 2 0.172939 7.38248 9.11477 9.05589
383 2 0.154985 4.98889 7.77151 17.0089
292 3 -0.857968 3.13686 10.1221 11.0727
296 3 -0.812296 7.39314 7.71835 13.8908
297 3 -0.833815 9.31982 8.11543 11.8559
82 2 0.0843639 10.5815 9.21198 9.56755
299 3 -0.751195 4.59862 12.2459 14.868
300 3 -0.787239 3.69087 10.9132 16.9853
301 3 -0.85889 8.04946 12.1166 10.6885
302 3 -0.862292 5.6607 10.9983 10.8711
303 3 -0.837574 7.6882 10.1655 12.4496
304 3 -0.778439 6.49531 12.4986 13.0803
319 2 0.0262501 6.2265 10.7062 17.2012
62 4 1.27628 5.76914 13.3447 14.1569
384 2 0.201645 6.2869 12.8011 9.16629
380 2 0.229112 3.79724 8.225 15.6248
ITEM: TIMESTEP
100
ITEM: NUMBER OF ATOMS
386
ITEM: BOX BOUNDS xy xz yz pp pp pp
-7.8065700000000016e+00 1.7056644000000002e+01 -7.4933280000000018e+00
-1.7999999999999999e-02 1.3589000000000000e+01 -3.1324199999999996e-01
0.0000000000000000e+00 1.7316099999999999e+01 -1.7999999999999999e-02
ITEM: ATOMS id type q x y z
132 2 0.124009 2.00893 4.04164 8.62232
2 2 -0.0594723 -0.122779 2.13146 2.00621
234 3 -0.74961 0.739419 6.04889 5.63429
4 2 0.0992506 -0.276653 3.37391 4.41246
5 2 0.143366 -0.103161 1.77694 5.69856
6 1 -0.650835 -0.897912 2.52397 5.08505
10 4 0.7172 -0.576227 2.88405 8.48295
1 4 1.0209 -0.727917 1.33307 3.53268
12 2 -0.0165053 -0.095438 3.03731 6.8911
34 4 1.03273 4.2 0.922271 3.29875
376 2 0.1245 -3.09275 6.16161 1.7493
326 2 0.157929 -0.365442 5.11973 2.03891
109 2 0.196341 -2.8027 5.55512 5.00014
41 4 1.19986 2.04566 6.02166 4.47116
246 3 -0.852726 2.67842 6.62392 0.871091
327 1 -0.705645 0.0428441 4.9818 1.02158
87 2 0.0172838 2.72338 0.938642 7.81939
7 4 0.818481 0.323971 3.06117 0.482977
90 2 0.0111773 3.55576 2.42621 3.24757
118 2 0.108081 4.45038 0.796188 1.11017
197 1 -0.639457 7.16907 0.569836 6.28388
238 3 -0.802328 3.56913 6.17756 5.2119
133 2 0.243528 3.40557 5.05096 7.70842
322 2 0.140896 3.13718 2.57503 0.881005
21 3 -0.788799 0.190734 0.124943 3.96121
126 2 0.138976 5.7507 2.81494 2.18795
127 2 0.155873 3.99761 3.38619 1.6926
128 2 0.16415 4.71095 3.90174 3.43679
129 2 0.157705 1.26531 4.55956 2.57255
130 2 0.128375 1.6758 3.76435 4.41379
131 2 0.167943 3.07201 4.07864 3.10626
360 2 0.136115 7.55713 0.365734 0.765706
134 2 0.236079 1.61302 5.37368 7.26448
37 4 1.04683 6.70386 1.75011 4.95697
167 2 0.261606 -2.71141 5.81453 7.64966
362 2 0.132388 5.93804 1.46222 0.611559
196 1 -0.653005 4.24298 0.00763017 8.31639
199 1 -0.714538 4.95644 3.57572 2.36048
200 1 -0.687207 2.04465 4.42388 3.46618
201 1 -0.687514 2.34399 4.99846 8.1073
231 3 -0.817853 5.38573 1.24724 4.28019
325 2 0.227287 1.05684 5.46765 0.89707
236 3 -0.781679 4.80293 2.86831 7.75922
117 2 0.182266 6.17 0.341821 2.09312
192 1 -0.669496 -1.8728 5.98796 4.44408
320 2 0.176266 2.19888 0.940822 0.955731
321 2 0.142445 1.93528 2.27523 2.29438
323 1 -0.685815 2.17911 2.0754 1.22907
195 1 -0.633056 5.11719 0.0590009 1.87586
110 2 0.14957 -1.15008 5.12058 4.1118
43 4 1.51116 6.04304 3.878 7.11046
121 2 0.192196 6.6482 1.0574 7.217
3 2 0.160223 -1.61817 3.06723 5.79588
8 2 0.0645966 2.00835 3.62093 0.0748263
324 2 0.146735 -0.722657 4.99461 0.0933716
14 2 0.136879 -0.36564 5.1248 8.48843
108 2 0.123237 -2.23135 6.76408 3.65376
160 2 0.163182 5.38111 1.01192 14.7295
91 2 0.0260251 0.786682 5.99826 9.92747
9 3 -0.779585 -0.562166 2.32345 16.5321
13 2 0.141682 -0.942059 4.89386 10.4016
156 2 0.195006 2.01481 6.60294 12.9094
15 2 0.106455 0.772882 4.01986 10.0246
16 1 -0.642187 -0.277122 4.43149 9.61491
26 4 0.98343 -1.66616 4.61135 14.182
84 2 -0.0115374 -2.76092 5.81775 13.7044
47 4 1.24635 0.635059 6.22064 15.3868
42 4 1.27026 3.23529 6.04708 16.8438
85 2 -0.0301458 -1.2788 4.01289 12.6584
119 2 0.0886946 5.22748 0.550549 9.45649
375 2 0.143218 -1.0875 3.10426 11.3555
123 2 0.156628 3.74077 1.39105 11.1401
124 2 0.122047 2.67891 2.89074 10.4267
125 2 0.211954 4.51885 3.1355 10.9806
334 2 0.198152 -0.098141 0.175775 12.7682
135 2 0.175301 5.85044 1.77572 13.3393
136 2 0.1817 4.45339 3.09493 13.5339
137 2 0.160728 5.71037 2.83698 14.8759
44 4 1.11509 2.41774 6.39689 9.37713
368 2 0.160547 3.67068 0.564391 12.4285
198 1 -0.672327 3.76129 2.42431 10.5411
202 1 -0.676938 5.55356 2.81894 13.7605
346 2 0.146315 1.39161 0.196674 9.89031
241 3 -0.864701 -0.380059 5.2916 14.6568
242 3 -0.799049 1.971 5.53539 15.747
243 3 -0.796603 3.37309 6.14646 10.5311
364 2 0.187487 5.19689 2.90193 16.7003
11 2 -0.0300393 0.6087 1.68801 9.04959
335 2 0.166477 -0.0709565 1.91832 13.2141
336 1 -0.683099 -0.190566 0.927389 13.5849
337 2 0.165595 2.10766 2.23786 14.7381
338 2 0.18754 3.50293 0.973637 15.2453
339 2 0.189149 2.13837 1.69824 16.5858
340 1 -0.632882 2.40641 1.35567 15.4036
363 2 0.161047 6.49575 1.67131 16.1524
92 2 0.0274495 -0.0136184 6.37873 16.9876
232 3 -0.820586 7.4796 0.596754 11.1206
23 4 1.12394 1.19543 0.105923 14.6652
36 4 0.808077 3.91448 1.96925 8.70054
365 1 -0.688478 6.08096 2.22698 17.0488
235 3 -0.806481 4.28483 5.01729 17.3021
244 3 -0.855394 5.43301 4.98084 12.2117
17 4 1.00851 -5.57033 12.6309 4.41074
342 2 0.170236 -2.06204 9.81543 1.9481
20 1 -0.661556 -5.55478 10.8189 3.65741
254 3 -0.83052 2.95584 9.62349 6.60194
120 2 0.174213 -2.5369 13.413 7.36562
250 3 -0.778592 2.54516 7.74745 8.5976
225 3 -0.754672 -1.81099 7.15383 6.84504
28 4 1.27964 -2.63167 8.5387 7.82156
49 4 1.25799 2.88298 7.59861 2.10462
50 4 1.06593 -0.23883 11.1578 4.22392
83 2 0.00504116 -0.430574 8.43469 4.84265
19 2 0.152441 -5.01569 10.8731 2.63174
111 2 0.168351 -4.83137 9.31045 6.50623
112 2 0.125299 -3.17271 8.90494 5.56121
113 2 0.175279 -3.29018 10.5383 6.62827
138 2 0.17735 -0.494 9.86352 2.02374
139 2 0.117277 -1.33245 8.96041 3.49148
140 2 0.246807 0.486127 8.85882 3.30555
141 2 0.175231 -1.73817 11.36 6.11678
142 2 0.131711 -2.45585 10.8612 4.30367
143 2 0.237545 -2.28412 12.7562 4.95768
144 2 0.196767 0.224294 11.931 7.20579
102 2 0.0455782 -3.23807 8.4087 0.67105
146 2 0.156821 -1.28372 12.8532 8.31694
248 3 -0.823501 2.78073 9.11084 1.65594
193 1 -0.665109 -3.68711 9.44905 6.49805
203 1 -0.672779 -0.423079 9.49993 3.09878
204 1 -0.660927 -1.8412 11.7005 5.07004
205 1 -0.655612 -0.116659 12.2425 8.25053
252 3 -0.809746 -1.57823 9.59055 8.20365
329 2 0.180538 -6.49965 12.9347 6.44834
245 3 -0.797922 1.88188 7.33751 3.3349
158 2 0.160565 0.691512 11.5288 0.201808
247 3 -0.731488 0.213885 12.2564 3.10966
122 2 0.190745 -0.71229 13.1135 5.8793
253 3 -0.785325 0.972335 11.0527 5.55239
345 2 0.17491 -6.21777 13.0568 8.05573
330 2 0.166389 -5.44238 11.3179 6.17327
331 1 -0.658572 -5.44066 12.5039 6.22831
332 2 0.170505 -4.52335 12.9412 6.88928
369 2 0.190607 0.621479 9.65072 0.0837163
343 2 0.136685 -3.90812 10.2389 1.91611
344 1 -0.661594 -3.02592 9.96268 1.27581
25 4 0.964654 -0.808669 6.9373 5.52032
350 2 0.141103 -4.18126 11.6074 0.993787
351 2 0.174787 -5.59498 12.937 1.6518
352 1 -0.677464 -4.92354 12.5283 0.721677
357 2 0.187919 -2.31549 12.5848 1.52832
341 2 0.145063 -2.81737 10.7477 0.478325
93 2 -0.00393058 1.74722 11.652 7.98513
349 2 0.175599 -4.38745 13.3905 0.236386
22 3 -0.754229 -4.32761 13.4378 3.80173
105 2 0.0960698 4.3935 7.14271 2.68627
18 2 0.146842 -5.22963 10.0005 4.37546
366 2 0.159055 -3.74792 12.8004 8.60976
155 2 0.249695 2.54962 7.85971 11.6689
27 4 1.00152 -4.47361 9.08677 16.6849
30 4 1.19557 -2.97764 9.68882 13.9196
38 4 1.26167 0.971901 13.2058 12.1138
32 4 1.2796 -4.8086 11.8023 12.3205
348 1 -0.659059 -6.71807 13.3384 9.13647
53 4 1.1249 -0.655375 10.5501 9.23023
55 4 1.1991 1.71008 8.80663 13.7958
56 4 1.00227 -0.94322 12.1797 14.5399
57 4 1.42878 1.67376 10.3659 11.2292
258 3 -0.780453 0.693289 9.95297 9.86611
370 2 0.180661 1.16225 10.551 15.9216
94 2 -0.0035902 0.0664305 11.9908 15.963
318 2 -0.0232445 -5.64578 10.4796 17.0103
114 2 0.138463 -2.69149 7.92302 12.397
115 2 0.148016 -2.30651 7.50947 14.2614
116 2 0.234625 -0.960159 8.27115 13.1523
147 2 0.17045 -2.90067 10.8257 10.2678
148 2 0.185797 -1.68868 12.1509 10.6919
149 2 0.207488 -1.58244 10.355 11.4969
150 2 0.154183 -3.60166 13.2429 10.7693
151 2 0.198158 -2.55895 12.6568 12.2154
159 2 0.197928 -3.08696 12.8849 14.8513
210 1 -0.676262 0.811031 10.5739 17.1096
161 2 0.14664 -1.91308 13.4029 16.3197
194 1 -0.681381 -2.07832 8.18996 13.318
206 1 -0.674457 -1.85906 11.0272 10.6168
207 1 -0.66451 -3.51876 13.1283 11.8797
209 1 -0.667946 2.56205 7.53708 12.7298
211 1 -0.678834 -2.09225 13.4844 15.1935
157 2 0.149846 3.58937 7.57266 13.2909
224 3 -0.861036 -3.64128 8.06518 8.88035
226 3 -0.810932 -3.74081 9.38956 15.3793
227 3 -0.783301 -6.78319 12.8774 15.8978
228 3 -0.845312 -5.94159 11.8022 11.1621
229 3 -0.793103 -4.1913 10.2539 12.4528
230 3 -0.775453 -5.22501 12.5429 13.7271
259 3 -0.80387 0.999446 9.6075 12.5758
317 2 0.0850393 -4.40001 9.19501 11.3055
255 3 -0.798733 0.801075 7.78429 14.8634
256 3 -0.758729 -1.84054 10.746 14.3249
257 3 -0.804085 0.00497148 12.7099 13.3105
31 4 1.07946 -6.76024 11.9402 17.1492
145 2 0.186802 0.604334 12.6893 8.99685
35 4 1.09658 7.79147 3.4266 0.148034
59 4 1.30538 13.8737 0.960589 7.74437
61 4 0.998049 12.6705 2.547 5.47974
354 2 0.127967 9.5548 1.81333 4.54634
67 4 1.32259 11.6168 4.65915 7.3687
168 2 0.226691 13.843 4.10211 8.38875
65 4 1.29077 7.13852 6.58707 3.66267
96 2 0.0148159 11.4436 1.84537 4.48111
97 2 0.0357232 13.9686 2.7316 4.41779
58 4 1.50142 13.2548 0.0152618 2.57703
359 2 0.154852 9.19806 1.41277 1.18194
379 1 -0.682265 13.3062 5.57289 0.749628
170 2 0.172909 9.345 5.27803 3.64393
171 2 0.146884 7.76459 4.1361 3.2196
172 2 0.194299 7.95906 4.78208 5.02282
356 1 -0.678769 9.7958 0.893793 3.89006
214 1 -0.679251 13.3451 5.06261 8.21395
215 1 -0.661045 8.12327 4.99762 3.87145
88 2 -0.00998538 8.14816 1.7991 3.82858
233 3 -0.807952 7.24102 4.79612 0.717387
270 3 -0.836081 10.8831 3.62517 8.33464
312 2 0.133552 12.0476 6.36691 3.86069
263 3 -0.862087 13.0181 1.54543 6.61774
267 3 -0.827007 5.79493 6.4129 2.25171
378 2 0.222687 13.8886 4.61826 0.485162
271 3 -0.825293 12.2633 4.01956 5.88064
45 4 1.5341 5.06958 6.55104 6.01423
274 3 -0.822431 10.8173 6.04467 7.09599
237 3 -0.823737 6.62581 3.17379 5.80154
308 4 1.47433 12.4294 2.10411 0.538924
309 4 1.1192 11.6556 5.05525 1.44918
310 2 0.177239 10.8304 4.96571 3.8021
272 3 -0.803779 7.18377 3.80322 8.32245
180 2 0.208244 8.02705 6.10343 6.95915
313 1 -0.689841 11.2043 5.86598 3.30534
314 3 -0.825946 12.3221 0.81807 1.48244
315 3 -0.794848 11.6722 3.4259 1.40789
316 3 -0.776779 10.5046 5.87695 0.57793
261 3 -0.788202 14.7098 2.30966 8.60447
386 3 -0.844924 14.4792 0.937974 3.28279
355 2 0.205001 10.603 1.11907 3.14161
218 1 -0.663221 7.90876 6.66318 7.92231
239 3 -0.889791 5.4551 5.27809 6.8042
86 2 -0.0175578 7.38557 2.18519 1.4025
367 2 0.152303 8.34465 0.494876 6.22537
311 2 0.184419 10.4199 6.63362 3.04195
40 4 1.2179 5.7284 5.11311 1.41852
353 2 0.244688 10.2302 0.153546 4.66303
95 2 0.00534226 11.0274 1.05455 8.45892
361 1 -0.674652 8.75114 0.361308 0.801084
306 3 -0.844045 14.0177 2.52367 0.0830358
39 4 1.25725 8.0053 2.13347 10.6899
46 4 1.30187 6.59754 4.16808 12.9764
371 2 0.23012 12.8497 1.92198 13.5946
60 4 1.26967 10.8706 2.47382 9.41699
63 4 1.41214 10.061 2.71077 15.6646
64 4 1.08313 13.1709 3.46887 11.1979
68 4 1.29984 7.51297 5.45669 9.31812
70 4 1.38912 11.2515 4.78811 13.5122
305 4 1.44594 14.5362 2.25837 16.0474
72 4 1.4845 9.97868 6.43558 11.3216
99 2 4.60113e-05 13.9079 4.62012 10.0894
166 2 0.170044 14.6214 2.32497 12.7789
162 2 0.164888 9.86378 0.434724 14.4492
163 2 0.18267 9.32345 1.97212 13.3821
164 2 0.164237 8.13643 1.39575 14.8566
165 2 0.21757 14.6126 1.48749 11.1143
278 3 -0.844994 8.73884 6.72069 15.7661
374 2 0.187885 11.1004 1.18437 13.5676
169 2 0.213558 12.8653 5.55263 9.15279
307 3 -0.753996 14.071 0.702841 15.2133
98 2 -0.00796768 9.65592 0.498159 12.6985
185 2 0.164574 12.1254 0.36909 9.73304
212 1 -0.6644 9.24949 1.4026 14.4168
213 1 -0.686489 14.7178 2.48301 11.6631
216 1 -0.705144 12.1641 6.15259 14.5548
223 3 -0.84009 14.3279 3.54623 15.0987
240 3 -0.781276 7.61492 3.16759 11.8524
372 2 0.190651 12.3796 0.687288 12.0892
262 3 -0.859961 9.45255 2.19109 10.2121
264 3 -0.793708 11.2485 1.93639 16.3864
265 3 -0.819669 8.76443 3.10063 16.5858
266 3 -0.816785 12.1939 2.51643 10.3826
273 3 -0.819079 6.13688 6.04809 9.85923
275 3 -0.815115 10.7016 3.67054 14.5648
276 3 -0.814956 12.4813 4.08007 12.5135
277 3 -0.798696 7.4527 5.13035 14.058
373 1 -0.635491 12.2358 0.964905 13.2229
71 4 1.33386 7.47983 6.4963 14.8675
280 3 -0.797574 8.7564 5.6942 10.3445
281 3 -0.839017 10.2644 5.62241 12.64
173 2 0.180994 12.781 5.45989 15.1689
89 2 0.115468 6.99602 2.64524 9.34097
279 3 -0.822645 11.4956 6.77644 10.5291
48 4 1.29858 5.08678 6.1176 11.1723
333 2 0.2662 15.5743 0.788107 14.2266
347 2 0.194719 16.3227 0.306351 9.09892
174 2 0.228713 11.3885 6.70955 15.0941
103 2 0.00686132 6.05417 6.48149 15.7743
377 2 0.168325 12.8876 6.24401 17.2139
33 4 1.05223 1.72715 13.0616 2.41921
181 2 0.215396 8.84407 7.23561 8.30375
184 2 0.25223 6.50968 10.3818 7.93674
268 3 -0.826651 6.35488 6.94271 5.00922
219 1 -0.656019 7.14292 9.46423 7.90256
385 2 0.187208 4.48771 13.18 8.0668
69 4 0.98569 10.6643 7.3474 6.25515
73 4 1.18273 8.72491 8.77522 2.20017
74 4 1.29886 4.8081 11.8952 4.8628
75 4 1.25571 7.52634 11.1814 1.28195
76 4 1.26972 8.91048 9.99427 7.62377
78 4 1.30507 7.60485 12.2897 6.14694
289 3 -0.784501 9.87863 8.57833 6.7078
183 2 0.250372 6.85525 8.75393 7.0831
328 2 0.137197 9.93438 11.0007 3.60033
104 2 -0.0122238 10.2909 9.35319 2.72096
51 4 1.2638 2.74362 10.5011 0.837365
107 2 0.0949855 8.45085 12.786 4.71153
176 2 0.205664 4.97196 9.49167 4.2958
177 2 0.23139 4.90594 10.6989 2.84315
178 2 0.245966 3.29689 10.128 3.68694
179 2 0.235339 6.8904 7.22318 7.9507
52 4 1.51632 3.6833 8.74095 7.69465
288 3 -0.822582 6.65661 12.4192 1.71411
217 1 -0.665193 4.40988 10.3604 3.7984
293 3 -0.8319 6.20486 11.6706 5.80101
294 3 -0.842586 8.65443 11.1776 6.59624
249 3 -0.743376 2.65883 11.8508 2.00935
251 3 -0.829663 4.87112 7.79157 7.05269
101 2 -0.0186662 12.2191 7.83511 5.74831
282 3 -0.809763 8.31221 7.57121 3.27123
283 3 -0.819884 8.92626 8.14785 0.666201
284 3 -0.850387 4.94715 13.0773 3.86536
285 3 -0.799196 3.35783 12.2511 6.01814
286 3 -0.855186 8.96693 11.5998 0.662092
287 3 -0.81019 7.54663 9.94969 2.35033
295 3 -0.861309 7.62014 13.5163 7.13861
54 4 1.22792 2.30095 11.1047 6.44529
100 2 0.0156275 10.1828 6.93973 4.67726
319 2 0.0556533 6.51766 10.6234 0.0419553
220 1 -0.706611 5.22772 13.4581 8.85346
29 4 1.26836 9.49342 11.8801 10.2
290 3 -0.80376 9.52683 10.285 9.05233
260 3 -0.86101 1.64076 12.0879 11.3153
77 4 1.2679 4.33368 10.7034 10.0907
79 4 1.2934 8.62391 8.87412 12.7973
80 4 1.2852 4.23214 10.6769 15.4981
81 4 1.52311 6.98909 11.4945 11.6847
66 4 1.49713 9.4997 7.11389 17.0406
291 3 -0.830859 4.42491 9.90363 8.69615
106 2 -0.0131367 3.81049 12.2675 9.59052
152 2 0.21664 6.09087 8.30083 10.894
153 2 0.245465 6.32381 7.7552 12.6879
154 2 0.208122 4.59769 8.39859 12.1537
24 4 0.986803 11.978 8.18539 9.99223
382 1 -0.696272 4.30231 7.38045 15.9154
298 3 -0.796035 3.10088 9.83822 14.6623
186 2 0.218917 9.75753 10.7718 13.5226
187 2 0.208538 10.8401 9.22582 13.7251
188 2 0.187794 9.48003 9.62123 14.9668
189 2 0.185093 5.72409 9.09847 14.602
190 2 0.156105 5.89132 8.86912 16.4221