ITEM: TIMESTEP
0
ITEM: NUMBER OF ATOMS
366
ITEM: BOX BOUNDS xy xz yz pp pp pp
-7.5839999999999996e+00 1.5901800000000000e+01 -7.5839999999999996e+00
0.0000000000000000e+00 1.4340199999999999e+01 1.7780000000000001e-01
0.0000000000000000e+00 1.7246500000000001e+01 4.3709999999999999e-01
ITEM: ATOMS id type x y z
115 3 6.87774 0.687651 0.91919
5 4 1.02807 2.17462 5.80515
9 4 0.0268468 4.02802 1.84722
11 4 -0.180567 4.9044 7.10238
27 4 1.40047 6.72184 3.27085
29 4 5.1358 3.92777 7.9739
64 1 2.48529 2.78667 4.69641
69 1 -1.70801 5.46165 5.76723
70 1 0.993158 6.55564 7.01422
76 1 5.52494 1.42787 4.52376
77 1 2.91312 6.31838 4.50816
79 1 3.73404 5.12014 7.1659
98 3 -0.238214 1.59205 4.88539
99 3 1.66108 1.10288 6.76649
102 3 -0.716862 3.09886 2.89866
103 3 1.14055 3.19518 1.0303
104 3 -1.00485 4.71263 0.911099
105 3 0.504978 3.55411 6.68942
210 2 -1.6566 6.60422 2.6704
124 3 0.911096 5.34871 2.77605
310 3 4.45774 5.38144 0.564829
199 2 2.86821 1.98221 3.94144
200 2 3.25634 2.96376 5.60508
201 2 2.05686 3.70853 4.14585
10 4 -1.46248 6.09782 0.22197
355 3 1.58685 0.670326 0.742999
215 2 -1.32086 5.30062 4.6911
216 2 -2.00861 6.51443 6.02457
218 2 1.7042 6.46837 6.0935
219 2 1.54951 6.42585 8.0155
235 2 5.4935 0.342995 4.87836
236 2 5.97434 1.613 3.50944
237 2 4.54865 1.92997 4.6113
238 2 3.6489 6.50003 3.60003
239 2 2.92758 5.22134 4.92747
241 2 -0.669172 6.86735 4.8053
244 2 2.80057 4.737 7.7196
245 2 3.73419 4.95449 6.00584
246 2 3.88156 6.19859 7.49993
305 1 4.32319 3.92859 2.88801
324 1 3.58043 0.473618 2.76336
312 2 4.90211 3.09831 3.54165
313 2 3.50879 3.45344 2.20537
314 2 3.78073 4.8171 3.52705
326 2 3.42153 1.54015 2.31948
118 3 7.22147 0.714816 6.83487
126 3 5.92148 3.20515 6.76575
23 4 6.74988 2.01865 5.92208
20 4 6.43631 2.08778 0.0470739
325 2 3.51267 0.438236 3.86267
3 4 1.43833 2.45911 17.1313
8 4 1.44596 2.24024 11.6831
212 2 -1.79564 5.28699 8.742
22 4 3.71028 1.82 9.82148
25 4 4.00237 2.31285 15.3342
26 4 6.28514 2.3294 11.6193
30 4 5.44325 4.76531 13.3839
253 2 3.51054 5.99965 9.44168
65 1 -0.378544 1.77085 11.2033
66 1 1.55119 3.92709 12.7079
68 1 -0.690354 4.80586 8.88069
81 1 1.10209 6.18522 14.4358
82 1 2.92763 6.50465 10.2591
100 3 -0.00710091 2.30711 16.2126
101 3 2.03379 1.10304 12.6066
106 3 -2.59953 6.51543 16.5644
116 3 3.35002 0.296689 9.07032
117 3 2.24056 2.40126 10.3328
119 3 3.84087 0.947416 14.5437
120 3 5.2715 2.13684 16.4013
121 3 2.62886 2.75665 16.0638
122 3 4.8491 1.74981 11.0738
123 3 6.93362 1.30667 12.7447
127 3 4.49243 3.66599 14.1973
131 3 4.51085 5.87711 12.6329
202 2 -0.537337 2.41386 10.2758
255 2 2.28266 5.77132 10.7327
333 2 -1.44528 4.73477 15.0561
205 2 2.51204 4.43961 12.4167
206 2 1.53708 3.67783 13.8392
207 2 0.65462 4.50706 12.3618
252 2 1.48274 6.54477 13.3728
129 3 2.83344 7.16226 16.4995
213 2 0.125606 5.48366 9.32437
332 2 -0.273089 3.90927 13.6553
331 1 -1.28305 3.87365 14.2862
250 2 -0.0279917 6.03955 14.5979
251 2 1.77678 5.37635 14.8974
125 3 4.2949 2.91022 8.83266
211 2 -0.725659 3.76127 9.29347
32 4 4.14956 7.13985 11.7628
24 4 7.97449 0.37953 13.4464
1 4 -5.38516 13.4944 1.77101
221 2 -2.09768 7.42227 8.11395
14 4 -2.26874 9.68525 7.7558
15 4 -3.66604 11.9692 5.65441
338 2 -3.96217 9.28199 1.60537
34 4 -0.91366 11.8363 3.96318
337 1 -3.65491 9.39326 0.462277
67 1 -1.83465 7.18362 1.76086
71 1 -3.09397 8.03436 8.17219
72 1 -0.758177 9.2459 6.66395
78 1 0.0895043 7.62028 4.29007
84 1 -1.30592 10.26 2.8971
328 2 -5.49963 11.5371 7.79968
107 3 -6.43794 13.0648 2.93442
108 3 -4.78295 12.0497 1.12269
109 3 -5.04137 11.6347 4.92534
110 3 -3.26619 10.6767 6.84579
111 3 -3.84247 13.3628 6.41855
132 3 1.98487 7.86831 2.32231
134 3 -0.594965 12.9732 2.90115
135 3 -2.33853 12.1157 4.6569
339 2 -2.51478 9.55123 0.345452
141 3 0.36764 11.4267 4.88917
142 3 2.14337 10.3004 6.49251
222 2 -3.7959 7.72827 7.37565
209 2 -1.13197 8.07263 1.69808
217 2 0.340693 7.47879 6.95943
327 1 -6.20514 12.429 7.81365
269 2 3.68998 7.76583 6.81064
223 2 -1.07394 8.29307 6.15781
224 2 0.0725697 9.09477 7.54636
225 2 -0.50157 10.0605 5.91318
4 4 -4.98801 13.8725 7.54233
242 2 -0.493382 8.58049 3.75819
243 2 0.852096 8.00774 5.08577
259 2 -0.26365 9.81712 2.56978
260 2 -1.97997 10.587 2.03756
261 2 -1.81592 9.64582 3.76967
262 2 -0.473241 10.7297 1.09535
264 2 1.08055 8.03024 8.53436
85 1 -0.083455 11.1389 0.0721853
208 2 -2.97205 7.48685 1.6298
21 4 0.471734 13.6786 7.80841
358 2 -3.04014 13.8951 2.29982
240 2 3.0705 7.11245 5.30222
19 4 0.286042 13.9413 1.96685
6 4 -4.74677 14.0503 13.633
16 4 -2.09457 9.00718 13.4465
18 4 -3.29107 11.7906 11.8193
31 4 1.50206 7.56601 15.7286
37 4 -0.927253 11.7821 9.83114
40 4 1.54497 11.7389 11.6783
365 2 -4.50552 9.05987 10.9522
73 1 -0.68597 8.11011 12.4708
74 1 -1.12166 9.66778 14.9499
75 1 -4.58182 11.1657 10.6282
86 1 1.23914 8.98513 9.11846
112 3 -3.04163 8.01894 14.3328
113 3 -2.76737 10.2369 12.777
114 3 -3.99528 12.9198 12.7523
234 2 -5.31284 10.507 11.2101
130 3 -0.0562348 7.45694 16.6216
138 3 -1.73369 10.3756 9.13701
140 3 -1.99318 12.3313 10.9004
144 3 1.79921 8.71495 14.7122
145 3 3.49417 8.43765 12.5566
146 3 0.399852 11.4077 10.5523
147 3 1.63473 10.4621 12.7175
282 2 -3.61305 7.514 11.6826
227 2 -0.0290895 7.51027 13.2527
228 2 -0.0854638 8.88977 11.923
229 2 -1.75254 10.617 15.536
230 2 -0.266014 10.054 14.2613
231 2 -0.870624 8.80283 15.6056
232 2 -4.02619 10.6131 9.75726
233 2 -5.00728 12.2178 10.3108
220 2 -3.56084 7.94169 9.19365
254 2 2.31585 7.37593 9.82198
263 2 -0.208179 10.8829 16.4989
362 2 -0.330055 12.6154 17.1627
265 2 0.364115 9.62502 9.04835
266 2 1.51245 8.80097 10.2199
297 4 -4.19961 11.4757 17.1635
298 1 -2.7065 12.3197 16.1006
361 2 -3.83246 8.87951 17.1017
300 2 -2.79836 11.9211 15.0658
301 2 -1.73854 12.0526 16.6128
302 2 -2.91245 13.4342 16.1251
340 1 -0.693812 13.4016 14.7283
39 4 2.68502 9.57769 13.5578
342 2 -0.630638 12.3157 14.5424
341 2 -0.269253 13.7693 15.7421
356 3 -5.87876 13.2051 14.4686
343 2 -1.75694 13.8752 14.5154
226 2 -1.2898 7.48909 11.7912
267 2 3.57724 7.63879 8.74014
299 3 -5.37608 11.2733 16.2127
148 3 1.02089 13.0347 12.5788
139 3 -0.622658 12.7108 8.64717
2 4 14.2254 1.85358 3.97069
91 1 10.9567 5.34454 8.47248
317 2 9.11488 6.61876 4.85519
364 2 11.9622 4.69544 3.78549
42 4 9.19779 2.12312 3.87917
46 4 11.7631 1.93354 5.71578
50 4 10.4784 4.13048 1.93204
52 4 10.0329 3.85485 7.44652
89 1 11.4772 5.39771 2.99857
90 1 9.04904 4.74832 6.0465
43 4 11.6169 1.91479 0.198311
214 2 13.1593 4.7606 5.96046
149 3 13.8521 0.615876 3.06698
150 3 8.69837 1.0216 2.8668
151 3 7.88781 2.54435 5.0431
153 3 11.8439 0.741473 1.3196
156 3 12.947 2.52635 4.53736
157 3 10.3894 1.53405 4.85639
158 3 12.2966 0.658348 6.45378
165 3 9.61105 3.39202 3.03106
166 3 11.5682 3.29579 0.975042
168 3 9.70679 5.30654 0.947697
170 3 11.2973 3.00486 6.85495
94 1 7.25686 7.10055 7.40531
274 2 10.7213 6.0421 3.48368
275 2 9.20799 4.47144 4.94211
276 2 9.59871 5.81758 6.36795
277 2 7.99075 4.61803 6.36436
279 2 12.0375 5.22817 8.04648
287 2 7.94907 6.28892 6.86161
345 2 14.6638 1.54471 7.48281
306 1 8.72164 6.95884 3.83911
304 4 6.77307 6.82518 3.75616
169 3 8.93016 3.34623 8.53002
308 1 5.84727 5.66222 5.0815
309 3 6.1367 3.34551 1.15929
311 3 6.50189 6.00348 2.47771
316 2 9.27743 6.47487 2.97103
344 1 14.7353 0.666367 8.24526
322 2 5.19133 6.24502 5.68141
323 2 6.65029 5.15061 5.66269
303 4 5.44097 4.67732 1.57913
278 2 10.5072 6.32881 8.13676
273 2 12.2656 5.99877 2.46161
286 2 7.12417 6.99911 8.45164
321 2 5.29754 4.9748 4.29611
7 4 14.2783 2.29426 15.3306
12 4 12.0263 6.78178 15.4272
346 2 14.864 1.08331 9.35371
283 2 7.85159 5.6769 10.9263
247 2 5.68556 5.93323 8.94897
45 4 8.73098 2.0804 9.67647
204 2 15.3608 0.632949 10.951
48 4 9.27958 2.64278 15.4996
49 4 11.3824 2.46423 11.565
51 4 9.3725 6.93631 16.952
53 4 10.635 4.72445 13.6481
28 4 4.3624 7.37784 17.09
80 1 6.27157 4.91361 9.17691
88 1 12.5624 2.72232 10.0209
54 4 6.71306 7.0826 15.1366
93 1 8.54909 6.38994 10.3255
128 3 6.14196 3.99631 12.1307
152 3 13.0092 2.38619 16.2914
154 3 8.77189 0.662194 8.92253
155 3 7.33953 2.38342 10.3727
159 3 13.9494 1.103 14.3086
160 3 9.04951 1.48779 14.3353
161 3 10.3925 2.12179 16.6211
162 3 7.79944 2.81236 16.2807
163 3 9.946 2.09605 10.9125
164 3 12.0576 1.29738 12.3678
280 2 10.8794 5.07703 9.526
359 2 13.5538 3.85596 13.6038
171 3 9.70851 3.93166 14.6156
172 3 11.2646 3.92103 12.3975
173 3 11.8825 5.38682 14.5316
174 3 6.46145 5.58454 14.3126
175 3 7.96112 6.87641 16.1941
177 3 9.86162 5.97091 12.8287
248 2 7.3441 4.93918 8.8495
249 2 6.21137 4.55269 10.2864
270 2 11.8052 2.94586 9.23783
271 2 12.9971 1.67615 10.0545
272 2 13.2798 3.53924 10.2268
284 2 9.32049 5.89482 9.62176
167 3 10.6357 7.26243 16.1374
203 2 14.67 1.97843 12.0347
257 2 6.70049 7.14561 10.7183
55 4 9.62491 7.22204 11.8841
33 4 3.1832 9.00244 1.8822
335 2 8.99862 10.5628 2.14915
13 4 9.0778 11.9513 4.15116
44 4 5.50754 13.674 7.71221
56 4 4.17383 11.44 3.87336
58 4 8.04209 8.94209 7.35856
60 4 6.50003 11.5105 5.87807
87 1 3.7785 8.34708 7.83971
366 2 10.0344 7.96777 6.49803
95 1 9.88298 9.02037 6.67421
133 3 4.30396 8.27067 1.01371
36 4 2.71641 9.87657 8.01382
137 3 1.36756 12.9024 1.10136
143 3 1.41545 12.7651 6.86476
178 3 3.76052 9.70834 3.22374
179 3 4.61438 12.4866 2.70649
180 3 2.89209 11.9979 4.65446
348 2 10.2387 8.55681 0.911924
185 3 7.88911 12.2037 5.20136
186 3 5.41423 11.2321 4.70934
187 3 7.20865 9.85805 6.32247
188 3 6.10775 12.2901 7.17063
360 2 9.74346 9.71432 3.72716
268 2 4.80624 8.81737 7.91962
289 2 10.4874 9.43537 7.48835
290 2 9.7418 9.59364 5.74101
307 1 6.1124 8.65689 3.88519
354 2 7.11744 10.3439 1.84969
363 2 7.99607 13.7686 7.93055
318 2 6.14638 9.31914 2.88145
319 2 6.59001 9.1683 4.87803
320 2 5.00832 8.14365 4.09902
41 4 5.33711 13.6655 1.95331
357 3 6.26361 12.9762 0.720061
334 1 8.87915 10.2731 3.25554
35 4 1.76965 11.6168 0.220065
336 2 7.74308 9.72102 3.52996
347 1 9.16777 7.93456 0.92748
349 2 8.90517 7.546 1.97415
350 2 8.3387 8.60582 0.52593
351 1 6.25799 10.3815 1.09888
352 2 6.29096 9.46768 0.489402
353 2 5.27327 10.4782 1.65518
315 2 8.63083 8.09023 3.73912
329 2 8.87779 12.3831 6.8024
38 4 1.74959 11.7071 5.71069
136 3 2.44734 10.2475 1.15569
288 2 6.22704 7.2407 6.87382
17 4 9.1495 11.8022 15.1532
295 2 8.48554 11.5478 10.2833
291 2 7.42258 10.6422 9.07613
57 4 6.45539 12.1575 16.9685
59 4 4.10957 12.0251 9.83294
61 4 8.02506 9.61294 13.389
62 4 3.83461 12.1042 15.0773
63 4 6.45869 11.7907 11.6947
83 1 5.69783 7.76938 10.8707
92 1 11.21 7.90764 11.0623
96 1 7.85597 9.60873 9.24959
97 1 7.9968 12.561 10.6469
183 3 4.60463 13.4654 9.15286
182 3 3.4608 11.0183 8.80896
181 3 7.83059 12.0727 16.0787
47 4 5.23335 14.1539 13.3373
184 3 2.88894 12.1605 10.9666
189 3 7.06738 8.4296 14.2595
190 3 8.88803 8.65293 12.2867
191 3 8.92066 10.5006 14.2529
192 3 3.72329 10.6472 14.2913
193 3 5.15362 11.9514 16.0448
194 3 4.07298 13.4146 14.2576
195 3 2.43709 12.3211 16.0279
196 3 5.49346 11.299 10.5453
197 3 7.02189 10.549 12.5959
198 3 6.10462 13.0294 12.5108
256 2 5.37092 8.07301 9.83252
176 3 5.42668 7.60957 15.9015
258 2 5.81099 8.71292 11.6002
330 2 8.99062 12.5082 8.85133
281 2 10.8702 7.21599 10.0443
292 2 8.95081 9.57599 9.48662
293 2 7.14079 8.90849 9.88636
294 2 7.64737 13.2717 9.72545
285 2 7.97131 7.25648 9.82123
296 2 8.55936 13.0352 11.4587
ITEM: TIMESTEP
100
ITEM: NUMBER OF ATOMS
366
ITEM: BOX BOUNDS xy xz yz pp pp pp
-7.5909515499999998e+00 1.5901800000000000e+01 -7.5909515499999998e+00
0.0000000000000000e+00 1.4340199999999999e+01 1.7780000000000001e-01
0.0000000000000000e+00 1.7246500000000001e+01 4.3709999999999999e-01
ITEM: ATOMS id type x y z
115 3 7.15492 0.701134 0.85266
5 4 0.957524 2.20952 5.92564
9 4 0.0796259 4.07738 1.84712
11 4 -0.15537 4.97923 7.16367
27 4 1.35867 6.81066 3.19132
29 4 5.04595 3.9639 7.99412
64 1 2.3741 2.7456 4.75907
69 1 -1.63936 5.3692 5.91475
70 1 1.0866 6.53127 6.92043
76 1 5.33071 1.48629 4.78824
77 1 3.00504 6.61023 4.32101
79 1 3.72916 5.13194 7.05229
98 3 -0.254554 1.74921 5.02675
99 3 1.75286 1.1939 6.90568
102 3 -0.755603 3.07393 2.74099
103 3 1.21741 3.23065 1.0253
104 3 -0.866332 4.82398 0.861902
105 3 0.569171 3.65949 6.64941
210 2 -1.71522 6.36798 2.699
124 3 0.74312 5.37035 2.73181
310 3 4.50798 5.39523 0.630214
199 2 2.66276 1.88239 3.93819
200 2 3.26238 3.06224 5.38411
201 2 1.90172 3.67393 4.30035
10 4 -1.44436 6.23508 0.268174
355 3 1.70118 0.670108 0.520095
215 2 -1.59905 4.83771 4.9166
216 2 -1.94142 6.43883 5.81636
218 2 1.77795 6.49783 5.93998
219 2 1.75546 6.57405 7.80219
235 2 5.31367 0.408503 5.34277
236 2 5.89069 1.423 3.79514
237 2 4.20214 1.94737 4.75513
238 2 3.64271 6.62117 3.31573
239 2 3.07516 5.59744 4.88733
241 2 -0.609186 6.67048 4.74584
244 2 2.77213 4.6788 7.40571
245 2 3.81184 5.02278 5.84874
246 2 3.83321 6.24495 7.38376
305 1 4.2529 3.95607 3.02505
324 1 3.50076 0.43634 2.77302
312 2 4.69164 3.06981 3.71124
313 2 3.4512 3.58888 2.22708
314 2 3.83483 4.95889 3.57696
326 2 3.45534 1.53362 2.42164
118 3 7.28443 0.813367 6.94596
126 3 6.10701 3.32963 6.8727
23 4 6.77858 2.09974 5.91089
20 4 6.57253 2.09239 0.0916076
325 2 3.33266 0.251298 3.8901
214 2 -2.36295 4.77359 6.7231
3 4 1.56272 2.53559 17.0392
8 4 1.28979 2.22596 11.8288
212 2 -1.51124 5.65913 9.31378
22 4 3.6482 1.81629 9.83658
25 4 4.18273 2.4773 15.353
26 4 6.17812 2.35515 11.5952
30 4 5.46752 4.80044 13.4469
253 2 3.79827 6.02069 9.60347
65 1 -0.652613 1.71814 11.2153
66 1 1.36233 3.90483 12.63
68 1 -0.614843 4.97688 9.01141
81 1 1.03162 6.29283 14.2622
82 1 3.02559 6.46885 10.3113
100 3 0.0478274 2.36998 16.267
101 3 1.82055 1.08354 12.8647
106 3 -2.51571 6.50285 16.5899
116 3 3.38583 0.469688 8.99745
117 3 2.22988 2.19942 10.5299
119 3 3.91278 1.07154 14.563
120 3 5.3017 2.31782 16.6199
121 3 2.69636 2.92273 15.9318
122 3 4.77215 1.75867 11.0953
123 3 6.93744 1.41842 12.8409
127 3 4.71813 3.6859 14.3514
131 3 4.45714 5.9127 12.6413
202 2 -0.808226 2.37994 10.3099
255 2 2.4085 5.6964 10.9044
333 2 -1.53484 4.56594 14.9861
205 2 2.37767 4.32595 12.1686
206 2 1.37795 3.68635 13.7777
207 2 0.492688 4.61704 12.2996
252 2 1.44659 6.70546 13.345
129 3 2.66791 7.13391 16.5051
213 2 0.444664 5.44814 9.32125
332 2 -0.418396 3.77856 13.6033
331 1 -1.4415 3.73556 14.2028
250 2 -0.0937385 6.13707 14.2335
251 2 1.69959 5.42843 14.7532
125 3 4.16297 2.93574 8.72999
211 2 -0.69293 3.85474 9.28633
28 4 4.27191 7.2455 17.1668
1 4 -5.39488 13.5131 1.69824
221 2 -2.17663 7.47233 7.98299
14 4 -2.39317 9.74522 7.71978
15 4 -3.55353 11.8851 5.72498
338 2 -4.12406 9.11109 1.7125
34 4 -0.965827 11.8149 3.99607
337 1 -3.79607 9.36481 0.664348
67 1 -2.03213 7.13375 1.86465
71 1 -3.19421 8.05925 8.09929
72 1 -0.722288 9.2526 6.74098
78 1 0.054414 7.57779 4.22832
84 1 -1.3815 10.1842 2.98607
328 2 -5.56213 11.5785 7.74672
107 3 -6.4956 13.0454 2.96882
108 3 -4.58796 12.1155 1.18351
109 3 -4.97325 11.639 4.96199
110 3 -3.29344 10.6306 6.73091
111 3 -3.67257 13.3057 6.58382
132 3 1.91407 7.96938 2.26827
134 3 -0.462115 12.9287 3.02593
135 3 -2.31613 12.0218 4.69841
339 2 -2.65538 9.75225 0.631797
141 3 0.251417 11.456 4.95884
142 3 2.19603 10.1279 6.40417
222 2 -3.96042 7.72895 7.23974
209 2 -1.39382 8.02478 1.83767
217 2 0.420591 7.47524 6.88589
327 1 -6.24321 12.4953 7.6985
240 2 3.32211 7.47357 4.96472
223 2 -1.05705 8.21488 6.32009
224 2 0.122421 9.12095 7.53502
225 2 -0.343843 10.0116 5.94213
4 4 -4.90077 13.9231 7.50905
242 2 -0.564322 8.44409 3.82512
243 2 0.85935 8.03196 5.01562
259 2 -0.403869 9.69154 2.7833
260 2 -1.94935 10.4997 2.12139
261 2 -2.05931 9.60405 3.67909
262 2 -0.564809 10.7251 1.23112
264 2 1.29725 7.86733 8.51903
85 1 -0.146561 11.1628 0.181709
208 2 -3.10146 7.41342 1.8624
21 4 0.482855 13.7016 7.92635
358 2 -3.11019 13.8239 2.48452
6 4 -4.74085 14.0623 13.7825
16 4 -2.15954 9.05131 13.5543
18 4 -3.35951 11.7813 11.9288
31 4 1.42561 7.57825 15.6004
37 4 -1.02646 11.762 9.84395
40 4 1.42283 11.8254 11.7705
365 2 -4.55175 9.06295 10.9197
73 1 -0.879851 8.2172 12.4748
74 1 -1.06462 9.79113 14.952
75 1 -4.70897 11.1165 10.6896
86 1 1.48172 8.91777 9.02351
112 3 -2.92264 7.9056 14.3343
113 3 -2.85896 10.5236 12.7971
114 3 -4.00598 12.9408 12.7484
282 2 -3.65549 7.3624 11.4089
130 3 -0.0558057 7.69701 16.7265
138 3 -1.712 10.3524 9.05006
140 3 -2.09951 12.3486 10.9439
144 3 1.85208 8.88213 14.794
145 3 3.28876 8.47793 12.4545
146 3 0.292234 11.3817 10.6241
147 3 1.42237 10.436 12.672
148 3 0.975225 13.1141 12.6533
227 2 -0.18084 7.44928 13.098
228 2 -0.20244 8.96868 11.953
229 2 -1.70519 10.6839 15.412
230 2 -0.221294 10.2127 14.2892
231 2 -0.665144 8.95905 15.8202
232 2 -4.12119 10.4607 9.87653
233 2 -5.02675 12.1284 10.2847
220 2 -3.68089 8.04049 9.21094
254 2 2.44189 7.35054 9.86338
263 2 -0.238057 10.9064 16.5372
32 4 4.08997 7.31454 11.7452
265 2 0.517598 9.52086 9.02972
266 2 1.87022 8.86548 10.0541
297 4 -4.1737 11.5121 17.2424
298 1 -2.73791 12.3193 16.0659
361 2 -3.72363 8.96765 17.2146
300 2 -2.8262 12.0035 15.0128
301 2 -1.668 12.0146 16.4503
302 2 -2.88847 13.4609 16.2105
340 1 -0.631869 13.6363 14.8288
39 4 2.70092 9.72136 13.4994
342 2 -0.353944 12.5748 14.7962
341 2 -0.348494 14.0883 15.8319
356 3 -5.64753 13.0313 14.5954
343 2 -1.74639 13.8313 14.6125
226 2 -1.63137 7.67489 11.7974
267 2 3.73729 7.58731 8.75956
299 3 -5.36702 11.1101 16.3108
139 3 -0.581004 12.8285 8.77547
362 2 -0.200523 12.7328 17.2253
2 4 14.2393 1.98823 3.83851
91 1 11.0567 5.3389 8.44233
317 2 9.04999 6.70643 4.86065
364 2 12.1633 4.16418 3.78332
42 4 9.20825 2.1713 3.87114
46 4 11.8124 1.92881 5.55555
50 4 10.4889 4.21514 1.85458
52 4 10.1808 3.88842 7.53829
89 1 11.5666 4.99888 3.16792
90 1 9.09409 4.85134 6.14838
43 4 11.6127 1.98506 0.10091
273 2 12.3847 5.79249 2.65089
149 3 13.7042 0.753618 3.06133
150 3 8.78478 1.01619 2.90048
151 3 7.8418 2.47188 4.82877
153 3 11.8242 0.696145 1.1142
156 3 12.9573 2.73744 4.62665
157 3 10.4492 1.72714 4.7789
158 3 12.3391 0.541727 6.52804
165 3 9.52488 3.47989 2.90753
166 3 11.4908 3.26096 1.01824
168 3 9.5813 5.28875 0.837353
170 3 11.2607 2.99196 6.79446
278 2 10.4114 6.24031 8.19057
274 2 10.8114 5.5838 3.84049
275 2 9.39621 4.40728 5.21866
276 2 9.48395 5.93789 6.35058
277 2 7.91808 4.73729 6.4039
279 2 12.0808 5.47185 8.06764
287 2 7.90012 6.29501 6.93229
345 2 14.521 1.54277 7.43487
306 1 8.6765 6.98605 3.84179
304 4 6.72939 6.73668 3.73948
303 4 5.39843 4.62003 1.64047
308 1 5.99322 5.68229 5.13493
309 3 6.3686 3.37439 1.04731
311 3 6.2823 5.83295 2.53156
316 2 9.16388 6.40149 2.98996
344 1 14.6411 0.715714 8.19365
322 2 5.37812 6.36767 5.9034
323 2 6.79085 5.02296 5.65572
321 2 5.26032 4.99212 4.44849
286 2 6.99459 7.12894 8.39228
7 4 14.3445 2.27708 15.4534
12 4 12.1419 6.67979 15.3827
346 2 14.7355 1.0925 9.28344
283 2 7.85719 5.76999 10.6332
247 2 5.70061 5.96703 8.96019
45 4 8.8423 2.01318 9.75012
204 2 15.1458 0.559075 11.001
48 4 9.23677 2.68423 15.4797
49 4 11.4023 2.46936 11.5286
51 4 9.33958 6.85469 16.9589
53 4 10.6528 4.79246 13.6468
24 4 8.00311 0.472028 13.4531
80 1 6.17418 4.92604 9.23491
88 1 12.622 2.79107 10.0674
54 4 6.71696 6.99904 15.2495
93 1 8.60821 6.50885 10.3151
128 3 6.16005 3.8582 12.1751
152 3 13.0269 2.40042 16.3536
154 3 8.88428 0.564957 8.95395
155 3 7.39722 2.18813 10.4446
159 3 14.0712 1.0063 14.3662
160 3 9.02057 1.38476 14.4883
161 3 10.459 2.3001 16.4532
162 3 7.85158 2.90327 16.286
163 3 9.98839 2.18057 10.8991
164 3 12.1884 1.31442 12.4496
280 2 11.0215 5.08286 9.55031
359 2 13.4259 3.62239 13.4943
171 3 9.68548 3.94613 14.6136
172 3 11.3654 3.78859 12.4074
173 3 11.9303 5.28901 14.5248
174 3 6.46434 5.71649 14.1803
175 3 7.9592 6.68996 16.2457
177 3 9.8606 6.0343 12.9525
248 2 7.26452 4.79784 8.89157
249 2 6.08592 4.67618 10.3112
270 2 12.0404 3.02921 9.14149
271 2 13.0974 1.7668 9.95202
272 2 13.2615 3.54079 10.4771
284 2 9.52668 6.04394 9.59621
167 3 10.6942 7.1301 16.0626
203 2 14.4527 1.94147 12.1356
169 3 9.17876 3.2088 8.67183
33 4 3.13359 9.1014 1.72171
335 2 8.9194 10.5997 2.05873
13 4 9.17155 11.8982 4.0876
44 4 5.49565 13.5281 7.65813
56 4 4.07124 11.3829 3.80256
58 4 8.04075 8.98056 7.32812
60 4 6.6583 11.4848 5.75758
87 1 4.05434 8.26418 7.84591
366 2 10.2658 7.95813 6.40096
95 1 9.98883 9.02591 6.81891
133 3 4.19425 8.12063 1.00168
36 4 2.87747 9.77368 7.85693
137 3 1.61074 12.8183 1.32179
143 3 1.61091 12.6585 6.92924
178 3 3.73231 9.98548 2.97353
179 3 4.65226 12.4127 2.63254
180 3 2.89311 12.0408 4.65392
348 2 10.0251 8.50299 0.837135
185 3 7.88992 12.2004 5.10908
186 3 5.35283 11.1921 4.87183
187 3 7.39352 9.81987 6.17074
188 3 6.14363 12.1644 7.16029
360 2 9.74938 9.70709 3.55071
268 2 5.09034 8.6255 7.95567
289 2 10.5893 9.2381 7.76561
290 2 10.0919 9.82402 6.07352
307 1 6.11606 8.57173 3.80621
354 2 7.32465 10.321 1.82301
363 2 7.94461 13.8228 7.86994
318 2 6.21286 9.18517 2.82346
319 2 6.65073 9.04647 4.79083
320 2 5.07031 8.15489 4.00914
41 4 5.30285 13.7309 1.95438
357 3 6.38399 13.0738 0.786415
334 1 8.82778 10.2573 3.11654
35 4 1.78011 11.5342 0.272811
336 2 7.76245 9.66354 3.37913
347 1 9.04107 7.91451 0.880524
349 2 8.86238 7.50576 1.94057
350 2 8.17516 8.51042 0.413235
351 1 6.36014 10.2872 0.975818
352 2 6.38914 9.4116 0.224765
353 2 5.37092 10.3568 1.53787
315 2 8.50776 8.06661 3.65856
329 2 8.76224 12.5182 6.81874
38 4 1.79206 11.6415 5.79269
136 3 2.5028 10.2033 0.880443
288 2 6.2455 7.28568 6.65884
19 4 0.432746 13.884 2.05022
94 1 7.20575 7.21226 7.27618
269 2 3.81031 7.86454 6.7574
17 4 9.23497 11.787 15.2067
295 2 8.44977 11.6085 10.1555
291 2 7.3281 10.8451 8.82457
57 4 6.51831 12.2069 17.0221
59 4 4.0178 12.0219 9.85895
61 4 7.97923 9.58976 13.4625
62 4 3.86762 12.0379 15.1931
63 4 6.47389 11.8793 11.5626
83 1 5.66972 7.87489 10.8542
92 1 11.1448 7.80715 10.9928
96 1 7.68092 9.80589 9.0483
97 1 7.94798 12.5465 10.4849
183 3 4.60202 13.4026 9.05851
182 3 3.39636 10.9292 8.84336
181 3 7.84299 12.129 16.1159
47 4 5.35354 14.1581 13.4356
184 3 2.76481 12.3275 11.0445
189 3 7.27503 8.37867 14.3395
190 3 8.8379 8.58314 12.3576
191 3 8.83947 10.6419 14.2731
192 3 3.77062 10.7624 14.0613
193 3 5.18377 11.9345 16.1584
194 3 4.12108 13.3893 14.3635
195 3 2.4778 12.1891 16.1008
196 3 5.2325 11.4163 10.6836
197 3 6.99204 10.4887 12.5649
198 3 6.12653 13.0922 12.4963
256 2 5.25062 8.3473 9.94332
176 3 5.3634 7.50856 15.9205
258 2 5.84096 8.76602 11.6573
330 2 8.96989 12.5514 8.73355
296 2 8.63082 13.1208 11.1976
292 2 8.7266 9.79186 9.4368
293 2 6.94947 9.19888 9.7372
294 2 7.54801 13.2468 9.56757
285 2 8.17714 7.45909 9.89316
55 4 9.57992 7.28668 11.9021
281 2 10.8168 7.21029 10.0233
257 2 6.74436 7.27112 10.6029
234 2 10.1505 10.6519 11.2671
ITEM: TIMESTEP
200
ITEM: NUMBER OF ATOMS
366
ITEM: BOX BOUNDS xy xz yz pp pp pp
-7.5979030999999999e+00 1.5901800000000000e+01 -7.5979030999999999e+00
0.0000000000000000e+00 1.4340199999999999e+01 1.7780000000000001e-01
0.0000000000000000e+00 1.7246500000000001e+01 4.3709999999999999e-01
ITEM: ATOMS id type x y z
115 3 7.14854 0.886454 0.860624
5 4 1.02382 2.23034 5.83641
9 4 0.118815 4.02779 1.66724
11 4 -0.147119 4.96454 7.19845
27 4 1.34575 6.78468 3.22622
29 4 5.02924 4.01463 8.1038
64 1 2.32903 2.9333 4.6207
69 1 -1.75458 5.39873 5.92206
70 1 1.15514 6.52137 7.11466
76 1 5.26229 1.59442 4.95711
77 1 2.90027 6.43044 4.44302
79 1 3.77831 5.19404 7.236
98 3 -0.190497 1.63511 4.95559
99 3 1.93191 1.21603 6.65225
102 3 -0.73126 3.06282 2.71051
103 3 1.29143 3.16577 1.08769
104 3 -0.750691 4.72644 0.415736
105 3 0.444919 3.59697 6.7117
210 2 -1.71388 6.47113 2.71746
124 3 0.722541 5.26695 2.67364
310 3 4.34723 5.50561 0.676873
199 2 2.88108 2.06414 3.89771
200 2 2.99245 3.44323 5.28141
201 2 1.78645 3.68307 3.98653
10 4 -1.35718 6.26133 0.22924
355 3 1.72718 0.690446 0.685737
215 2 -1.37505 5.01556 4.97225
216 2 -2.19744 6.40643 5.91973
218 2 1.77411 6.4162 6.12142
219 2 1.79621 6.39058 8.07506
235 2 5.08679 0.572884 5.51608
236 2 5.72817 1.38072 3.92866
237 2 4.17429 2.14265 4.83516
238 2 3.56399 6.51987 3.4565
239 2 2.89699 5.42178 4.86466
241 2 -0.666591 6.72915 4.8877
244 2 2.73995 4.84995 7.60171
245 2 3.85571 5.11852 6.11246
246 2 3.9734 6.36806 7.43355
305 1 4.34285 3.96019 2.93157
324 1 3.6559 0.645261 2.65712
312 2 4.74338 3.14977 3.69934
313 2 3.55477 3.49347 2.22488
314 2 3.76234 4.90412 3.55367
326 2 3.56711 1.71784 2.3838
118 3 7.34335 0.861415 6.81615
126 3 6.07272 3.29651 6.87473
23 4 6.79715 2.09742 5.96175
20 4 6.51514 2.20485 0.0137158
325 2 3.39302 0.460428 3.71408
358 2 4.63736 0.135212 2.29345
3 4 1.54892 2.45164 17.0793
8 4 1.1991 2.13417 11.875
212 2 -1.99014 4.93522 8.90245
22 4 3.57057 1.93017 10.0094
25 4 4.07598 2.4595 15.4046
26 4 6.23162 2.34413 11.4998
30 4 5.33388 4.83753 13.4302
253 2 3.91491 6.08316 9.7244
65 1 -0.606269 1.74086 11.182
66 1 1.19743 3.90308 12.642
68 1 -0.848917 4.76308 8.88194
81 1 1.00651 6.2708 14.4346
82 1 3.10599 6.49408 10.371
100 3 0.219686 2.25298 16.119
101 3 1.73132 0.987473 12.9808
106 3 -2.55712 6.73588 16.5904
116 3 3.11719 0.438064 9.18855
117 3 2.13635 2.418 10.6207
119 3 3.89991 1.02159 14.6882
120 3 5.28113 2.28687 16.5195
121 3 2.76811 2.91217 16.1524
122 3 4.79204 1.83935 11.1066
123 3 6.80641 1.37749 12.7144
127 3 4.6401 3.7052 14.363
131 3 4.38747 5.88128 12.7693
202 2 -0.717188 2.28812 10.2094
255 2 2.47975 5.68809 10.9304
333 2 -1.5213 4.57745 15.1057
205 2 2.14386 4.40688 12.2907
206 2 1.32684 3.79084 13.7978
207 2 0.354313 4.52823 12.3209
252 2 1.3608 6.55004 13.3471
129 3 2.84046 7.16773 16.3279
213 2 -0.176945 5.65864 9.37324
332 2 -0.529566 3.81547 13.676
331 1 -1.45866 3.78035 14.3374
250 2 -0.0804852 6.0947 14.5858
251 2 1.60074 5.4062 14.7799
125 3 4.23687 2.97588 8.99087
211 2 -0.593694 3.73267 9.30532
28 4 4.25106 7.28256 17.1058
24 4 7.89529 0.513092 13.5698
1 4 -5.30223 13.6004 1.73735
221 2 -2.01038 7.48068 8.11042
14 4 -2.26042 9.73425 7.7007
15 4 -3.6096 11.8455 5.71463
338 2 -3.91816 9.09237 1.8013
34 4 -1.01031 11.8057 3.91632
337 1 -3.65666 9.32124 0.72464
67 1 -2.00755 7.10361 1.83123
71 1 -3.02556 8.02469 8.19181
72 1 -0.635863 9.19846 6.7226
78 1 0.0989067 7.54324 4.32501
84 1 -1.47354 10.1074 3.00309
328 2 -5.42695 11.5826 7.85647
107 3 -6.53007 12.9211 2.85247
108 3 -4.56225 12.2338 1.0403
109 3 -5.12254 11.6247 4.89905
110 3 -3.24737 10.5035 6.69598
111 3 -3.8366 13.0932 6.71231
132 3 1.89555 7.95128 2.27478
134 3 -0.572593 12.7398 2.75678
135 3 -2.40106 12.1217 4.64223
339 2 -2.54966 9.72817 0.609492
141 3 0.311541 11.4117 4.83895
142 3 2.3443 10.2034 6.43067
222 2 -3.63966 7.81413 7.27975
209 2 -1.5478 8.0831 1.86081
217 2 0.475202 7.56529 7.09024
327 1 -6.22551 12.5325 7.87867
240 2 3.19352 7.22568 5.20725
223 2 -0.650779 8.21216 6.21662
224 2 0.223986 9.14807 7.59445
225 2 -0.344233 10.0185 6.01584
4 4 -4.84903 13.8178 7.65568
242 2 -0.494698 8.36437 3.80135
243 2 0.968866 8.0031 5.06022
259 2 -0.419223 9.73308 2.80527
260 2 -2.15059 10.2827 2.09542
261 2 -1.9616 9.57962 3.88805
262 2 -0.520647 10.7514 1.31467
264 2 1.3026 7.96943 8.60366
85 1 -0.20248 11.0848 0.216338
208 2 -3.14649 7.15036 1.61725
21 4 0.494946 13.6671 7.84718
136 3 2.31451 10.1064 0.659181
139 3 -0.634438 12.8013 8.56052
297 4 -4.37478 11.0042 0.0281265
362 2 -0.553276 12.1345 0.0297247
6 4 -4.83489 13.9431 13.8068
16 4 -2.158 9.13712 13.4886
18 4 -3.3908 11.7008 11.9216
31 4 1.52154 7.62794 15.6326
37 4 -1.01894 11.7986 9.84474
40 4 1.36878 11.8425 11.6687
365 2 -4.54464 8.99293 10.9699
73 1 -0.711214 8.34298 12.5798
74 1 -1.09403 9.85775 14.9216
75 1 -4.7517 11.0196 10.7495
86 1 1.52097 9.02265 9.13372
112 3 -3.05134 8.0866 14.2622
113 3 -2.92433 10.3418 12.7231
114 3 -3.8576 12.9613 12.786
282 2 -3.706 7.44474 11.8593
130 3 -0.123306 7.72986 16.7384
138 3 -1.69948 10.4301 9.02305
140 3 -2.19674 12.238 10.8661
144 3 1.8119 9.00677 14.8797
145 3 3.3233 8.38145 12.5833
146 3 0.328801 11.3381 10.5492
147 3 1.61414 10.7065 12.7902
148 3 0.820383 13.1856 12.5821
227 2 -0.099402 7.52867 13.2618
228 2 -0.144148 9.24809 12.2796
229 2 -1.70476 10.7933 15.4736
230 2 -0.151294 10.18 14.3833
231 2 -0.761633 9.04039 15.7556
232 2 -4.38188 10.3403 9.93048
233 2 -5.00646 12.0775 10.3359
220 2 -3.55711 7.98184 9.16506
254 2 2.44464 7.40746 9.9253
263 2 -0.40882 10.7993 16.6281
226 2 -1.40426 7.91386 11.7444
265 2 0.697449 9.76757 8.95126
266 2 1.66051 8.86592 10.2462
267 2 3.84789 7.58445 8.81767
298 1 -2.81884 12.3284 16.1207
299 3 -5.50908 10.9541 16.4941
300 2 -2.90293 11.9407 15.0485
301 2 -1.78206 12.0531 16.5754
302 2 -3.03779 13.4929 16.1427
340 1 -0.717245 13.6482 15.0083
39 4 2.6427 9.73538 13.6486
342 2 -0.613925 12.5645 14.7276
341 2 -0.195191 13.9291 15.9491
356 3 -5.70132 12.9997 14.757
343 2 -1.76315 14.0282 14.9673
32 4 4.1748 7.26369 11.835
361 2 -3.75098 8.92736 17.2027
2 4 14.2308 2.00221 3.88936
91 1 10.938 5.36593 8.59921
317 2 9.22954 6.57016 4.8293
364 2 12.2511 4.13305 3.61089
42 4 9.27485 2.13719 3.8314
46 4 11.8219 2.00296 5.66566
50 4 10.5337 4.17743 1.79986
52 4 10.1269 3.93683 7.54639
89 1 11.7034 4.99581 3.13643
90 1 9.15182 4.88176 6.12093
43 4 11.5787 1.93412 0.107408
273 2 12.3837 5.77536 2.72062
149 3 13.6588 0.843985 2.98424
150 3 8.81579 0.896379 2.92622
151 3 8.09194 2.57608 4.99727
153 3 11.7631 0.599268 1.00512
156 3 13.0246 2.76027 4.7314
157 3 10.663 1.74933 4.62065
158 3 12.4283 0.657866 6.45333
165 3 9.66115 3.37746 2.84699
166 3 11.5685 3.19514 1.05803
168 3 9.73986 5.22447 0.827754
170 3 11.314 3.15022 6.86239
278 2 10.3363 6.31673 8.3331
274 2 11.0207 5.50777 3.93384
275 2 9.47983 4.37892 5.20931
276 2 9.40868 5.9867 6.06114
277 2 7.96958 4.65276 6.31309
279 2 11.987 5.37343 8.24351
287 2 7.94876 6.33326 6.88553
345 2 14.534 1.45799 7.43357
306 1 8.78065 6.82173 3.82819
304 4 6.82531 6.79177 3.73732
303 4 5.51977 4.66398 1.67317
308 1 5.92774 5.60297 5.1189
309 3 6.20635 3.36367 1.07534
311 3 6.34637 5.91528 2.46562
316 2 9.14119 6.20588 3.00074
344 1 14.587 0.598898 8.24067
322 2 5.35659 6.26976 5.82901
323 2 6.88092 5.18629 5.64736
169 3 9.14863 3.18868 8.61588
321 2 5.30987 4.88716 4.45714
286 2 7.02361 7.0477 8.30153
214 2 13.309 4.57994 6.4183
7 4 14.3048 2.22504 15.3536
12 4 12.0066 6.81889 15.3696
346 2 14.6111 1.06184 9.32362
283 2 7.73476 5.7602 10.7401