ITEM: TIMESTEP
0
ITEM: NUMBER OF ATOMS
366
ITEM: BOX BOUNDS xy xz yz pp pp pp
-7.5839999999999996e+00 1.5901800000000000e+01 -7.5839999999999996e+00
0.0000000000000000e+00 1.4340199999999999e+01 1.7780000000000001e-01
0.0000000000000000e+00 1.7246500000000001e+01 4.3709999999999999e-01
ITEM: ATOMS id type q x y z
355 3 -0.804625 1.50076 0.521964 0.532019
5 4 1.36805 0.896395 2.27807 5.65088
9 4 1.5468 0.0821825 4.14559 1.73214
11 4 0.944122 -0.480083 4.77406 7.14291
27 4 1.12301 1.48474 6.61955 3.40432
29 4 1.19128 5.30081 4.16946 8.0214
64 1 -0.656747 2.18886 2.93148 4.40288
69 1 -0.653786 -1.99992 5.37755 6.08486
70 1 -0.65491 0.789375 6.28133 7.06941
76 1 -0.699046 5.63011 1.45689 4.51825
77 1 -0.656122 3.00748 5.99498 4.46895
79 1 -0.662647 4.60732 5.8134 7.27458
98 3 -0.747173 -0.150202 1.53578 4.62051
99 3 -0.834303 1.73376 1.37588 6.68632
102 3 -0.83032 -0.973179 3.42744 2.77066
103 3 -0.835666 0.921961 3.00982 1.08151
104 3 -0.806 -0.889811 4.8776 0.566553
105 3 -0.800349 0.188313 3.5361 6.41912
245 2 0.164665 4.02384 5.86903 6.22153
124 3 -0.798035 1.02769 5.23112 2.65982
324 1 -0.689364 4.04892 0.506232 1.99587
199 2 0.221863 1.7077 2.70425 3.3625
200 2 0.17242 3.09317 2.27122 4.60217
201 2 0.199502 2.45536 4.06841 4.41888
210 2 0.18189 -1.60259 6.50279 2.63642
326 2 0.162032 3.6333 0.872842 3.01095
215 2 0.227309 -1.9691 5.06441 5.00784
216 2 0.127478 -2.31883 6.49341 6.2617
218 2 0.164267 1.59415 6.20802 6.23892
219 2 0.140417 1.28002 6.10529 8.0911
235 2 0.270512 4.86376 0.881776 5.1595
236 2 0.225387 6.23675 0.853995 3.8752
237 2 0.155026 5.09252 2.30532 3.82769
238 2 0.169378 3.5435 5.16184 3.80393
239 2 0.134472 2.56047 5.4895 5.49995
241 2 0.190053 -0.677455 6.52754 5.07559
244 2 0.155655 3.94207 6.16288 8.12168
118 3 -0.856028 7.09588 0.833184 6.82249
358 2 0.209856 4.28154 1.30331 1.22954
305 1 -0.679845 4.26784 3.69625 2.58417
310 3 -0.804082 4.21145 5.62094 0.714996
312 2 0.169212 4.18212 2.47536 2.30854
313 2 0.238447 3.34036 4.26636 2.3606
314 2 0.140541 4.68862 3.92193 3.56828
240 2 0.153192 3.58979 6.98909 4.60783
115 3 -0.827386 7.06427 1.15242 0.681986
4 4 1.35533 2.78358 0.412148 7.43066
10 4 1.2334 -1.33982 6.3592 0.112294
126 3 -0.770029 6.02972 3.33984 6.78181
23 4 1.36973 6.83424 2.07108 5.83688
309 3 -0.826747 5.94249 3.47681 0.451397
254 2 0.156688 1.78623 6.16558 10.3054
8 4 1.18712 1.52517 2.24656 11.9745
331 1 -0.664792 -1.31696 3.73529 14.4169
22 4 1.52762 3.72735 2.11072 9.8709
25 4 1.51901 3.93188 2.16595 15.3881
26 4 1.54472 6.2666 2.28381 11.4362
333 2 0.230324 -1.57377 4.57411 15.1685
32 4 1.10091 3.63785 7.04311 11.7661
65 1 -0.653588 -0.274771 2.58151 11.5186
66 1 -0.695268 1.68402 3.84059 13.3459
253 2 0.181973 1.64225 5.41315 12.0447
81 1 -0.673605 0.894184 6.40072 14.5714
82 1 -0.65051 1.76834 6.379 11.4218
100 3 -0.792218 -0.133047 2.17887 16.1919
101 3 -0.80762 1.62106 0.78174 12.6513
106 3 -0.828899 -2.5415 6.81272 16.3336
116 3 -0.794109 3.24633 0.809594 8.95331
117 3 -0.829391 2.40739 2.53835 10.686
119 3 -0.884051 3.22308 0.923567 14.7006
120 3 -0.884612 5.15489 1.91916 16.3604
121 3 -0.831974 2.46579 2.87641 16.0884
122 3 -0.837897 4.97788 1.62933 10.8343
203 2 0.16879 -0.737879 2.99541 12.5759
127 3 -0.755491 4.52822 3.43356 14.2077
131 3 -0.780692 4.14571 5.60602 12.7271
202 2 0.170755 -0.558534 3.34746 10.6195
123 3 -0.835663 6.91647 1.28458 12.6858
332 2 0.16876 -0.181272 3.71977 14.0228
205 2 0.263296 2.63873 4.41025 13.0454
206 2 0.261117 1.83707 3.39071 14.3943
207 2 0.156707 0.818059 4.4488 13.1098
251 2 0.168347 1.26725 6.43837 13.368
212 2 0.158365 -1.07669 5.62805 9.60061
211 2 0.165503 -1.79617 3.8412 9.35243
68 1 -0.668937 -0.970013 4.62733 9.10147
125 3 -0.825374 4.28267 3.43802 8.8885
250 2 0.208741 1.25003 5.44021 15.053
252 2 0.160347 -0.214208 6.44148 14.6001
30 4 1.51597 5.37151 4.72261 13.3343
3 4 1.57622 1.31786 2.35994 17.0612
213 2 0.155114 0.160258 4.14957 9.2884
20 4 1.65462 6.57054 2.56911 16.893
255 2 0.162771 0.883709 7.20103 11.7411
1 4 1.36584 -5.20132 13.4838 1.54753
338 2 0.162083 -3.73399 9.43146 1.7968
14 4 1.14648 -2.19746 9.96496 7.6473
15 4 1.55912 -3.44613 12.2681 5.63247
262 2 0.155203 -0.560549 10.9392 0.492381
34 4 1.37244 -0.856841 11.9384 3.686
361 2 0.205439 -3.63873 8.54178 0.204788
328 2 0.183921 -4.99825 12.0625 7.78813
71 1 -0.659219 -3.4227 8.52449 7.95911
72 1 -0.675241 -0.773296 9.18961 6.65517
78 1 -0.679311 0.130945 7.15658 4.51161
84 1 -0.679855 -1.30588 10.2254 2.94151
208 2 0.18289 -3.01357 7.24846 1.6998
107 3 -0.788053 -6.09072 13.1578 2.93633
108 3 -0.844752 -4.53555 12.1803 0.887666
109 3 -0.812371 -4.67053 11.7556 4.83624
110 3 -0.802618 -3.03154 11.0923 6.81396
111 3 -0.841447 -3.64902 13.7125 6.35219
132 3 -0.78329 2.22426 7.97342 2.65143
134 3 -0.876417 -0.739987 12.9502 2.44821
135 3 -0.798327 -2.27525 12.366 4.59381
337 1 -0.700307 -3.43933 9.50648 0.724439
141 3 -0.854789 0.353347 11.7011 4.67445
142 3 -0.820768 1.77171 10.4877 6.47704
222 2 0.15961 -4.33657 8.6312 7.13656
209 2 0.173873 -1.37896 8.05647 1.68272
217 2 0.157746 0.185759 7.26462 6.99845
221 2 0.127568 -2.59568 7.77939 7.62711
264 2 0.142379 1.17663 7.88195 8.28086
223 2 0.133122 -1.39163 8.32874 6.37298
224 2 0.201786 0.0934548 8.96511 7.4251
225 2 0.238456 -0.49417 9.92456 5.85906
13 4 1.32495 -6.31095 11.9969 4.02984
242 2 0.158771 -0.377954 7.86149 3.7923
243 2 0.178974 0.718193 7.78193 5.19703
259 2 0.176103 -0.279341 9.99574 2.43895
260 2 0.178958 -2.14721 10.0619 2.18983
261 2 0.159173 -1.49439 9.62072 3.86921
339 2 0.129253 -2.29363 9.83736 0.514973
329 2 0.226156 -6.55533 12.6702 6.93437
327 1 -0.683261 -5.92864 12.7531 7.85404
67 1 -0.683339 -1.93048 7.05461 1.74122
325 2 0.260675 -2.64794 13.7318 2.08369
290 2 0.193148 -5.03291 9.55909 6.31908
21 4 1.68605 0.417834 13.9574 7.79539
6 4 1.57804 -5.00894 13.8008 13.6557
16 4 1.16258 -2.08693 9.11001 13.366
18 4 1.38948 -3.15738 11.7844 11.8656
31 4 1.30885 1.42656 7.87057 15.6955
37 4 1.56245 -0.753772 11.8269 9.89697
342 2 0.237948 -1.66708 13.3476 14.0925
226 2 0.164301 -1.04603 7.89903 11.6204
73 1 -0.672198 -0.542808 8.43143 12.4274
74 1 -0.679545 -1.46484 9.68738 15.0479
75 1 -0.676756 -4.61102 11.3859 10.6537
86 1 -0.676904 1.48943 8.88028 8.87586
112 3 -0.77657 -3.06912 7.91358 13.8173
113 3 -0.80779 -2.75402 10.3641 12.5528
114 3 -0.809996 -3.77247 12.9346 12.8785
282 2 0.213973 -3.94692 7.82227 11.5529
130 3 -0.798076 0.255304 7.9905 16.8154
138 3 -0.787379 -1.43743 10.531 8.95561
140 3 -0.800573 -1.94887 12.2954 10.9152
144 3 -0.830218 1.57057 9.1694 14.5846
85 1 -0.683835 0.389336 11.0128 16.9959
146 3 -0.850715 0.498375 11.2013 10.6364
365 2 0.199791 -4.68627 9.35809 10.8316
220 2 0.177374 -3.75716 8.42601 9.0987
330 2 0.169474 -6.58751 12.6044 8.86259
228 2 0.226499 0.0655568 9.32499 12.0161
229 2 0.165428 -1.74852 10.7811 15.4426
230 2 0.232129 -0.308307 9.60453 14.9811
231 2 0.206209 -1.94328 8.88492 15.6667
356 3 -0.832109 -6.06551 12.6704 14.1641
233 2 0.180084 -4.2945 10.8262 9.73919
234 2 0.208345 -4.90613 12.4553 10.4071
297 4 1.18866 -3.87886 11.5694 17.1231
263 2 0.262608 0.388304 9.83719 16.9153
301 2 0.153014 -1.38911 12.033 16.5023
265 2 0.259326 0.657959 9.54802 9.17264
266 2 0.168385 2.26625 8.71542 9.64763
227 2 0.165645 0.0734612 7.67481 13.2238
298 1 -0.678265 -2.39077 12.525 16.1885
299 3 -0.785583 -4.97732 11.2578 15.9592
300 2 0.201051 -2.73514 12.2827 15.1379
362 2 0.176952 0.273345 11.4622 15.9494
302 2 0.244452 -2.53253 13.5955 16.5408
340 1 -0.670348 -0.625597 13.028 14.2228
341 2 0.180202 -0.466986 11.9423 13.9097
129 3 -0.792821 2.91168 7.45572 16.3572
343 2 0.180037 -0.180559 13.166 15.296
139 3 -0.836872 -0.362082 13.0487 8.8296
232 2 0.192144 -5.39489 10.8187 11.2532
39 4 1.53857 2.8043 9.6969 13.6234
145 3 -0.764988 3.55161 8.39437 12.6688
257 2 0.133975 3.88177 7.48957 9.41964
147 3 -0.856815 2.23347 10.7767 12.6012
2 4 1.57484 14.1648 2.18052 3.63264
19 4 1.62243 7.91131 0.091174 1.77289
345 2 0.209711 14.8368 1.71169 7.74654
322 2 0.176642 5.88677 5.55472 5.68834
42 4 1.56569 9.30479 1.98573 3.78106
46 4 1.56137 11.8886 1.9274 5.61004
50 4 1.34708 10.5497 4.31466 1.92132
52 4 1.14278 10.3998 4.0541 7.66838
89 1 -0.671674 11.8116 5.18631 3.09812
90 1 -0.677163 9.68037 5.28161 6.25706
214 2 0.193985 12.948 4.69321 6.65302
286 2 0.155604 7.92318 6.76345 8.32023
149 3 -0.845761 13.4155 1.09537 2.80208
150 3 -0.903501 8.63488 0.962164 2.81475
151 3 -0.823922 8.157 2.53146 5.0873
153 3 -0.788885 11.5806 0.672785 0.958459
156 3 -0.815413 13.1029 2.75551 4.74259
157 3 -0.835786 10.6892 1.65189 4.51964
158 3 -0.82446 12.5336 0.763109 6.51285
165 3 -0.816007 9.66669 3.39413 2.87513
166 3 -0.827273 11.3856 3.34426 1.01784
168 3 -0.773203 9.8772 5.63539 0.774334
170 3 -0.79902 11.3079 2.96948 6.83756
273 2 0.154985 11.5687 6.28222 3.02505
274 2 0.196457 11.5691 4.60226 4.11845
275 2 0.145199 10.4691 5.85494 5.71078
276 2 0.170624 8.82079 5.99584 6.71736
277 2 0.213784 9.28259 4.41027 5.59705
303 4 1.31708 5.41339 4.66849 1.35792
287 2 0.14837 7.20821 6.63839 6.38825
278 2 0.14555 11.4469 6.07905 7.75858
364 2 0.240309 12.7465 4.8621 2.50473
304 4 0.943964 7.12254 6.66537 3.412
344 1 -0.655997 14.7641 0.729416 8.33075
308 1 -0.635392 6.76279 5.36519 4.8624
323 2 0.178051 7.88765 5.30525 5.37171
311 3 -0.758108 6.60157 5.79237 2.19217
316 2 0.179649 9.48295 6.0825 3.50686
321 2 0.200921 6.50486 4.47139 4.27882
246 2 0.145123 5.70001 6.46815 7.21731
91 1 -0.646222 11.6104 5.25559 8.61187
7 4 1.46658 14.1176 2.13256 15.4151
24 4 1.4514 8.0555 0.411896 13.3037
346 2 0.161844 14.4987 0.96978 9.44031
12 4 1.52444 12.0574 6.90836 15.2377
284 2 0.182629 8.24667 5.93472 10.5096
45 4 1.61542 8.82336 2.32451 9.72141
283 2 0.197808 7.05949 7.18098 11.4474
48 4 1.59758 9.22404 2.61865 15.1322
49 4 1.41905 11.24 2.50431 11.6083
51 4 1.4014 9.56483 7.12795 16.8979
53 4 1.57762 10.6862 4.85779 13.4365
249 2 0.270175 6.3017 4.5856 10.398
80 1 -0.690118 6.54867 4.90127 9.28937
88 1 -0.649119 12.4862 2.63486 10.1215
128 3 -0.822739 6.08338 4.02575 12.0959
93 1 -0.668838 8.00401 7.03387 10.8254
248 2 0.266194 7.54364 4.3981 9.09641
152 3 -0.872035 12.8775 2.33939 16.3364
258 2 0.185442 5.32104 6.37664 9.8848
155 3 -0.896879 7.39403 2.51261 10.3125
159 3 -0.84399 13.8818 1.06767 14.2668
160 3 -0.823384 9.00344 1.23615 14.3864
161 3 -0.853477 10.2547 2.36328 16.4073
162 3 -0.792413 7.57316 2.93417 15.7655
163 3 -0.882371 9.90578 2.2552 10.8469
164 3 -0.839145 11.921 1.27222 12.4309
279 2 0.160692 12.8609 5.01404 8.7768
154 3 -0.815329 8.94109 0.982366 8.70105
171 3 -0.85996 9.69194 3.89441 14.179
172 3 -0.832431 11.5589 4.01703 12.2871
173 3 -0.797722 11.8241 5.41732 14.6079
174 3 -0.760603 6.48345 5.58497 14.2668
175 3 -0.806034 8.25363 6.82459 15.8941
177 3 -0.851485 10.0022 6.17418 12.841
247 2 0.167152 6.56035 6.00918 9.17286
280 2 0.171801 11.1074 5.61188 9.58892
270 2 0.227202 12.1792 1.65611 9.56904
271 2 0.173394 13.6029 2.66464 10.5575
272 2 0.189507 12.294 3.58106 9.46619
359 2 0.216915 13.6085 3.74107 13.5972
54 4 1.62357 6.80705 7.02943 15.1313
204 2 0.190169 15.1617 1.4603 11.3356
169 3 -0.836664 9.24655 3.67585 8.74462
176 3 -0.877494 5.60173 7.33767 16.1251
43 4 1.67999 11.5736 2.47571 17.2432
33 4 1.50169 3.31112 9.16339 2.09388
363 2 0.199817 8.18203 13.8821 8.09473
315 2 0.18004 9.3947 7.6158 2.52879
44 4 1.43292 5.68447 13.6677 7.61109
56 4 1.59904 4.27493 11.4722 3.77347
58 4 0.926775 8.27833 9.0609 7.14644
60 4 1.54237 6.85561 11.6465 5.6565
87 1 -0.665689 4.25983 8.96254 6.72602
94 1 -0.676427 7.47106 7.31504 7.41929
95 1 -0.663204 9.85681 8.90056 5.92594
133 3 -0.794519 4.28968 8.39981 0.82003
269 2 0.153481 4.34303 7.7749 6.92963
357 3 -0.819904 6.06702 13.0918 0.711641
143 3 -0.787894 1.39866 13.0469 6.76887
178 3 -0.869671 4.21013 9.88523 3.08432
179 3 -0.847065 4.55118 12.6448 2.72378
180 3 -0.862956 2.89761 11.9211 4.65972
354 2 0.191345 6.64405 10.7973 2.01015
185 3 -0.840492 8.18481 12.2606 5.00874
186 3 -0.849897 5.59563 11.4519 4.65955
187 3 -0.798548 7.29234 10.026 6.34582
188 3 -0.865409 6.41441 12.517 6.89645
267 2 0.241093 5.27282 9.49088 6.79401
35 4 1.36957 1.72992 11.5171 0.344303
289 2 0.147306 10.1365 7.83172 5.93102
38 4 1.62294 1.7045 11.8262 5.60525
307 1 -0.646473 6.4609 8.45394 3.7621
41 4 1.66855 5.14117 13.8144 1.79043
317 2 0.154773 9.23251 7.63669 4.48312
318 2 0.207513 6.51606 9.08793 2.80727
319 2 0.228282 6.77044 8.9678 4.73185
182 3 -0.811702 3.58402 10.8754 8.47744
306 1 -0.670209 8.97682 7.06677 3.43321
366 2 0.181136 9.51967 9.33526 4.86875
334 1 -0.691213 9.06209 10.3292 3.13298
335 2 0.184444 9.04456 10.7252 2.0196
336 2 0.161388 8.09667 9.56428 3.3801
347 1 -0.675279 9.29473 8.4006 0.551724
349 2 0.212102 10.4013 8.75799 0.567169
350 2 0.155145 8.7543 8.43376 1.57841
351 1 -0.689158 6.565 10.2395 1.07572
352 2 0.155931 7.60511 9.57188 0.839864
353 2 0.286058 5.62067 9.56607 1.0015
320 2 0.157971 5.32629 7.89792 3.96276
36 4 1.15794 2.78399 9.84345 7.64206
137 3 -0.807539 1.25742 12.9935 0.948026
360 2 0.168779 10.0151 9.84669 3.35993
288 2 0.151581 6.50277 7.84189 7.77226
291 2 0.17499 9.24515 10.873 8.46447
268 2 0.177769 3.7969 9.10008 5.70021
136 3 -0.804691 2.37676 10.3541 1.37935
17 4 1.58126 9.2378 11.6595 15.332
296 2 0.210612 8.73554 12.5767 11.213
348 2 0.20413 8.85576 9.32289 16.9565
47 4 1.6218 5.20701 14.1468 13.3076
59 4 1.55852 4.19267 11.9383 9.63332
61 4 1.574 7.85139 9.5533 13.5883
62 4 1.63126 4.14784 12.0036 15.2478
63 4 1.43162 6.48273 11.7669 11.5861
83 1 -0.686372 4.66173 7.24812 10.231
92 1 -0.66596 10.9472 8.21475 10.9405
281 2 0.138338 10.7213 7.64245 10.005
97 1 -0.671434 7.95767 12.3051 10.458
295 2 0.173463 8.2789 11.3302 9.82722
96 1 -0.665996 8.99046 9.76674 8.76365
181 3 -0.843497 8.22598 12.2247 16.5637
57 4 1.43681 6.76436 12.1647 17.1137
184 3 -0.825126 2.87659 12.3178 10.5267
189 3 -0.821026 6.94648 8.19191 14.0441
190 3 -0.7949 9.13023 8.8318 12.8168
191 3 -0.860347 8.51959 10.3102 14.8116
192 3 -0.784533 3.91377 10.4872 14.5679
193 3 -0.838483 5.47285 11.864 16.1535
194 3 -0.837877 4.24477 13.2328 14.1863
195 3 -0.786667 2.8001 12.1471 16.1429
196 3 -0.824477 5.40799 11.1417 10.5902
197 3 -0.825215 7.07628 10.5945 12.5442
198 3 -0.842917 6.07273 13.0982 12.3465
256 2 0.194348 5.29945 8.13987 10.6747
148 3 -0.825419 1.35523 13.2999 12.3634
294 2 0.173563 7.66055 13.1756 9.71773
292 2 0.167735 9.75431 9.28031 9.48878
183 3 -0.842024 4.77985 13.2656 8.91729
55 4 1.22322 9.50266 7.48327 12.1158
293 2 0.139451 7.86117 9.62683 9.26145
28 4 1.60875 4.38062 7.40703 17.0726
40 4 1.61407 1.77608 11.9487 11.5676
285 2 0.155535 8.12371 7.78588 10.0027
167 3 -0.826781 10.8106 7.52845 16.0202
ITEM: TIMESTEP
100
ITEM: NUMBER OF ATOMS
366
ITEM: BOX BOUNDS xy xz yz pp pp pp
-7.5688319999999987e+00 1.5869996400000002e+01 -7.5688319999999987e+00
0.0000000000000000e+00 1.4340199999999999e+01 1.7744440000000061e-01
0.0000000000000000e+00 1.7246500000000001e+01 4.3709999999999999e-01
ITEM: ATOMS id type q x y z
355 3 -0.847992 1.61356 0.664548 0.698817
5 4 1.32458 0.840988 2.25021 5.66313
9 4 1.54609 -0.00356107 4.11166 1.70843
11 4 0.929105 -0.469468 4.87693 7.3077
27 4 1.18539 1.56075 6.676 3.26371
29 4 1.19029 5.24593 3.98277 8.03187
64 1 -0.658079 2.22356 2.92126 4.55835
69 1 -0.665248 -1.95359 5.26146 5.98329
70 1 -0.65119 0.823656 6.30831 7.25327
76 1 -0.679558 5.61498 1.51534 4.57953
77 1 -0.674264 2.94938 6.06774 4.5487
79 1 -0.665026 4.69229 5.65214 7.31405
98 3 -0.824912 -0.355076 1.72225 4.67507
99 3 -0.822724 1.69673 1.20616 6.55596
102 3 -0.869893 -1.0321 3.456 2.80017
103 3 -0.825054 0.91912 2.99976 0.99453
104 3 -0.839354 -0.710745 5.01103 0.609794
105 3 -0.753473 0.229514 3.67703 6.5932
245 2 0.17261 4.20536 5.69159 6.27211
124 3 -0.780242 1.00158 5.35956 2.51145
324 1 -0.701197 4.00192 0.62189 2.13034
199 2 0.190805 1.83443 2.55727 3.53572
200 2 0.183757 3.09097 2.26724 4.85395
201 2 0.190627 2.44334 4.09903 4.51636
210 2 0.18267 -1.81772 6.4406 2.53941
326 2 0.16315 3.71087 1.11966 3.09416
215 2 0.226468 -1.5455 4.98328 5.00122
216 2 0.138082 -2.16856 6.3298 6.04703
218 2 0.17034 1.73214 6.06927 6.55303
219 2 0.14123 1.10166 6.14156 8.3892
235 2 0.245094 4.89193 0.916912 5.19973
236 2 0.232519 6.16634 0.748382 3.87966
237 2 0.163086 5.10031 2.46976 4.03359
238 2 0.166426 3.503 5.23208 3.91788
239 2 0.146727 2.65897 5.64593 5.62337
241 2 0.165919 -0.6277 6.46409 5.00091
244 2 0.168751 3.98029 5.95132 8.13093
118 3 -0.815852 7.22091 0.839705 6.91705
358 2 0.196213 4.04239 1.35369 1.29315
305 1 -0.695973 4.26408 3.80209 2.74393
310 3 -0.801478 4.21448 5.67424 0.710851
312 2 0.177774 4.20036 2.70477 2.43586
313 2 0.217731 3.23873 4.35244 2.32831
314 2 0.161359 4.39663 3.93565 3.7956
309 3 -0.831926 5.87885 3.54851 0.508465
115 3 -0.818587 7.00298 0.952678 0.611118
4 4 1.33737 2.70548 0.26538 7.39784
10 4 1.27666 -1.22915 6.46676 0.221832
126 3 -0.785947 5.9494 3.24519 6.72217
19 4 1.56845 7.84678 0.0464876 1.78418
303 4 1.35431 5.32351 4.69952 1.40924
23 4 1.33919 6.83863 2.08594 5.86615
240 2 0.1673 3.56095 6.9746 4.62298
325 2 0.286428 4.96942 0.0596035 2.23114
254 2 0.168404 1.85 6.24589 10.2551
8 4 1.16765 1.4109 2.21013 11.8846
331 1 -0.672035 -1.35831 3.7498 14.4493
22 4 1.54103 3.66361 2.21606 9.85164
25 4 1.53963 3.97163 2.41066 15.3867
26 4 1.57686 6.27262 2.50255 11.44
333 2 0.246566 -1.63122 4.47439 15.3175
32 4 1.20442 3.73539 7.05861 11.9545
65 1 -0.675147 -0.457643 2.4301 11.607
66 1 -0.679387 1.60319 3.80283 13.2292
253 2 0.165311 1.74449 5.38949 11.9927
81 1 -0.676947 0.912641 6.43244 14.4902
82 1 -0.639293 1.8427 6.42845 11.3384
100 3 -0.82943 0.166813 2.10103 16.0801
101 3 -0.823129 1.77752 0.764118 12.4577
106 3 -0.813105 -2.22122 6.72132 16.2169
116 3 -0.776836 3.34286 0.906954 8.83637
117 3 -0.795863 2.21735 2.73392 10.5869
119 3 -0.825651 3.31256 0.969657 14.4942
120 3 -0.876254 5.27348 1.95072 16.1789
121 3 -0.824857 2.74143 3.03058 16.3919
122 3 -0.858631 4.85453 1.97676 10.8895
203 2 0.174858 -0.887196 2.88322 12.6553
127 3 -0.858154 4.42405 3.49228 14.3163
131 3 -0.792513 4.42061 5.9145 12.739
202 2 0.177138 -0.583006 3.19711 10.7208
123 3 -0.8172 7.09288 1.35879 12.5657
332 2 0.156713 -0.205506 3.81976 14.0794
205 2 0.219846 2.5292 4.32324 12.9396
206 2 0.212108 1.57522 3.48894 14.2876
207 2 0.141343 0.655715 4.36399 12.8233
251 2 0.167015 1.2727 6.46688 13.2686
212 2 0.143796 -0.904282 5.62125 9.72341
211 2 0.156702 -1.75404 3.76014 9.5402
68 1 -0.658777 -0.844672 4.56978 9.22868
125 3 -0.815896 3.99604 3.42308 8.81224
250 2 0.199817 1.35124 5.54112 15.0655
252 2 0.178802 -0.204426 6.35343 14.4955
30 4 1.5707 5.3232 4.59779 13.4618
3 4 1.62613 1.42499 2.35524 17.1061
213 2 0.184688 0.264646 4.07462 9.35548
20 4 1.6132 6.56103 2.56084 16.9229
255 2 0.164166 0.921635 7.19808 11.6646
1 4 1.40165 -5.21115 13.5715 1.67929
338 2 0.159355 -3.69983 9.46687 1.82101
14 4 1.13874 -2.17366 9.94878 7.6533
15 4 1.54041 -3.39225 12.1775 5.53011
262 2 0.163678 -0.614501 10.9878 0.666974
34 4 1.35464 -0.891437 11.9151 3.64489
361 2 0.198503 -3.65361 8.5763 0.130433
328 2 0.155058 -5.19887 11.8809 7.79108
71 1 -0.668255 -3.36706 8.44243 7.84142
72 1 -0.661657 -0.630889 9.15386 6.77525
78 1 -0.655801 0.0617762 7.16292 4.27503
84 1 -0.709667 -1.16892 10.1622 2.76278
208 2 0.163313 -3.11901 7.18879 1.39213
107 3 -0.823229 -5.95594 13.1017 2.98258
108 3 -0.81772 -4.6223 12.1735 0.959745
109 3 -0.865347 -4.84633 11.7416 4.96762
110 3 -0.797395 -2.89524 10.9659 6.58418
111 3 -0.802697 -3.62594 13.5458 6.43401
132 3 -0.85593 2.19971 7.92928 2.5846
134 3 -0.847673 -1.02582 13.0932 2.4621
135 3 -0.832291 -2.1128 12.284 4.64113
337 1 -0.676438 -3.45854 9.51279 0.725417
141 3 -0.836738 0.387131 11.8223 4.60855
142 3 -0.804247 1.78037 10.4348 6.50695
222 2 0.162359 -4.23296 8.58343 7.03291
209 2 0.183967 -1.61962 8.28392 2.05298
217 2 0.157317 0.310828 7.3192 7.02698
221 2 0.14176 -2.6425 7.59604 7.6274
264 2 0.149659 1.35595 7.96355 8.37258
223 2 0.146553 -0.827456 8.17533 6.23361
224 2 0.21517 0.189904 9.09384 7.56232
225 2 0.221298 -0.561217 10.0773 6.02493
13 4 1.36373 -6.21485 11.9642 4.12036
242 2 0.171062 -0.574055 7.68778 3.53483
243 2 0.166953 0.675448 7.91522 4.92397
259 2 0.191382 -0.201435 10.0127 2.21795
260 2 0.177033 -2.06733 10.1387 2.14722
261 2 0.15046 -1.29651 9.5746 3.76374
339 2 0.128018 -2.30097 9.93298 0.498906
290 2 0.19612 -5.02733 9.64207 6.31837
327 1 -0.684385 -6.10049 12.7311 7.76084
67 1 -0.689527 -1.95979 7.1911 1.74236
269 2 0.134687 3.57093 7.81528 7.17491
6 4 1.57806 -4.94979 13.7807 13.5575
16 4 1.18079 -2.22574 9.0679 13.2895
18 4 1.34821 -3.16775 11.8888 11.807
31 4 1.38059 1.47959 7.82282 15.6551
37 4 1.57868 -0.807943 11.7049 9.84039
342 2 0.232981 -1.65764 13.743 14.2536
226 2 0.156497 -1.06551 7.8144 11.4805
73 1 -0.670254 -0.59296 8.33827 12.3571
74 1 -0.664691 -1.48351 9.86372 14.7746
75 1 -0.687603 -4.53983 11.3722 10.5369
86 1 -0.670178 1.63329 8.92247 8.99531
112 3 -0.842902 -3.01817 7.74205 13.8857
113 3 -0.78121 -2.81571 10.3404 12.6395
114 3 -0.846408 -3.83951 12.8734 12.8489
257 2 0.117532 3.74654 7.45472 9.71598
130 3 -0.789484 0.16057 8.10351 16.7355
138 3 -0.834026 -1.63896 10.4814 9.08595
140 3 -0.78014 -1.83276 12.4099 10.9567
144 3 -0.822459 1.81677 9.07068 14.7781
85 1 -0.683927 0.286239 11.019 17.116
146 3 -0.859149 0.443667 11.1959 10.7015
365 2 0.177577 -4.6737 9.31487 10.5999
220 2 0.180275 -3.74506 8.42463 8.96733
147 3 -0.893714 2.11046 10.9046 12.7876
228 2 0.20803 0.135943 9.19248 12.0198
229 2 0.180875 -1.77924 10.8901 15.163
230 2 0.198282 -0.3806 9.81862 14.3668
231 2 0.210197 -1.65792 9.08174 15.5237
356 3 -0.840053 -6.04579 12.7025 14.2695
233 2 0.178811 -4.16208 10.6657 9.76948
234 2 0.195498 -4.82453 12.3705 10.1357
297 4 1.13484 -3.96221 11.5861 17.139
263 2 0.278031 0.268701 9.87855 16.9676
301 2 0.144802 -1.39592 11.9216 16.5506
265 2 0.225923 0.700224 9.40189 9.50142
266 2 0.158293 2.45447 8.74255 9.7735
227 2 0.168122 -0.0761502 7.58826 13.1159
298 1 -0.674606 -2.49946 12.4858 16.169
299 3 -0.760513 -5.25052 11.0196 16.1226
300 2 0.192083 -2.79597 12.1828 15.1053
362 2 0.165169 0.151712 11.5576 16.0943
302 2 0.248071 -2.5725 13.5484 16.3784
340 1 -0.662695 -0.608231 13.426 14.5477
341 2 0.188809 -0.459703 12.3423 14.4597
129 3 -0.829757 2.89176 7.45642 16.3054
343 2 0.219179 -0.363647 13.8922 15.5631
139 3 -0.841178 -0.227235 12.7104 8.67768
232 2 0.19246 -5.32278 10.9264 11.2261
39 4 1.56874 2.82506 9.74946 13.5681
145 3 -0.821448 3.27655 8.4873 12.626
2 4 1.58414 14.2115 2.22504 3.69532
246 2 0.16726 5.62109 6.29245 7.38068
345 2 0.197044 14.6094 1.70527 7.62098
322 2 0.18642 5.99534 5.42926 5.77423
42 4 1.52703 9.25632 2.18978 3.79276
46 4 1.5285 11.7234 2.01327 5.57447
50 4 1.30426 10.5856 4.3061 1.80718
52 4 1.1094 10.5014 4.25808 7.69166
89 1 -0.651567 11.7928 5.17993 3.02005
90 1 -0.669784 9.79647 5.32897 6.20457
214 2 0.225998 13.0122 4.52127 6.39174
286 2 0.13549 8.20395 6.7168 8.14007
149 3 -0.785949 13.6054 0.968606 2.68406
150 3 -0.839708 8.54509 1.08041 2.77366
151 3 -0.827011 8.12403 2.64317 4.87173
153 3 -0.781934 11.3961 0.657566 0.944849
156 3 -0.803718 12.9612 2.76847 4.66817
157 3 -0.806851 10.5841 1.46031 4.55121
158 3 -0.80731 12.4514 0.825239 6.43189
165 3 -0.832962 9.73596 3.60665 2.94063
166 3 -0.826787 11.532 3.27098 0.88487
168 3 -0.783516 9.79467 5.72321 0.85199
170 3 -0.811845 11.2097 3.21659 6.67873
273 2 0.161805 11.6427 6.28083 2.9059
274 2 0.203835 11.4518 4.80936 4.07917
275 2 0.148231 10.6476 5.86862 5.72513
276 2 0.160565 8.91242 6.0661 6.63129
277 2 0.217265 9.38088 4.50096 5.54673
321 2 0.211417 6.52392 4.40837 4.2083
287 2 0.163999 7.11271 6.54411 6.49486
278 2 0.136525 11.6674 6.1776 7.86155
364 2 0.232661 12.7947 4.64926 2.59204
304 4 0.943862 7.03011 6.61701 3.55756
344 1 -0.669992 14.7648 0.807597 8.33466
308 1 -0.632252 6.80207 5.31214 4.89175
323 2 0.179344 7.96747 5.21388 5.38273
311 3 -0.749131 6.35038 5.86781 2.2941
316 2 0.20497 9.57943 6.02768 3.78705
306 1 -0.661241 9.05211 6.962 3.58915
7 4 1.41668 14.386 2.04803 15.3355
24 4 1.50972 8.08804 0.444156 13.2742
346 2 0.175371 14.5468 0.841545 9.44706
12 4 1.51874 12.314 6.82963 15.1093
284 2 0.2104 7.73929 5.78674 11.141
45 4 1.58339 8.83523 2.23266 9.72415
43 4 1.63271 11.6502 2.37485 17.2045
48 4 1.61689 9.11053 2.67867 15.1766
49 4 1.40156 11.3908 2.4977 11.6039
51 4 1.3835 9.68409 7.11801 16.862
53 4 1.53142 10.7319 4.77204 13.5098
249 2 0.215341 6.37399 4.75605 10.2328
80 1 -0.683899 6.59231 4.89433 9.14838
88 1 -0.668351 12.4927 2.43316 9.98685
128 3 -0.889555 6.06355 3.8588 12.1961
93 1 -0.647223 7.90084 6.90739 10.951
248 2 0.269393 7.65816 4.36109 8.99295
152 3 -0.809378 13.0884 2.16897 16.2912
258 2 0.18323 5.41356 6.38378 9.89811
155 3 -0.872952 7.36544 2.49697 10.145
159 3 -0.810622 14.0907 0.896733 14.2559
160 3 -0.811201 9.03989 1.27736 14.3009
161 3 -0.838171 10.4039 2.44524 16.2593
162 3 -0.857766 7.67962 2.93045 15.8948
163 3 -0.81679 9.93319 2.07429 10.9426
164 3 -0.827156 12.1937 1.44078 12.5719
279 2 0.167772 12.9061 5.01966 8.81762
154 3 -0.826323 8.91375 0.884808 8.83156
171 3 -0.834066 9.55053 3.86277 14.1401
172 3 -0.836968 11.4336 3.98735 12.2091
173 3 -0.815177 11.8526 5.23964 14.5557
174 3 -0.817398 6.26936 5.56204 14.3574
175 3 -0.763551 8.18278 6.9193 15.9478
177 3 -0.758664 9.91793 6.20852 12.7806
247 2 0.171983 6.65713 5.99692 8.88033
280 2 0.173389 11.1028 5.45068 9.59447
270 2 0.246805 12.2747 1.58103 9.29505
271 2 0.183466 13.5228 2.34989 10.53
272 2 0.172848 12.3326 3.54056 9.51221
359 2 0.223003 13.5986 3.75553 13.6161
54 4 1.62403 6.72152 6.93943 15.0118
204 2 0.20012 15.0185 1.32739 11.4378
169 3 -0.806598 9.29297 3.65868 8.74339
91 1 -0.676631 11.7393 5.26047 8.67465
285 2 0.124766 8.42023 7.15715 9.9228
83 1 -0.659301 4.71238 7.20342 10.4117
33 4 1.52961 3.18057 9.12774 1.976
363 2 0.208319 8.13005 14.0571 8.01491
315 2 0.18861 9.33292 7.31899 2.53502
44 4 1.39998 5.66085 13.7173 7.54168
56 4 1.62012 4.41242 11.355 3.7915
58 4 0.938111 8.28271 9.0357 7.17225
60 4 1.56007 6.81354 11.5617 5.72903
87 1 -0.660038 4.18969 8.77372 6.82993
94 1 -0.670607 7.48927 7.23486 7.38295
95 1 -0.646469 9.88367 8.93608 5.921
133 3 -0.847942 4.23512 8.44017 0.783673
21 4 1.68165 0.563665 13.7981 7.80645
357 3 -0.821528 6.23239 13.1177 0.882858
143 3 -0.818493 1.47437 12.9972 6.72656
178 3 -0.861899 4.04689 9.95341 3.10025
179 3 -0.83917 4.53803 12.5095 2.65407
180 3 -0.811731 3.04477 11.8095 4.84021
354 2 0.20111 6.58312 10.8291 2.24614
185 3 -0.818626 8.15243 12.1788 5.06012
186 3 -0.89001 5.69383 11.342 4.6645
187 3 -0.795083 7.41495 9.92805 6.23233
188 3 -0.875517 6.34866 12.4705 6.95119
267 2 0.185302 5.17872 8.87333 7.3345
35 4 1.44759 1.76285 11.4618 0.350933
289 2 0.146257 10.312 7.92418 5.80718
38 4 1.62715 1.71895 11.8032 5.63444
307 1 -0.664351 6.43007 8.40605 3.80802
41 4 1.61265 5.13734 13.7434 1.80153
317 2 0.16737 9.26142 7.74064 4.429
318 2 0.200717 6.4686 9.04465 2.83005
319 2 0.244372 6.85503 8.91632 4.72461
182 3 -0.839551 3.51583 11.0513 8.61089
136 3 -0.850806 2.36833 10.3446 1.2628
366 2 0.185355 9.51182 9.37028 4.86119
334 1 -0.687879 9.0329 10.3228 3.09273
335 2 0.201274 9.00647 10.7996 2.08781
336 2 0.172361 8.11807 9.5977 3.3603
347 1 -0.652178 9.24701 8.27726 0.530212
349 2 0.196481 10.3825 8.75597 0.686868
350 2 0.167516 8.71337 8.06102 1.5041
351 1 -0.686609 6.63796 10.3756 1.16156
352 2 0.173869 7.68222 9.95184 0.952111
353 2 0.263188 5.75731 9.63023 0.936462
320 2 0.170905 5.28976 8.02491 3.98031
36 4 1.15048 2.83083 9.93162 7.7425
137 3 -0.820258 1.16488 12.8491 1.04566
360 2 0.160872 9.96326 9.807 3.25889
288 2 0.133466 6.58212 7.7885 7.90319
291 2 0.164072 9.21337 10.8873 8.46996
268 2 0.198923 4.15547 9.03637 5.73098
329 2 0.250819 8.99678 12.6025 6.80672
17 4 1.56468 9.14196 11.6521 15.3158
296 2 0.206536 8.61534 12.7418 11.2663
348 2 0.230332 8.79044 9.36756 17.1281
47 4 1.62573 5.32526 14.0749 13.2856
59 4 1.59449 4.17254 12.0459 9.68948
61 4 1.56985 7.75506 9.46778 13.6803
62 4 1.62959 4.16133 11.9489 15.2539
63 4 1.42828 6.48313 11.7878 11.588
282 2 0.187601 11.7226 7.6329 11.4678
92 1 -0.667338 10.9562 8.09371 10.6875
281 2 0.14125 10.8599 7.43715 9.73548
97 1 -0.66569 7.9059 12.4185 10.4563
295 2 0.168058 8.29116 11.4345 9.85511
96 1 -0.666874 8.81746 9.77319 8.78287
181 3 -0.814478 8.07889 12.3289 16.3783
57 4 1.46019 6.66584 12.2599 17.1191
184 3 -0.812695 2.985 12.4518 10.7501
189 3 -0.812228 6.80081 8.1789 13.9156
190 3 -0.778492 9.0546 8.84455 12.7555
191 3 -0.834122 8.28279 10.2354 14.9473
192 3 -0.786572 4.10281 10.4846 14.3726
193 3 -0.866641 5.4131 11.9493 16.1453
194 3 -0.830739 4.35164 13.1998 14.2267
195 3 -0.812252 2.85058 12.1924 16.2989
196 3 -0.842133 5.38433 11.2778 10.4894
197 3 -0.811894 7.13349 10.6791 12.6203
198 3 -0.874675 6.01985 13.1352 12.1526
256 2 0.171998 5.26509 8.20509 10.6608
148 3 -0.830734 1.00637 13.1315 12.3826
294 2 0.179339 7.61905 13.2605 9.71475
292 2 0.145962 9.63355 9.0608 9.54088
183 3 -0.820968 4.75263 13.3816 8.85615
55 4 1.15641 9.47841 7.544 11.929
293 2 0.161118 7.78733 9.81602 9.23222
28 4 1.59074 4.24378 7.53055 17.1409
40 4 1.62811 1.66914 11.8936 11.6224
330 2 0.165754 8.95209 12.6452 8.74171
167 3 -0.813086 10.9689 7.35923 15.9722
283 2 0.197439 6.9793 7.54654 11.2175
176 3 -0.770129 5.56572 7.42984 15.9852
ITEM: TIMESTEP
200
ITEM: NUMBER OF ATOMS
366
ITEM: BOX BOUNDS xy xz yz pp pp pp
-7.5536639999999995e+00 1.5838192800000000e+01 -7.5536639999999995e+00
0.0000000000000000e+00 1.4340199999999999e+01 1.7708879999999994e-01
0.0000000000000000e+00 1.7246500000000001e+01 4.3709999999999999e-01
ITEM: ATOMS id type q x y z
355 3 -0.807436 1.8283 0.657074 0.561465
5 4 1.32533 0.867997 2.19417 5.62728
9 4 1.54502 0.049393 4.17741 1.73475
11 4 0.92901 -0.350335 4.75983 7.29064
27 4 1.13955 1.48865 6.74018 3.26135
29 4 1.19124 5.3255 4.08151 7.97598
64 1 -0.656322 2.11384 2.88993 4.41721
69 1 -0.652402 -1.76803 5.25144 5.93791
70 1 -0.644119 0.884233 6.28348 7.3326
76 1 -0.668267 5.69611 1.26753 4.74749
77 1 -0.667676 2.75122 6.10665 4.55967
79 1 -0.665327 4.51366 5.72426 7.24718