ITEM: TIMESTEP
0
ITEM: NUMBER OF ATOMS
366
ITEM: BOX BOUNDS xy xz yz pp pp pp
-7.5839999999999996e+00 1.5901800000000000e+01 -7.5839999999999996e+00
0.0000000000000000e+00 1.4340199999999999e+01 1.7780000000000001e-01
0.0000000000000000e+00 1.7246500000000001e+01 4.3709999999999999e-01
ITEM: ATOMS id type x y z
115 3 6.87774 0.687651 0.91919
5 4 1.02807 2.17462 5.80515
9 4 0.0268468 4.02802 1.84722
11 4 -0.180567 4.9044 7.10238
27 4 1.40047 6.72184 3.27085
29 4 5.1358 3.92777 7.9739
64 1 2.48529 2.78667 4.69641
69 1 -1.70801 5.46165 5.76723
70 1 0.993158 6.55564 7.01422
76 1 5.52494 1.42787 4.52376
77 1 2.91312 6.31838 4.50816
79 1 3.73404 5.12014 7.1659
98 3 -0.238214 1.59205 4.88539
99 3 1.66108 1.10288 6.76649
102 3 -0.716862 3.09886 2.89866
103 3 1.14055 3.19518 1.0303
104 3 -1.00485 4.71263 0.911099
105 3 0.504978 3.55411 6.68942
210 2 -1.6566 6.60422 2.6704
124 3 0.911096 5.34871 2.77605
310 3 4.45774 5.38144 0.564829
199 2 2.86821 1.98221 3.94144
200 2 3.25634 2.96376 5.60508
201 2 2.05686 3.70853 4.14585
10 4 -1.46248 6.09782 0.22197
355 3 1.58685 0.670326 0.742999
215 2 -1.32086 5.30062 4.6911
216 2 -2.00861 6.51443 6.02457
218 2 1.7042 6.46837 6.0935
219 2 1.54951 6.42585 8.0155
235 2 5.4935 0.342995 4.87836
236 2 5.97434 1.613 3.50944
237 2 4.54865 1.92997 4.6113
238 2 3.6489 6.50003 3.60003
239 2 2.92758 5.22134 4.92747
241 2 -0.669172 6.86735 4.8053
244 2 2.80057 4.737 7.7196
245 2 3.73419 4.95449 6.00584
246 2 3.88156 6.19859 7.49993
305 1 4.32319 3.92859 2.88801
324 1 3.58043 0.473618 2.76336
312 2 4.90211 3.09831 3.54165
313 2 3.50879 3.45344 2.20537
314 2 3.78073 4.8171 3.52705
326 2 3.42153 1.54015 2.31948
118 3 7.22147 0.714816 6.83487
126 3 5.92148 3.20515 6.76575
23 4 6.74988 2.01865 5.92208
20 4 6.43631 2.08778 0.0470739
325 2 3.51267 0.438236 3.86267
3 4 1.43833 2.45911 17.1313
8 4 1.44596 2.24024 11.6831
212 2 -1.79564 5.28699 8.742
22 4 3.71028 1.82 9.82148
25 4 4.00237 2.31285 15.3342
26 4 6.28514 2.3294 11.6193
30 4 5.44325 4.76531 13.3839
253 2 3.51054 5.99965 9.44168
65 1 -0.378544 1.77085 11.2033
66 1 1.55119 3.92709 12.7079
68 1 -0.690354 4.80586 8.88069
81 1 1.10209 6.18522 14.4358
82 1 2.92763 6.50465 10.2591
100 3 -0.00710091 2.30711 16.2126
101 3 2.03379 1.10304 12.6066
106 3 -2.59953 6.51543 16.5644
116 3 3.35002 0.296689 9.07032
117 3 2.24056 2.40126 10.3328
119 3 3.84087 0.947416 14.5437
120 3 5.2715 2.13684 16.4013
121 3 2.62886 2.75665 16.0638
122 3 4.8491 1.74981 11.0738
123 3 6.93362 1.30667 12.7447
127 3 4.49243 3.66599 14.1973
131 3 4.51085 5.87711 12.6329
202 2 -0.537337 2.41386 10.2758
255 2 2.28266 5.77132 10.7327
333 2 -1.44528 4.73477 15.0561
205 2 2.51204 4.43961 12.4167
206 2 1.53708 3.67783 13.8392
207 2 0.65462 4.50706 12.3618
252 2 1.48274 6.54477 13.3728
129 3 2.83344 7.16226 16.4995
213 2 0.125606 5.48366 9.32437
332 2 -0.273089 3.90927 13.6553
331 1 -1.28305 3.87365 14.2862
250 2 -0.0279917 6.03955 14.5979
251 2 1.77678 5.37635 14.8974
125 3 4.2949 2.91022 8.83266
211 2 -0.725659 3.76127 9.29347
32 4 4.14956 7.13985 11.7628
24 4 7.97449 0.37953 13.4464
1 4 -5.38516 13.4944 1.77101
221 2 -2.09768 7.42227 8.11395
14 4 -2.26874 9.68525 7.7558
15 4 -3.66604 11.9692 5.65441
338 2 -3.96217 9.28199 1.60537
34 4 -0.91366 11.8363 3.96318
337 1 -3.65491 9.39326 0.462277
67 1 -1.83465 7.18362 1.76086
71 1 -3.09397 8.03436 8.17219
72 1 -0.758177 9.2459 6.66395
78 1 0.0895043 7.62028 4.29007
84 1 -1.30592 10.26 2.8971
328 2 -5.49963 11.5371 7.79968
107 3 -6.43794 13.0648 2.93442
108 3 -4.78295 12.0497 1.12269
109 3 -5.04137 11.6347 4.92534
110 3 -3.26619 10.6767 6.84579
111 3 -3.84247 13.3628 6.41855
132 3 1.98487 7.86831 2.32231
134 3 -0.594965 12.9732 2.90115
135 3 -2.33853 12.1157 4.6569
339 2 -2.51478 9.55123 0.345452
141 3 0.36764 11.4267 4.88917
142 3 2.14337 10.3004 6.49251
222 2 -3.7959 7.72827 7.37565
209 2 -1.13197 8.07263 1.69808
217 2 0.340693 7.47879 6.95943
327 1 -6.20514 12.429 7.81365
269 2 3.68998 7.76583 6.81064
223 2 -1.07394 8.29307 6.15781
224 2 0.0725697 9.09477 7.54636
225 2 -0.50157 10.0605 5.91318
4 4 -4.98801 13.8725 7.54233
242 2 -0.493382 8.58049 3.75819
243 2 0.852096 8.00774 5.08577
259 2 -0.26365 9.81712 2.56978
260 2 -1.97997 10.587 2.03756
261 2 -1.81592 9.64582 3.76967
262 2 -0.473241 10.7297 1.09535
264 2 1.08055 8.03024 8.53436
85 1 -0.083455 11.1389 0.0721853
208 2 -2.97205 7.48685 1.6298
21 4 0.471734 13.6786 7.80841
358 2 -3.04014 13.8951 2.29982
240 2 3.0705 7.11245 5.30222
19 4 0.286042 13.9413 1.96685
6 4 -4.74677 14.0503 13.633
16 4 -2.09457 9.00718 13.4465
18 4 -3.29107 11.7906 11.8193
31 4 1.50206 7.56601 15.7286
37 4 -0.927253 11.7821 9.83114
40 4 1.54497 11.7389 11.6783
365 2 -4.50552 9.05987 10.9522
73 1 -0.68597 8.11011 12.4708
74 1 -1.12166 9.66778 14.9499
75 1 -4.58182 11.1657 10.6282
86 1 1.23914 8.98513 9.11846
112 3 -3.04163 8.01894 14.3328
113 3 -2.76737 10.2369 12.777
114 3 -3.99528 12.9198 12.7523
234 2 -5.31284 10.507 11.2101
130 3 -0.0562348 7.45694 16.6216
138 3 -1.73369 10.3756 9.13701
140 3 -1.99318 12.3313 10.9004
144 3 1.79921 8.71495 14.7122
145 3 3.49417 8.43765 12.5566
146 3 0.399852 11.4077 10.5523
147 3 1.63473 10.4621 12.7175
282 2 -3.61305 7.514 11.6826
227 2 -0.0290895 7.51027 13.2527
228 2 -0.0854638 8.88977 11.923
229 2 -1.75254 10.617 15.536
230 2 -0.266014 10.054 14.2613
231 2 -0.870624 8.80283 15.6056
232 2 -4.02619 10.6131 9.75726
233 2 -5.00728 12.2178 10.3108
220 2 -3.56084 7.94169 9.19365
254 2 2.31585 7.37593 9.82198
263 2 -0.208179 10.8829 16.4989
362 2 -0.330055 12.6154 17.1627
265 2 0.364115 9.62502 9.04835
266 2 1.51245 8.80097 10.2199
297 4 -4.19961 11.4757 17.1635
298 1 -2.7065 12.3197 16.1006
361 2 -3.83246 8.87951 17.1017
300 2 -2.79836 11.9211 15.0658
301 2 -1.73854 12.0526 16.6128
302 2 -2.91245 13.4342 16.1251
340 1 -0.693812 13.4016 14.7283
39 4 2.68502 9.57769 13.5578
342 2 -0.630638 12.3157 14.5424
341 2 -0.269253 13.7693 15.7421
356 3 -5.87876 13.2051 14.4686
343 2 -1.75694 13.8752 14.5154
226 2 -1.2898 7.48909 11.7912
267 2 3.57724 7.63879 8.74014
299 3 -5.37608 11.2733 16.2127
148 3 1.02089 13.0347 12.5788
139 3 -0.622658 12.7108 8.64717
2 4 14.2254 1.85358 3.97069
91 1 10.9567 5.34454 8.47248
317 2 9.11488 6.61876 4.85519
364 2 11.9622 4.69544 3.78549
42 4 9.19779 2.12312 3.87917
46 4 11.7631 1.93354 5.71578
50 4 10.4784 4.13048 1.93204
52 4 10.0329 3.85485 7.44652
89 1 11.4772 5.39771 2.99857
90 1 9.04904 4.74832 6.0465
43 4 11.6169 1.91479 0.198311
214 2 13.1593 4.7606 5.96046
149 3 13.8521 0.615876 3.06698
150 3 8.69837 1.0216 2.8668
151 3 7.88781 2.54435 5.0431
153 3 11.8439 0.741473 1.3196
156 3 12.947 2.52635 4.53736
157 3 10.3894 1.53405 4.85639
158 3 12.2966 0.658348 6.45378
165 3 9.61105 3.39202 3.03106
166 3 11.5682 3.29579 0.975042
168 3 9.70679 5.30654 0.947697
170 3 11.2973 3.00486 6.85495
94 1 7.25686 7.10055 7.40531
274 2 10.7213 6.0421 3.48368
275 2 9.20799 4.47144 4.94211
276 2 9.59871 5.81758 6.36795
277 2 7.99075 4.61803 6.36436
279 2 12.0375 5.22817 8.04648
287 2 7.94907 6.28892 6.86161
345 2 14.6638 1.54471 7.48281
306 1 8.72164 6.95884 3.83911
304 4 6.77307 6.82518 3.75616
169 3 8.93016 3.34623 8.53002
308 1 5.84727 5.66222 5.0815
309 3 6.1367 3.34551 1.15929
311 3 6.50189 6.00348 2.47771
316 2 9.27743 6.47487 2.97103
344 1 14.7353 0.666367 8.24526
322 2 5.19133 6.24502 5.68141
323 2 6.65029 5.15061 5.66269
303 4 5.44097 4.67732 1.57913
278 2 10.5072 6.32881 8.13676
273 2 12.2656 5.99877 2.46161
286 2 7.12417 6.99911 8.45164
321 2 5.29754 4.9748 4.29611
7 4 14.2783 2.29426 15.3306
12 4 12.0263 6.78178 15.4272
346 2 14.864 1.08331 9.35371
283 2 7.85159 5.6769 10.9263
247 2 5.68556 5.93323 8.94897
45 4 8.73098 2.0804 9.67647
204 2 15.3608 0.632949 10.951
48 4 9.27958 2.64278 15.4996
49 4 11.3824 2.46423 11.565
51 4 9.3725 6.93631 16.952
53 4 10.635 4.72445 13.6481
28 4 4.3624 7.37784 17.09
80 1 6.27157 4.91361 9.17691
88 1 12.5624 2.72232 10.0209
54 4 6.71306 7.0826 15.1366
93 1 8.54909 6.38994 10.3255
128 3 6.14196 3.99631 12.1307
152 3 13.0092 2.38619 16.2914
154 3 8.77189 0.662194 8.92253
155 3 7.33953 2.38342 10.3727
159 3 13.9494 1.103 14.3086
160 3 9.04951 1.48779 14.3353
161 3 10.3925 2.12179 16.6211
162 3 7.79944 2.81236 16.2807
163 3 9.946 2.09605 10.9125
164 3 12.0576 1.29738 12.3678
280 2 10.8794 5.07703 9.526
359 2 13.5538 3.85596 13.6038
171 3 9.70851 3.93166 14.6156
172 3 11.2646 3.92103 12.3975
173 3 11.8825 5.38682 14.5316
174 3 6.46145 5.58454 14.3126
175 3 7.96112 6.87641 16.1941
177 3 9.86162 5.97091 12.8287
248 2 7.3441 4.93918 8.8495
249 2 6.21137 4.55269 10.2864
270 2 11.8052 2.94586 9.23783
271 2 12.9971 1.67615 10.0545
272 2 13.2798 3.53924 10.2268
284 2 9.32049 5.89482 9.62176
167 3 10.6357 7.26243 16.1374
203 2 14.67 1.97843 12.0347
257 2 6.70049 7.14561 10.7183
55 4 9.62491 7.22204 11.8841
33 4 3.1832 9.00244 1.8822
335 2 8.99862 10.5628 2.14915
13 4 9.0778 11.9513 4.15116
44 4 5.50754 13.674 7.71221
56 4 4.17383 11.44 3.87336
58 4 8.04209 8.94209 7.35856
60 4 6.50003 11.5105 5.87807
87 1 3.7785 8.34708 7.83971
366 2 10.0344 7.96777 6.49803
95 1 9.88298 9.02037 6.67421
133 3 4.30396 8.27067 1.01371
36 4 2.71641 9.87657 8.01382
137 3 1.36756 12.9024 1.10136
143 3 1.41545 12.7651 6.86476
178 3 3.76052 9.70834 3.22374
179 3 4.61438 12.4866 2.70649
180 3 2.89209 11.9979 4.65446
348 2 10.2387 8.55681 0.911924
185 3 7.88911 12.2037 5.20136
186 3 5.41423 11.2321 4.70934
187 3 7.20865 9.85805 6.32247
188 3 6.10775 12.2901 7.17063
360 2 9.74346 9.71432 3.72716
268 2 4.80624 8.81737 7.91962
289 2 10.4874 9.43537 7.48835
290 2 9.7418 9.59364 5.74101
307 1 6.1124 8.65689 3.88519
354 2 7.11744 10.3439 1.84969
363 2 7.99607 13.7686 7.93055
318 2 6.14638 9.31914 2.88145
319 2 6.59001 9.1683 4.87803
320 2 5.00832 8.14365 4.09902
41 4 5.33711 13.6655 1.95331
357 3 6.26361 12.9762 0.720061
334 1 8.87915 10.2731 3.25554
35 4 1.76965 11.6168 0.220065
336 2 7.74308 9.72102 3.52996
347 1 9.16777 7.93456 0.92748
349 2 8.90517 7.546 1.97415
350 2 8.3387 8.60582 0.52593
351 1 6.25799 10.3815 1.09888
352 2 6.29096 9.46768 0.489402
353 2 5.27327 10.4782 1.65518
315 2 8.63083 8.09023 3.73912
329 2 8.87779 12.3831 6.8024
38 4 1.74959 11.7071 5.71069
136 3 2.44734 10.2475 1.15569
288 2 6.22704 7.2407 6.87382
17 4 9.1495 11.8022 15.1532
295 2 8.48554 11.5478 10.2833
291 2 7.42258 10.6422 9.07613
57 4 6.45539 12.1575 16.9685
59 4 4.10957 12.0251 9.83294
61 4 8.02506 9.61294 13.389
62 4 3.83461 12.1042 15.0773
63 4 6.45869 11.7907 11.6947
83 1 5.69783 7.76938 10.8707
92 1 11.21 7.90764 11.0623
96 1 7.85597 9.60873 9.24959
97 1 7.9968 12.561 10.6469
183 3 4.60463 13.4654 9.15286
182 3 3.4608 11.0183 8.80896
181 3 7.83059 12.0727 16.0787
47 4 5.23335 14.1539 13.3373
184 3 2.88894 12.1605 10.9666
189 3 7.06738 8.4296 14.2595
190 3 8.88803 8.65293 12.2867
191 3 8.92066 10.5006 14.2529
192 3 3.72329 10.6472 14.2913
193 3 5.15362 11.9514 16.0448
194 3 4.07298 13.4146 14.2576
195 3 2.43709 12.3211 16.0279
196 3 5.49346 11.299 10.5453
197 3 7.02189 10.549 12.5959
198 3 6.10462 13.0294 12.5108
256 2 5.37092 8.07301 9.83252
176 3 5.42668 7.60957 15.9015
258 2 5.81099 8.71292 11.6002
330 2 8.99062 12.5082 8.85133
281 2 10.8702 7.21599 10.0443
292 2 8.95081 9.57599 9.48662
293 2 7.14079 8.90849 9.88636
294 2 7.64737 13.2717 9.72545
285 2 7.97131 7.25648 9.82123
296 2 8.55936 13.0352 11.4587
ITEM: TIMESTEP
100
ITEM: NUMBER OF ATOMS
366
ITEM: BOX BOUNDS xy xz yz pp pp pp
-7.5839999999999996e+00 1.5901800000000000e+01 -7.5839999999999996e+00
0.0000000000000000e+00 1.4331576750000000e+01 1.7780000000000001e-01
0.0000000000000000e+00 1.7246500000000001e+01 4.2847674999999974e-01
ITEM: ATOMS id type x y z
115 3 7.15526 0.700707 0.85266
5 4 0.958553 2.20655 5.92564
9 4 0.0816412 4.07646 1.84712
11 4 -0.152971 4.97565 7.16367
27 4 1.36203 6.80906 3.19132
29 4 5.04783 3.9599 7.99412
64 1 2.37542 2.74322 4.75907
69 1 -1.63675 5.36624 5.91475
70 1 1.08978 6.52781 6.92043
76 1 5.3314 1.4839 4.78824
77 1 3.00829 6.60807 4.32101
79 1 3.73164 5.12841 7.05229
98 3 -0.253743 1.74669 5.02675
99 3 1.75337 1.19045 6.90568
102 3 -0.7541 3.07256 2.74099
103 3 1.21902 3.23014 1.0253
104 3 -0.863931 4.82355 0.861902
105 3 0.570917 3.65616 6.64941
210 2 -1.71207 6.36663 2.699
124 3 0.74577 5.36898 2.73181
310 3 4.51067 5.39492 0.630214
199 2 2.66365 1.88042 3.93819
200 2 3.26384 3.05955 5.38411
201 2 1.9035 3.67178 4.30035
10 4 -1.44124 6.23494 0.268174
355 3 1.70151 0.669848 0.520095
215 2 -1.5967 4.83525 4.9166
216 2 -1.93827 6.43592 5.81636
218 2 1.78112 6.49486 5.93998
219 2 1.75865 6.57015 7.80219
235 2 5.3138 0.405832 5.34277
236 2 5.89136 1.4211 3.79514
237 2 4.20306 1.94499 4.75513
238 2 3.64598 6.61951 3.31573
239 2 3.0779 5.59499 4.88733
241 2 -0.605911 6.6681 4.74584
244 2 2.77438 4.6751 7.40571
245 2 3.81428 5.01986 5.84874
246 2 3.83623 6.24126 7.38376
305 1 4.25484 3.95456 3.02505
324 1 3.50094 0.434954 2.77302
312 2 4.69313 3.06796 3.71124
313 2 3.45297 3.58777 2.22708
314 2 3.83727 4.9571 3.57696
326 2 3.45607 1.53241 2.42164
118 3 7.28475 0.809894 6.94596
126 3 6.10858 3.32619 6.8727
23 4 6.77955 2.09678 5.91089
20 4 6.57358 2.09235 0.0916076
325 2 3.33274 0.249353 3.8901
214 2 -2.36065 4.77023 6.7231
3 4 1.56377 2.52707 17.0392
8 4 1.29075 2.22005 11.8288
212 2 -1.50853 5.65447 9.31378
22 4 3.64899 1.81138 9.83658
25 4 4.18377 2.46963 15.353
26 4 6.17915 2.34935 11.5952
30 4 5.46975 4.79372 13.4469
253 2 3.80116 6.01589 9.60347
65 1 -0.651896 1.71253 11.2153
66 1 1.36412 3.89851 12.63
68 1 -0.612469 4.97237 9.01141
81 1 1.03458 6.2857 14.2622
82 1 3.02869 6.4637 10.3113
100 3 0.0488062 2.36184 16.267
101 3 1.82093 1.07711 12.8647
106 3 -2.51267 6.49456 16.5899
116 3 3.38595 0.465189 8.99745
117 3 2.23085 2.19415 10.5299
119 3 3.91313 1.06426 14.563
120 3 5.30265 2.30951 16.6199
121 3 2.69762 2.91477 15.9318
122 3 4.77289 1.75312 11.0953
123 3 6.93798 1.412 12.8409
127 3 4.71979 3.67873 14.3514
131 3 4.45993 5.90638 12.6413
202 2 -0.807166 2.37479 10.3099
255 2 2.41121 5.69094 10.9044
333 2 -1.53274 4.55845 14.9861
205 2 2.37967 4.31986 12.1686
206 2 1.37962 3.67946 13.7777
207 2 0.49484 4.61089 12.2996
252 2 1.44978 6.69879 13.345
129 3 2.67127 7.12566 16.5051
213 2 0.44727 5.44348 9.32125
332 2 -0.416679 3.77176 13.6033
331 1 -1.43981 3.72846 14.2028
250 2 -0.0908504 6.12995 14.2335
251 2 1.70212 5.42105 14.7532
125 3 4.16433 2.93138 8.72999
211 2 -0.691121 3.8501 9.28633
28 4 4.27532 7.23691 17.1668
1 4 -5.38814 13.5123 1.69824
221 2 -2.173 7.46834 7.98299
14 4 -2.3884 9.74136 7.71978
15 4 -3.54766 11.8823 5.72498
338 2 -4.11953 9.11023 1.7125
34 4 -0.95997 11.8129 3.99607
337 1 -3.7914 9.36448 0.664348
67 1 -2.02859 7.13281 1.86465
71 1 -3.19028 8.0552 8.09929
72 1 -0.717747 9.24923 6.74098
78 1 0.0581493 7.57567 4.22832
84 1 -1.37645 10.1827 2.98607
328 2 -5.55644 11.5746 7.74672
107 3 -6.48911 13.044 2.96882
108 3 -4.58191 12.1149 1.18351
109 3 -4.96749 11.6365 4.96199
110 3 -3.28821 10.6273 6.73091
111 3 -3.666 13.3024 6.58382
132 3 1.91802 7.96824 2.26827
134 3 -0.455689 12.9272 3.02593
135 3 -2.31018 12.0194 4.69841
339 2 -2.65051 9.75193 0.631797
141 3 0.257082 11.4536 4.95884
142 3 2.20101 10.1247 6.40417
222 2 -3.95665 7.72533 7.23974
209 2 -1.38983 8.02386 1.83767
217 2 0.424241 7.47179 6.88589
327 1 -6.23706 12.4914 7.6985
240 2 3.32578 7.47109 4.96472
223 2 -1.05303 8.21172 6.32009
224 2 0.126886 9.11719 7.53502
225 2 -0.338913 10.0086 5.94213
4 4 -4.8939 13.9193 7.50905
242 2 -0.560148 8.44218 3.82512
243 2 0.863302 8.02945 5.01562
259 2 -0.399058 9.69015 2.7833
260 2 -1.94413 10.4987 2.12139
261 2 -2.05455 9.60221 3.67909
262 2 -0.559463 10.7245 1.23112
264 2 1.30108 7.86307 8.51903
85 1 -0.140982 11.1627 0.181709
208 2 -3.09777 7.41248 1.8624
21 4 0.489605 13.6976 7.92635
358 2 -3.10331 13.8227 2.48452
6 4 -4.73399 14.0554 13.7825
16 4 -2.15518 9.04453 13.5543
18 4 -3.35377 11.7753 11.9288
31 4 1.4292 7.57045 15.6004
37 4 -1.0207 11.757 9.84395
40 4 1.42859 11.8195 11.7705
365 2 -4.54735 9.05749 10.9197
73 1 -0.875901 8.21096 12.4748
74 1 -1.05991 9.78366 14.952
75 1 -4.70355 11.1112 10.6896
86 1 1.48606 8.91326 9.02351
112 3 -2.91886 7.89843 14.3343
113 3 -2.85386 10.5172 12.7971
114 3 -3.99967 12.9345 12.7484
282 2 -3.65195 7.3567 11.4089
130 3 -0.0521691 7.68864 16.7265
138 3 -1.70694 10.3479 9.05006
140 3 -2.09348 12.3431 10.9439
144 3 1.85634 8.87474 14.794
145 3 3.29284 8.47171 12.4545
146 3 0.29779 11.3764 10.6241
147 3 1.42742 10.4296 12.672
148 3 0.981622 13.1078 12.6533
227 2 -0.177282 7.44273 13.098
228 2 -0.198107 8.9627 11.953
229 2 -1.70005 10.6762 15.412
230 2 -0.216368 10.2055 14.2892
231 2 -0.660865 8.95114 15.8202
232 2 -4.11609 10.4558 9.87653
233 2 -5.02082 12.1232 10.2847
220 2 -3.67699 8.03588 9.21094
254 2 2.44544 7.3456 9.86338
263 2 -0.232813 10.8981 16.5372
32 4 4.09348 7.30866 11.7452
265 2 0.522244 9.51635 9.02972
266 2 1.87453 8.86045 10.0541
297 4 -4.16816 11.5035 17.2424
298 1 -2.73195 12.3113 16.0659
361 2 -3.71937 8.95905 17.2146
300 2 -2.82039 11.996 15.0128
301 2 -1.6622 12.0064 16.4503
302 2 -2.88194 13.4528 16.2105
340 1 -0.625239 13.6289 14.8288
39 4 2.70561 9.71461 13.4994
342 2 -0.347844 12.5674 14.7962
341 2 -0.341651 14.0804 15.8319
356 3 -5.6412 13.024 14.5954
343 2 -1.73966 13.824 14.6125
226 2 -1.62768 7.66899 11.7974
267 2 3.74098 7.58293 8.75956
299 3 -5.36167 11.102 16.3108
139 3 -0.574701 12.8241 8.77547
362 2 -0.194375 12.7242 17.2253
2 4 14.2402 1.98631 3.83851
91 1 11.0592 5.33468 8.44233
317 2 9.05328 6.704 4.86065
364 2 12.1654 4.16229 3.78332
42 4 9.20928 2.16937 3.87114
46 4 11.8133 1.92603 5.55555
50 4 10.491 4.21422 1.85458
52 4 10.1826 3.88465 7.53829
89 1 11.5691 4.9973 3.16792
90 1 9.09644 4.84827 6.14838
43 4 11.6137 1.98501 0.10091
273 2 12.3875 5.79117 2.65089
149 3 13.7045 0.752087 3.06133
150 3 8.78525 1.01474 2.90048
151 3 7.84298 2.46946 4.82877
153 3 11.8245 0.695588 1.1142
156 3 12.9586 2.73513 4.62665
157 3 10.45 1.72475 4.7789
158 3 12.3392 0.538463 6.52804
165 3 9.52658 3.47844 2.90753
166 3 11.4924 3.26045 1.01824
168 3 9.58394 5.28833 0.837353
170 3 11.2621 2.98856 6.79446
278 2 10.4144 6.23621 8.19057
274 2 10.8141 5.58188 3.84049
275 2 9.39835 4.40468 5.21866
276 2 9.48684 5.93471 6.35058
277 2 7.92037 4.73409 6.4039
279 2 12.0834 5.46781 8.06764
287 2 7.90318 6.29154 6.93229
345 2 14.5217 1.53905 7.43487
306 1 8.67994 6.98413 3.84179
304 4 6.73271 6.73481 3.73948
303 4 5.40072 4.61921 1.64047
308 1 5.996 5.67973 5.13493
309 3 6.37027 3.37386 1.04731
311 3 6.28519 5.83169 2.53156
316 2 9.16705 6.4 2.98996
344 1 14.6414 0.711618 8.19365
322 2 5.38123 6.36472 5.9034
323 2 6.79329 5.02013 5.65572
321 2 5.26276 4.9899 4.44849
286 2 6.99805 7.12474 8.39228
7 4 14.3454 2.26936 15.4534
12 4 12.145 6.6721 15.3827
346 2 14.7359 1.08786 9.28344
283 2 7.85994 5.76467 10.6332
247 2 5.70348 5.96255 8.96019
45 4 8.84318 2.0083 9.75012
204 2 15.1459 0.553574 11.001
48 4 9.23792 2.67649 15.4797
49 4 11.4033 2.4636 11.5286
51 4 9.34279 6.84621 16.9589
53 4 10.655 4.78564 13.6468
24 4 8.00318 0.465302 13.4531
80 1 6.17652 4.92142 9.23491
88 1 12.6232 2.78603 10.0674
54 4 6.72026 6.99141 15.2495
93 1 8.61133 6.50369 10.3151
128 3 6.16183 3.85211 12.1751
152 3 13.0279 2.39224 16.3536
154 3 8.88445 0.56048 8.95395
155 3 7.39818 2.18291 10.4446
159 3 14.0715 0.999118 14.3662
160 3 9.02107 1.37752 14.4883
161 3 10.4599 2.29188 16.4532
162 3 7.85283 2.89513 16.286
163 3 9.98934 2.17512 10.8991
164 3 12.1889 1.30819 12.4496
280 2 11.024 5.07808 9.55031
359 2 13.4275 3.61564 13.4943
171 3 9.68727 3.93882 14.6136
172 3 11.3671 3.78239 12.4074
173 3 11.9328 5.28174 14.5248
174 3 6.46702 5.7094 14.1803
175 3 7.96234 6.68184 16.2457
177 3 9.86345 6.02782 12.9525
248 2 7.26681 4.79339 8.89157
249 2 6.08813 4.67103 10.3112
270 2 12.0418 3.02464 9.14149
271 2 13.0981 1.76183 9.95202
272 2 13.2631 3.53555 10.4771
284 2 9.52958 6.03914 9.59621
167 3 10.6975 7.12207 16.0626
203 2 14.4535 1.9354 12.1356
169 3 9.18025 3.20447 8.67183
33 4 3.13812 9.10054 1.72171
335 2 8.92468 10.5987 2.05873
13 4 9.17745 11.8962 4.0876
44 4 5.50231 13.5243 7.65813
56 4 4.07688 11.381 3.80256
58 4 8.04514 8.9769 7.32812
60 4 6.66397 11.4819 5.75758
87 1 4.05837 8.26026 7.84591
366 2 10.2697 7.95493 6.40096
95 1 9.99326 9.0225 6.81891
133 3 4.1983 8.12013 1.00168
36 4 2.88225 9.76976 7.85693
137 3 1.61713 12.8176 1.32179
143 3 1.61715 12.655 6.92924
178 3 3.73726 9.98399 2.97353
179 3 4.65844 12.4113 2.63254
180 3 2.89907 12.0385 4.65392
348 2 10.0293 8.50258 0.837135
185 3 7.89596 12.1978 5.10908
186 3 5.35836 11.1896 4.87183
187 3 7.39835 9.81679 6.17074
188 3 6.14962 12.1608 7.16029
360 2 9.75419 9.70531 3.55071
268 2 5.09455 8.62152 7.95567
289 2 10.5938 9.23422 7.76561
290 2 10.0968 9.82098 6.07352
307 1 6.12029 8.56983 3.80621
354 2 7.32978 10.3201 1.82301
363 2 7.95142 13.8188 7.86994
318 2 6.21742 9.18375 2.82346
319 2 6.65519 9.04408 4.79083
320 2 5.07434 8.15288 4.00914
41 4 5.30969 13.7299 1.95438
357 3 6.39052 13.0734 0.786415
334 1 8.83287 10.2557 3.11654
35 4 1.78588 11.5341 0.272811
336 2 7.76724 9.66185 3.37913
347 1 9.04502 7.91407 0.880524
349 2 8.86611 7.50479 1.94057
350 2 8.17941 8.51021 0.413235
351 1 6.36527 10.2867 0.975818
352 2 6.39384 9.41149 0.224765
353 2 5.37608 10.3561 1.53787
315 2 8.51174 8.06478 3.65856
329 2 8.76841 12.5148 6.81874
38 4 1.79781 11.6386 5.79269
136 3 2.50789 10.2028 0.880443
288 2 6.24906 7.28235 6.65884
19 4 0.439663 13.883 2.05022
94 1 7.20927 7.20863 7.27618
269 2 3.81416 7.86116 6.7574
17 4 9.24067 11.7794 15.2067
295 2 8.45545 11.6034 10.1555
291 2 7.33341 10.8407 8.82457
57 4 6.52419 12.1984 17.0221
59 4 4.02369 12.017 9.85895
61 4 7.98386 9.58303 13.4625
62 4 3.87345 12.0303 15.1931
63 4 6.47969 11.8735 11.5626
83 1 5.67352 7.86946 10.8542
92 1 11.1486 7.80166 10.9928
96 1 7.68571 9.80136 9.0483
97 1 7.95412 12.5413 10.4849
183 3 4.6086 13.398 9.05851
182 3 3.40171 10.9248 8.84336
181 3 7.84885 12.121 16.1159
47 4 5.36045 14.1513 13.4356
184 3 2.77083 12.3219 11.0445
189 3 7.27904 8.3715 14.3395
190 3 8.84203 8.57696 12.3576
191 3 8.84461 10.6347 14.2731
192 3 3.77582 10.7553 14.0613
193 3 5.18953 11.9264 16.1584
194 3 4.12759 13.3821 14.3635
195 3 2.48369 12.1811 16.1008
196 3 5.23807 11.4109 10.6836
197 3 6.99712 10.4824 12.5649
198 3 6.13291 13.086 12.4963
256 2 5.25467 8.34233 9.94332
176 3 5.36695 7.5006 15.9205
258 2 5.8452 8.76019 11.6573
330 2 8.97605 12.5471 8.73355
296 2 8.63723 13.1152 11.1976
292 2 8.73138 9.78714 9.4368
293 2 6.95395 9.19401 9.7372
294 2 7.55451 13.242 9.56757
285 2 8.18075 7.45414 9.89316
55 4 9.58341 7.28073 11.9021
281 2 10.8203 7.20528 10.0233
257 2 6.74786 7.26582 10.6029
234 2 10.1557 10.6463 11.2671
ITEM: TIMESTEP
200
ITEM: NUMBER OF ATOMS
366
ITEM: BOX BOUNDS xy xz yz pp pp pp
-7.5839999999999996e+00 1.5901800000000000e+01 -7.5839999999999996e+00
0.0000000000000000e+00 1.4322953500000001e+01 1.7780000000000001e-01
0.0000000000000000e+00 1.7246500000000001e+01 4.1985350000000032e-01
ITEM: ATOMS id type x y z
115 3 7.14948 0.885062 0.860361
5 4 1.02549 2.22441 5.83686
9 4 0.122856 4.02624 1.66729
11 4 -0.142445 4.95756 7.1982
27 4 1.3528 6.78144 3.22606
29 4 5.03294 4.00661 8.10439
64 1 2.33188 2.92847 4.62116
69 1 -1.74965 5.39335 5.92135
70 1 1.16102 6.51391 7.11476
76 1 5.26408 1.58995 4.95654
77 1 2.90713 6.42662 4.44359
79 1 3.78342 5.18724 7.23578
98 3 -0.189203 1.63017 4.95528
99 3 1.93245 1.20916 6.65257
102 3 -0.728554 3.0601 2.7108
103 3 1.29492 3.16439 1.0879
104 3 -0.745995 4.72585 0.415598
105 3 0.448164 3.58984 6.71156
210 2 -1.70906 6.4641 2.71482
124 3 0.72794 5.26431 2.67347
310 3 4.35309 5.50469 0.67626
199 2 2.88364 2.0608 3.89811
200 2 2.99484 3.43738 5.28221
201 2 1.78974 3.67883 3.98759
10 4 -1.3513 6.26093 0.229449
355 3 1.72799 0.689312 0.685762
215 2 -1.37045 5.01039 4.97192
216 2 -2.19059 6.40183 5.91912
218 2 1.78062 6.41 6.12146
219 2 1.80234 6.38284 8.07486
235 2 5.0874 0.568567 5.51512
236 2 5.72953 1.37687 3.92778
237 2 4.17652 2.139 4.83476
238 2 3.57086 6.51687 3.45724
239 2 2.90391 5.41767 4.8649
241 2 -0.661079 6.72454 4.88703
244 2 2.74456 4.84286 7.60074
245 2 3.86104 5.11273 6.11219
246 2 3.97931 6.36034 7.43365
305 1 4.34684 3.95666 2.9315
324 1 3.65659 0.641975 2.65725
312 2 4.74625 3.14518 3.69899
313 2 3.559 3.49152 2.22484
314 2 3.76704 4.89964 3.55375
326 2 3.56815 1.71456 2.38429
118 3 7.34385 0.854271 6.81611
126 3 6.07639 3.28926 6.87412
23 4 6.79915 2.09133 5.96153
20 4 6.51747 2.20469 0.0134316
325 2 3.39294 0.456355 3.71395
358 2 4.63749 0.131905 2.29364
3 4 1.55115 2.43406 17.0792
8 4 1.20069 2.12233 11.8751
212 2 -1.98615 4.92801 8.90585
22 4 3.57201 1.92045 10.0093
25 4 4.07812 2.44404 15.4044
26 4 6.23374 2.33293 11.4997
30 4 5.33814 4.82431 13.4306
253 2 3.91966 6.07312 9.72565
65 1 -0.605585 1.72805 11.1838
66 1 1.20045 3.89074 12.6423
68 1 -0.845336 4.75716 8.8817
81 1 1.01313 6.25611 14.4345
82 1 3.11199 6.4845 10.371
100 3 0.221631 2.2365 16.1187
101 3 1.73208 0.974771 12.9811
106 3 -2.5507 6.71961 16.59
116 3 3.11797 0.429272 9.18845
117 3 2.13822 2.4076 10.6208
119 3 3.90097 1.00642 14.6882
120 3 5.28312 2.27058 16.5192
121 3 2.77033 2.89597 16.1525
122 3 4.794 1.82859 11.1064
123 3 6.80744 1.36492 12.7147
127 3 4.64328 3.69125 14.363
131 3 4.39325 5.86913 12.7692
202 2 -0.713873 2.27791 10.2108
255 2 2.48436 5.67901 10.9303
333 2 -1.51811 4.56187 15.1068
205 2 2.14652 4.3951 12.2905
206 2 1.33043 3.77775 13.7978
207 2 0.357115 4.51603 12.3224
252 2 1.36776 6.53555 13.3472
129 3 2.84723 7.15157 16.3278
213 2 -0.173006 5.65085 9.37358
332 2 -0.526127 3.80183 13.6769
331 1 -1.45519 3.76584 14.3381
250 2 -0.0741669 6.07971 14.5845
251 2 1.60623 5.39029 14.7785
125 3 4.23942 2.96719 8.99121
211 2 -0.587885 3.725 9.30104
28 4 4.25803 7.26521 17.1058
24 4 7.8951 0.499638 13.5702
1 4 -5.28873 13.5984 1.73734
221 2 -2.00239 7.47425 8.10965
14 4 -2.25136 9.72702 7.7007
15 4 -3.59805 11.8396 5.71401
338 2 -3.91113 9.09125 1.8005
34 4 -0.998289 11.8023 3.91627
337 1 -3.64743 9.32014 0.724304
67 1 -2.00167 7.1016 1.83166
71 1 -3.01722 8.01644 8.19167
72 1 -0.627448 9.19179 6.72268
78 1 0.106536 7.53929 4.32503
84 1 -1.4633 10.1051 3.00131
328 2 -5.41501 11.5749 7.85589
107 3 -6.51734 12.9183 2.85271
108 3 -4.5504 12.2325 1.04045
109 3 -5.11141 11.6203 4.89807
110 3 -3.23757 10.497 6.69577
111 3 -3.82362 13.0863 6.71201
132 3 1.90328 7.94948 2.275
134 3 -0.559644 12.7377 2.75742
135 3 -2.38891 12.1166 4.64204
339 2 -2.53966 9.7247 0.610678
141 3 0.322795 11.4062 4.83904
142 3 2.35519 10.1963 6.43047
222 2 -3.63128 7.80772 7.2787
209 2 -1.54436 8.08141 1.86951
217 2 0.482197 7.55829 7.0902
327 1 -6.21293 12.5245 7.87853
240 2 3.19974 7.22153 5.20828
223 2 -0.6423 8.20721 6.21736
224 2 0.232599 9.14099 7.59446
225 2 -0.335519 10.0124 6.01658
4 4 -4.83555 13.8099 7.65584
242 2 -0.48369 8.35991 3.80286
243 2 0.976101 7.99751 5.063
259 2 -0.409502 9.73049 2.80359
260 2 -2.13953 10.2829 2.09411
261 2 -1.95212 9.57785 3.88566
262 2 -0.509077 10.7506 1.31308
264 2 1.31154 7.96151 8.60337
85 1 -0.191215 11.0849 0.215587
208 2 -3.14032 7.14708 1.61414
21 4 0.508117 13.6591 7.84742
136 3 2.32438 10.1052 0.658989
139 3 -0.622028 12.7929 8.56067
297 4 -4.36331 11.004 0.0279273
362 2 -0.541828 12.1346 0.0293934
6 4 -4.82167 13.9294 13.8072
16 4 -2.14946 9.12318 13.4885
18 4 -3.37922 11.6887 11.9215
31 4 1.5285 7.6125 15.6328
37 4 -1.00722 11.7892 9.84473
40 4 1.38045 11.8307 11.6688
365 2 -4.53538 8.98174 10.9704
73 1 -0.702954 8.32934 12.5799
74 1 -1.08522 9.84244 14.9213
75 1 -4.74075 11.0082 10.7495
86 1 1.53021 9.01448 9.13322
112 3 -3.044 8.07236 14.2621
113 3 -2.91408 10.329 12.723
114 3 -3.84498 12.9479 12.7858
282 2 -3.69873 7.43204 11.86
130 3 -0.115612 7.71347 16.7381
138 3 -1.68899 10.4217 9.02264
140 3 -2.18487 12.2271 10.8663
144 3 1.82049 8.99247 14.8793
145 3 3.33138 8.36936 12.5833
146 3 0.340281 11.3278 10.5487
147 3 1.6244 10.6939 12.7903
148 3 0.833217 13.1731 12.5822
227 2 -0.0919467 7.51465 13.2619
228 2 -0.135716 9.23452 12.2796
229 2 -1.69521 10.7776 15.4731
230 2 -0.141552 10.1649 14.3839
231 2 -0.753146 9.02403 15.7554
232 2 -4.37127 10.3287 9.93074
233 2 -4.99466 12.0667 10.3357
220 2 -3.54893 7.97197 9.16484
254 2 2.45193 7.39875 9.92562
263 2 -0.397566 10.7822 16.6274
226 2 -1.39692 7.90065 11.7445
265 2 0.707655 9.75999 8.95006
266 2 1.67063 8.85872 10.2454
267 2 3.8539 7.57286 8.81922
298 1 -2.80739 12.3126 16.1213
299 3 -5.49783 10.9383 16.4934
300 2 -2.89189 11.9258 15.0486
301 2 -1.76998 12.0371 16.5752
302 2 -3.0252 13.4775 16.1437
340 1 -0.70408 13.6341 15.0088
39 4 2.65193 9.72158 13.6488
342 2 -0.601876 12.5506 14.7274
341 2 -0.18148 13.914 15.9492
356 3 -5.68903 12.9854 14.7569
343 2 -1.74939 14.0154 14.9678
32 4 4.18178 7.25199 11.8344
361 2 -3.74436 8.91033 17.201
2 4 14.2326 1.99855 3.88927
91 1 10.9433 5.35715 8.599
317 2 9.23727 6.56477 4.82907
364 2 12.2553 4.12957 3.61112
42 4 9.27706 2.13357 3.83141
46 4 11.8238 1.99702 5.6657
50 4 10.538 4.17563 1.80041
52 4 10.1305 3.92903 7.54658
89 1 11.708 4.99293 3.13699
90 1 9.15645 4.87501 6.12091
43 4 11.5806 1.93376 0.107332
273 2 12.3888 5.77308 2.72165
149 3 13.6593 0.841102 2.98442
150 3 8.81645 0.893745 2.92612
151 3 8.09479 2.57139 4.9976
153 3 11.7636 0.598306 1.00487
156 3 13.0273 2.75609 4.73148
157 3 10.6651 1.74463 4.62029
158 3 12.4288 0.651354 6.45341
165 3 9.66434 3.37494 2.84755
166 3 11.5715 3.1939 1.05839
168 3 9.74482 5.22395 0.827912
170 3 11.3168 3.14299 6.86281
278 2 10.3425 6.30884 8.33356
274 2 11.0259 5.50405 3.93494
275 2 9.48463 4.37358 5.20864
276 2 9.41423 5.98052 6.06177
277 2 7.97487 4.6462 6.31235
279 2 11.9924 5.36247 8.24045
287 2 7.95425 6.32767 6.8846
345 2 14.5341 1.45072 7.43385
306 1 8.78731 6.81763 3.82843
304 4 6.83197 6.78823 3.73695
303 4 5.5243 4.66213 1.67338
308 1 5.93297 5.59825 5.11896
309 3 6.21049 3.3623 1.07551
311 3 6.35225 5.91285 2.46613
316 2 9.14698 6.2031 3.00004
344 1 14.5871 0.590631 8.24159
322 2 5.36293 6.26542 5.82854
323 2 6.88319 5.17834 5.64563
169 3 9.15182 3.18054 8.61591
321 2 5.31629 4.88882 4.45482
286 2 7.02935 7.03978 8.30149
214 2 13.3114 4.57514 6.41692
7 4 14.307 2.20955 15.3537
12 4 12.0131 6.80349 15.3694
346 2 14.6157 1.05389 9.32471