ITEM: TIMESTEP
0
ITEM: NUMBER OF ATOMS
366
ITEM: BOX BOUNDS xy xz yz pp pp pp
-7.5839999999999996e+00 1.5901800000000000e+01 -7.5839999999999996e+00
0.0000000000000000e+00 1.4340199999999999e+01 1.7780000000000001e-01
0.0000000000000000e+00 1.7246500000000001e+01 4.3709999999999999e-01
ITEM: ATOMS id type x y z
115 3 6.87774 0.687651 0.91919
5 4 1.02807 2.17462 5.80515
9 4 0.0268468 4.02802 1.84722
11 4 -0.180567 4.9044 7.10238
27 4 1.40047 6.72184 3.27085
29 4 5.1358 3.92777 7.9739
64 1 2.48529 2.78667 4.69641
69 1 -1.70801 5.46165 5.76723
70 1 0.993158 6.55564 7.01422
76 1 5.52494 1.42787 4.52376
77 1 2.91312 6.31838 4.50816
79 1 3.73404 5.12014 7.1659
98 3 -0.238214 1.59205 4.88539
99 3 1.66108 1.10288 6.76649
102 3 -0.716862 3.09886 2.89866
103 3 1.14055 3.19518 1.0303
104 3 -1.00485 4.71263 0.911099
105 3 0.504978 3.55411 6.68942
210 2 -1.6566 6.60422 2.6704
124 3 0.911096 5.34871 2.77605
310 3 4.45774 5.38144 0.564829
199 2 2.86821 1.98221 3.94144
200 2 3.25634 2.96376 5.60508
201 2 2.05686 3.70853 4.14585
10 4 -1.46248 6.09782 0.22197
355 3 1.58685 0.670326 0.742999
215 2 -1.32086 5.30062 4.6911
216 2 -2.00861 6.51443 6.02457
218 2 1.7042 6.46837 6.0935
219 2 1.54951 6.42585 8.0155
235 2 5.4935 0.342995 4.87836
236 2 5.97434 1.613 3.50944
237 2 4.54865 1.92997 4.6113
238 2 3.6489 6.50003 3.60003
239 2 2.92758 5.22134 4.92747
241 2 -0.669172 6.86735 4.8053
244 2 2.80057 4.737 7.7196
245 2 3.73419 4.95449 6.00584
246 2 3.88156 6.19859 7.49993
305 1 4.32319 3.92859 2.88801
324 1 3.58043 0.473618 2.76336
312 2 4.90211 3.09831 3.54165
313 2 3.50879 3.45344 2.20537
314 2 3.78073 4.8171 3.52705
326 2 3.42153 1.54015 2.31948
118 3 7.22147 0.714816 6.83487
126 3 5.92148 3.20515 6.76575
23 4 6.74988 2.01865 5.92208
20 4 6.43631 2.08778 0.0470739
325 2 3.51267 0.438236 3.86267
3 4 1.43833 2.45911 17.1313
8 4 1.44596 2.24024 11.6831
212 2 -1.79564 5.28699 8.742
22 4 3.71028 1.82 9.82148
25 4 4.00237 2.31285 15.3342
26 4 6.28514 2.3294 11.6193
30 4 5.44325 4.76531 13.3839
253 2 3.51054 5.99965 9.44168
65 1 -0.378544 1.77085 11.2033
66 1 1.55119 3.92709 12.7079
68 1 -0.690354 4.80586 8.88069
81 1 1.10209 6.18522 14.4358
82 1 2.92763 6.50465 10.2591
100 3 -0.00710091 2.30711 16.2126
101 3 2.03379 1.10304 12.6066
106 3 -2.59953 6.51543 16.5644
116 3 3.35002 0.296689 9.07032
117 3 2.24056 2.40126 10.3328
119 3 3.84087 0.947416 14.5437
120 3 5.2715 2.13684 16.4013
121 3 2.62886 2.75665 16.0638
122 3 4.8491 1.74981 11.0738
123 3 6.93362 1.30667 12.7447
127 3 4.49243 3.66599 14.1973
131 3 4.51085 5.87711 12.6329
202 2 -0.537337 2.41386 10.2758
255 2 2.28266 5.77132 10.7327
333 2 -1.44528 4.73477 15.0561
205 2 2.51204 4.43961 12.4167
206 2 1.53708 3.67783 13.8392
207 2 0.65462 4.50706 12.3618
252 2 1.48274 6.54477 13.3728
129 3 2.83344 7.16226 16.4995
213 2 0.125606 5.48366 9.32437
332 2 -0.273089 3.90927 13.6553
331 1 -1.28305 3.87365 14.2862
250 2 -0.0279917 6.03955 14.5979
251 2 1.77678 5.37635 14.8974
125 3 4.2949 2.91022 8.83266
211 2 -0.725659 3.76127 9.29347
32 4 4.14956 7.13985 11.7628
24 4 7.97449 0.37953 13.4464
1 4 -5.38516 13.4944 1.77101
221 2 -2.09768 7.42227 8.11395
14 4 -2.26874 9.68525 7.7558
15 4 -3.66604 11.9692 5.65441
338 2 -3.96217 9.28199 1.60537
34 4 -0.91366 11.8363 3.96318
337 1 -3.65491 9.39326 0.462277
67 1 -1.83465 7.18362 1.76086
71 1 -3.09397 8.03436 8.17219
72 1 -0.758177 9.2459 6.66395
78 1 0.0895043 7.62028 4.29007
84 1 -1.30592 10.26 2.8971
328 2 -5.49963 11.5371 7.79968
107 3 -6.43794 13.0648 2.93442
108 3 -4.78295 12.0497 1.12269
109 3 -5.04137 11.6347 4.92534
110 3 -3.26619 10.6767 6.84579
111 3 -3.84247 13.3628 6.41855
132 3 1.98487 7.86831 2.32231
134 3 -0.594965 12.9732 2.90115
135 3 -2.33853 12.1157 4.6569
339 2 -2.51478 9.55123 0.345452
141 3 0.36764 11.4267 4.88917
142 3 2.14337 10.3004 6.49251
222 2 -3.7959 7.72827 7.37565
209 2 -1.13197 8.07263 1.69808
217 2 0.340693 7.47879 6.95943
327 1 -6.20514 12.429 7.81365
269 2 3.68998 7.76583 6.81064
223 2 -1.07394 8.29307 6.15781
224 2 0.0725697 9.09477 7.54636
225 2 -0.50157 10.0605 5.91318
4 4 -4.98801 13.8725 7.54233
242 2 -0.493382 8.58049 3.75819
243 2 0.852096 8.00774 5.08577
259 2 -0.26365 9.81712 2.56978
260 2 -1.97997 10.587 2.03756
261 2 -1.81592 9.64582 3.76967
262 2 -0.473241 10.7297 1.09535
264 2 1.08055 8.03024 8.53436
85 1 -0.083455 11.1389 0.0721853
208 2 -2.97205 7.48685 1.6298
21 4 0.471734 13.6786 7.80841
358 2 -3.04014 13.8951 2.29982
240 2 3.0705 7.11245 5.30222
19 4 0.286042 13.9413 1.96685
6 4 -4.74677 14.0503 13.633
16 4 -2.09457 9.00718 13.4465
18 4 -3.29107 11.7906 11.8193
31 4 1.50206 7.56601 15.7286
37 4 -0.927253 11.7821 9.83114
40 4 1.54497 11.7389 11.6783
365 2 -4.50552 9.05987 10.9522
73 1 -0.68597 8.11011 12.4708
74 1 -1.12166 9.66778 14.9499
75 1 -4.58182 11.1657 10.6282
86 1 1.23914 8.98513 9.11846
112 3 -3.04163 8.01894 14.3328
113 3 -2.76737 10.2369 12.777
114 3 -3.99528 12.9198 12.7523
234 2 -5.31284 10.507 11.2101
130 3 -0.0562348 7.45694 16.6216
138 3 -1.73369 10.3756 9.13701
140 3 -1.99318 12.3313 10.9004
144 3 1.79921 8.71495 14.7122
145 3 3.49417 8.43765 12.5566
146 3 0.399852 11.4077 10.5523
147 3 1.63473 10.4621 12.7175
282 2 -3.61305 7.514 11.6826
227 2 -0.0290895 7.51027 13.2527
228 2 -0.0854638 8.88977 11.923
229 2 -1.75254 10.617 15.536
230 2 -0.266014 10.054 14.2613
231 2 -0.870624 8.80283 15.6056
232 2 -4.02619 10.6131 9.75726
233 2 -5.00728 12.2178 10.3108
220 2 -3.56084 7.94169 9.19365
254 2 2.31585 7.37593 9.82198
263 2 -0.208179 10.8829 16.4989
362 2 -0.330055 12.6154 17.1627
265 2 0.364115 9.62502 9.04835
266 2 1.51245 8.80097 10.2199
297 4 -4.19961 11.4757 17.1635
298 1 -2.7065 12.3197 16.1006
361 2 -3.83246 8.87951 17.1017
300 2 -2.79836 11.9211 15.0658
301 2 -1.73854 12.0526 16.6128
302 2 -2.91245 13.4342 16.1251
340 1 -0.693812 13.4016 14.7283
39 4 2.68502 9.57769 13.5578
342 2 -0.630638 12.3157 14.5424
341 2 -0.269253 13.7693 15.7421
356 3 -5.87876 13.2051 14.4686
343 2 -1.75694 13.8752 14.5154
226 2 -1.2898 7.48909 11.7912
267 2 3.57724 7.63879 8.74014
299 3 -5.37608 11.2733 16.2127
148 3 1.02089 13.0347 12.5788
139 3 -0.622658 12.7108 8.64717
2 4 14.2254 1.85358 3.97069
91 1 10.9567 5.34454 8.47248
317 2 9.11488 6.61876 4.85519
364 2 11.9622 4.69544 3.78549
42 4 9.19779 2.12312 3.87917
46 4 11.7631 1.93354 5.71578
50 4 10.4784 4.13048 1.93204
52 4 10.0329 3.85485 7.44652
89 1 11.4772 5.39771 2.99857
90 1 9.04904 4.74832 6.0465
43 4 11.6169 1.91479 0.198311
214 2 13.1593 4.7606 5.96046
149 3 13.8521 0.615876 3.06698
150 3 8.69837 1.0216 2.8668
151 3 7.88781 2.54435 5.0431
153 3 11.8439 0.741473 1.3196
156 3 12.947 2.52635 4.53736
157 3 10.3894 1.53405 4.85639
158 3 12.2966 0.658348 6.45378
165 3 9.61105 3.39202 3.03106
166 3 11.5682 3.29579 0.975042
168 3 9.70679 5.30654 0.947697
170 3 11.2973 3.00486 6.85495
94 1 7.25686 7.10055 7.40531
274 2 10.7213 6.0421 3.48368
275 2 9.20799 4.47144 4.94211
276 2 9.59871 5.81758 6.36795
277 2 7.99075 4.61803 6.36436
279 2 12.0375 5.22817 8.04648
287 2 7.94907 6.28892 6.86161
345 2 14.6638 1.54471 7.48281
306 1 8.72164 6.95884 3.83911
304 4 6.77307 6.82518 3.75616
169 3 8.93016 3.34623 8.53002
308 1 5.84727 5.66222 5.0815
309 3 6.1367 3.34551 1.15929
311 3 6.50189 6.00348 2.47771
316 2 9.27743 6.47487 2.97103
344 1 14.7353 0.666367 8.24526
322 2 5.19133 6.24502 5.68141
323 2 6.65029 5.15061 5.66269
303 4 5.44097 4.67732 1.57913
278 2 10.5072 6.32881 8.13676
273 2 12.2656 5.99877 2.46161
286 2 7.12417 6.99911 8.45164
321 2 5.29754 4.9748 4.29611
7 4 14.2783 2.29426 15.3306
12 4 12.0263 6.78178 15.4272
346 2 14.864 1.08331 9.35371
283 2 7.85159 5.6769 10.9263
247 2 5.68556 5.93323 8.94897
45 4 8.73098 2.0804 9.67647
204 2 15.3608 0.632949 10.951
48 4 9.27958 2.64278 15.4996
49 4 11.3824 2.46423 11.565
51 4 9.3725 6.93631 16.952
53 4 10.635 4.72445 13.6481
28 4 4.3624 7.37784 17.09
80 1 6.27157 4.91361 9.17691
88 1 12.5624 2.72232 10.0209
54 4 6.71306 7.0826 15.1366
93 1 8.54909 6.38994 10.3255
128 3 6.14196 3.99631 12.1307
152 3 13.0092 2.38619 16.2914
154 3 8.77189 0.662194 8.92253
155 3 7.33953 2.38342 10.3727
159 3 13.9494 1.103 14.3086
160 3 9.04951 1.48779 14.3353
161 3 10.3925 2.12179 16.6211
162 3 7.79944 2.81236 16.2807
163 3 9.946 2.09605 10.9125
164 3 12.0576 1.29738 12.3678
280 2 10.8794 5.07703 9.526
359 2 13.5538 3.85596 13.6038
171 3 9.70851 3.93166 14.6156
172 3 11.2646 3.92103 12.3975
173 3 11.8825 5.38682 14.5316
174 3 6.46145 5.58454 14.3126
175 3 7.96112 6.87641 16.1941
177 3 9.86162 5.97091 12.8287
248 2 7.3441 4.93918 8.8495
249 2 6.21137 4.55269 10.2864
270 2 11.8052 2.94586 9.23783
271 2 12.9971 1.67615 10.0545
272 2 13.2798 3.53924 10.2268
284 2 9.32049 5.89482 9.62176
167 3 10.6357 7.26243 16.1374
203 2 14.67 1.97843 12.0347
257 2 6.70049 7.14561 10.7183
55 4 9.62491 7.22204 11.8841
33 4 3.1832 9.00244 1.8822
335 2 8.99862 10.5628 2.14915
13 4 9.0778 11.9513 4.15116
44 4 5.50754 13.674 7.71221
56 4 4.17383 11.44 3.87336
58 4 8.04209 8.94209 7.35856
60 4 6.50003 11.5105 5.87807
87 1 3.7785 8.34708 7.83971
366 2 10.0344 7.96777 6.49803
95 1 9.88298 9.02037 6.67421
133 3 4.30396 8.27067 1.01371
36 4 2.71641 9.87657 8.01382
137 3 1.36756 12.9024 1.10136
143 3 1.41545 12.7651 6.86476
178 3 3.76052 9.70834 3.22374
179 3 4.61438 12.4866 2.70649
180 3 2.89209 11.9979 4.65446
348 2 10.2387 8.55681 0.911924
185 3 7.88911 12.2037 5.20136
186 3 5.41423 11.2321 4.70934
187 3 7.20865 9.85805 6.32247
188 3 6.10775 12.2901 7.17063
360 2 9.74346 9.71432 3.72716
268 2 4.80624 8.81737 7.91962
289 2 10.4874 9.43537 7.48835
290 2 9.7418 9.59364 5.74101
307 1 6.1124 8.65689 3.88519
354 2 7.11744 10.3439 1.84969
363 2 7.99607 13.7686 7.93055
318 2 6.14638 9.31914 2.88145
319 2 6.59001 9.1683 4.87803
320 2 5.00832 8.14365 4.09902
41 4 5.33711 13.6655 1.95331
357 3 6.26361 12.9762 0.720061
334 1 8.87915 10.2731 3.25554
35 4 1.76965 11.6168 0.220065
336 2 7.74308 9.72102 3.52996
347 1 9.16777 7.93456 0.92748
349 2 8.90517 7.546 1.97415
350 2 8.3387 8.60582 0.52593
351 1 6.25799 10.3815 1.09888
352 2 6.29096 9.46768 0.489402
353 2 5.27327 10.4782 1.65518
315 2 8.63083 8.09023 3.73912
329 2 8.87779 12.3831 6.8024
38 4 1.74959 11.7071 5.71069
136 3 2.44734 10.2475 1.15569
288 2 6.22704 7.2407 6.87382
17 4 9.1495 11.8022 15.1532
295 2 8.48554 11.5478 10.2833
291 2 7.42258 10.6422 9.07613
57 4 6.45539 12.1575 16.9685
59 4 4.10957 12.0251 9.83294
61 4 8.02506 9.61294 13.389
62 4 3.83461 12.1042 15.0773
63 4 6.45869 11.7907 11.6947
83 1 5.69783 7.76938 10.8707
92 1 11.21 7.90764 11.0623
96 1 7.85597 9.60873 9.24959
97 1 7.9968 12.561 10.6469
183 3 4.60463 13.4654 9.15286
182 3 3.4608 11.0183 8.80896
181 3 7.83059 12.0727 16.0787
47 4 5.23335 14.1539 13.3373
184 3 2.88894 12.1605 10.9666
189 3 7.06738 8.4296 14.2595
190 3 8.88803 8.65293 12.2867
191 3 8.92066 10.5006 14.2529
192 3 3.72329 10.6472 14.2913
193 3 5.15362 11.9514 16.0448
194 3 4.07298 13.4146 14.2576
195 3 2.43709 12.3211 16.0279
196 3 5.49346 11.299 10.5453
197 3 7.02189 10.549 12.5959
198 3 6.10462 13.0294 12.5108
256 2 5.37092 8.07301 9.83252
176 3 5.42668 7.60957 15.9015
258 2 5.81099 8.71292 11.6002
330 2 8.99062 12.5082 8.85133
281 2 10.8702 7.21599 10.0443
292 2 8.95081 9.57599 9.48662
293 2 7.14079 8.90849 9.88636
294 2 7.64737 13.2717 9.72545
285 2 7.97131 7.25648 9.82123
296 2 8.55936 13.0352 11.4587
ITEM: TIMESTEP
100
ITEM: NUMBER OF ATOMS
366
ITEM: BOX BOUNDS xy xz yz pp pp pp
-7.5839999999999996e+00 1.5901800000000000e+01 -7.5839999999999996e+00
0.0000000000000000e+00 1.4340199999999999e+01 1.7780000000000001e-01
0.0000000000000000e+00 1.7237876750000002e+01 4.3709999999999999e-01
ITEM: ATOMS id type x y z
115 3 7.15526 0.701134 0.852234
5 4 0.958553 2.20952 5.92268
9 4 0.0816412 4.07738 1.8462
11 4 -0.152971 4.97923 7.16009
27 4 1.36203 6.81066 3.18972
29 4 5.04783 3.9639 7.99012
64 1 2.37542 2.7456 4.75669
69 1 -1.63675 5.3692 5.9118
70 1 1.08978 6.53127 6.91697
76 1 5.3314 1.48629 4.78584
77 1 3.00829 6.61023 4.31885
79 1 3.73164 5.13194 7.04877
98 3 -0.253743 1.74921 5.02424
99 3 1.75337 1.1939 6.90222
102 3 -0.7541 3.07393 2.73962
103 3 1.21902 3.23065 1.02479
104 3 -0.863931 4.82398 0.861471
105 3 0.570917 3.65949 6.64609
210 2 -1.71207 6.36798 2.69766
124 3 0.74577 5.37035 2.73045
310 3 4.51067 5.39523 0.629899
199 2 2.66365 1.88239 3.93622
200 2 3.26384 3.06224 5.38141
201 2 1.9035 3.67393 4.2982
10 4 -1.44124 6.23508 0.26804
355 3 1.70151 0.670108 0.519835
215 2 -1.5967 4.83771 4.91414
216 2 -1.93827 6.43883 5.81345
218 2 1.78112 6.49783 5.93701
219 2 1.75865 6.57405 7.79829
235 2 5.3138 0.408503 5.3401
236 2 5.89136 1.423 3.79324
237 2 4.20306 1.94737 4.75276
238 2 3.64598 6.62117 3.31407
239 2 3.0779 5.59744 4.88488
241 2 -0.605911 6.67048 4.74347
244 2 2.77438 4.6788 7.40201
245 2 3.81428 5.02278 5.84582
246 2 3.83623 6.24495 7.38007
305 1 4.25484 3.95607 3.02354
324 1 3.50094 0.43634 2.77163
312 2 4.69313 3.06981 3.70939
313 2 3.45297 3.58888 2.22597
314 2 3.83727 4.95889 3.57517
326 2 3.45607 1.53362 2.42043
118 3 7.28475 0.813367 6.94248
126 3 6.10858 3.32963 6.86926
23 4 6.77955 2.09974 5.90793
20 4 6.57358 2.09239 0.0915618
325 2 3.33274 0.251298 3.88815
214 2 -2.36065 4.77359 6.71973
3 4 1.56377 2.53559 17.0307
8 4 1.29075 2.22596 11.8229
212 2 -1.50853 5.65913 9.30913
22 4 3.64899 1.81629 9.83166
25 4 4.18377 2.4773 15.3453
26 4 6.17915 2.35515 11.5894
30 4 5.46975 4.80044 13.4402
253 2 3.80116 6.02069 9.59867
65 1 -0.651896 1.71814 11.2097
66 1 1.36412 3.90483 12.6237
68 1 -0.612469 4.97688 9.00691
81 1 1.03458 6.29283 14.255
82 1 3.02869 6.46885 10.3061
100 3 0.0488062 2.36998 16.2589
101 3 1.82093 1.08354 12.8583
106 3 -2.51267 6.50285 16.5816
116 3 3.38595 0.469688 8.99295
117 3 2.23085 2.19942 10.5246
119 3 3.91313 1.07154 14.5557
120 3 5.30265 2.31782 16.6116
121 3 2.69762 2.92273 15.9238
122 3 4.77289 1.75867 11.0897
123 3 6.93798 1.41842 12.8345
127 3 4.71979 3.6859 14.3443
131 3 4.45993 5.9127 12.6349
202 2 -0.807166 2.37994 10.3048
255 2 2.41121 5.6964 10.899
333 2 -1.53274 4.56594 14.9786
205 2 2.37967 4.32595 12.1625
206 2 1.37962 3.68635 13.7709
207 2 0.49484 4.61704 12.2934
252 2 1.44978 6.70546 13.3384
129 3 2.67127 7.13391 16.4968
213 2 0.44727 5.44814 9.31659
332 2 -0.416679 3.77856 13.5965
331 1 -1.43981 3.73556 14.1957
250 2 -0.0908504 6.13707 14.2264
251 2 1.70212 5.42843 14.7458
125 3 4.16433 2.93574 8.72563
211 2 -0.691121 3.85474 9.28169
28 4 4.27532 7.2455 17.1582
1 4 -5.38814 13.5131 1.69739
221 2 -2.173 7.47233 7.979
14 4 -2.3884 9.74522 7.71592
15 4 -3.54766 11.8851 5.72212
338 2 -4.11953 9.11109 1.71164
34 4 -0.95997 11.8149 3.99407
337 1 -3.7914 9.36481 0.664016
67 1 -2.02859 7.13375 1.86372
71 1 -3.19028 8.05925 8.09524
72 1 -0.717747 9.2526 6.73761
78 1 0.0581493 7.57779 4.22621
84 1 -1.37645 10.1842 2.98457
328 2 -5.55644 11.5785 7.74284
107 3 -6.48911 13.0454 2.96734
108 3 -4.58191 12.1155 1.18292
109 3 -4.96749 11.639 4.95951
110 3 -3.28821 10.6306 6.72754
111 3 -3.666 13.3057 6.58053
132 3 1.91802 7.96938 2.26713
134 3 -0.455689 12.9287 3.02442
135 3 -2.31018 12.0218 4.69606
339 2 -2.65051 9.75225 0.631481
141 3 0.257082 11.456 4.95636
142 3 2.20101 10.1279 6.40096
222 2 -3.95665 7.72895 7.23612
209 2 -1.38983 8.02478 1.83675
217 2 0.424241 7.47524 6.88245
327 1 -6.23706 12.4953 7.69465
240 2 3.32578 7.47357 4.96224
223 2 -1.05303 8.21488 6.31693
224 2 0.126886 9.12095 7.53125
225 2 -0.338913 10.0116 5.93916
4 4 -4.8939 13.9231 7.50529
242 2 -0.560148 8.44409 3.82321
243 2 0.863302 8.03196 5.01311
259 2 -0.399058 9.69154 2.7819
260 2 -1.94413 10.4997 2.12033
261 2 -2.05455 9.60405 3.67725
262 2 -0.559463 10.7251 1.2305
264 2 1.30108 7.86733 8.51477
85 1 -0.140982 11.1628 0.181618
208 2 -3.09777 7.41342 1.86147
21 4 0.489605 13.7016 7.92238
358 2 -3.10331 13.8239 2.48328
6 4 -4.73399 14.0623 13.7756
16 4 -2.15518 9.05131 13.5476
18 4 -3.35377 11.7813 11.9229
31 4 1.4292 7.57825 15.5926
37 4 -1.0207 11.762 9.83903
40 4 1.42859 11.8254 11.7646
365 2 -4.54735 9.06295 10.9143
73 1 -0.875901 8.2172 12.4686
74 1 -1.05991 9.79113 14.9445
75 1 -4.70355 11.1165 10.6843
86 1 1.48606 8.91777 9.019
112 3 -2.91886 7.9056 14.3271
113 3 -2.85386 10.5236 12.7907
114 3 -3.99967 12.9408 12.742
282 2 -3.65195 7.3624 11.4032
130 3 -0.0521691 7.69701 16.7181
138 3 -1.70694 10.3524 9.04554
140 3 -2.09348 12.3486 10.9384
144 3 1.85634 8.88213 14.7866
145 3 3.29284 8.47793 12.4483
146 3 0.29779 11.3817 10.6188
147 3 1.42742 10.436 12.6657
148 3 0.981622 13.1141 12.647
227 2 -0.177282 7.44928 13.0915
228 2 -0.198107 8.96868 11.947
229 2 -1.70005 10.6839 15.4043
230 2 -0.216368 10.2127 14.2821
231 2 -0.660865 8.95905 15.8123
232 2 -4.11609 10.4607 9.87159
233 2 -5.02082 12.1284 10.2796
220 2 -3.67699 8.04049 9.20633
254 2 2.44544 7.35054 9.85845
263 2 -0.232813 10.9064 16.5289
32 4 4.09348 7.31454 11.7394
265 2 0.522244 9.52086 9.0252
266 2 1.87453 8.86548 10.0491
297 4 -4.16816 11.5121 17.2338
298 1 -2.73195 12.3193 16.0579
361 2 -3.71937 8.96765 17.206
300 2 -2.82039 12.0035 15.0053
301 2 -1.6622 12.0146 16.442
302 2 -2.88194 13.4609 16.2024
340 1 -0.625239 13.6363 14.8214
39 4 2.70561 9.72136 13.4927
342 2 -0.347844 12.5748 14.7888
341 2 -0.341651 14.0883 15.824
356 3 -5.6412 13.0313 14.5881
343 2 -1.73966 13.8313 14.6052
226 2 -1.62768 7.67489 11.7915
267 2 3.74098 7.58731 8.75519
299 3 -5.36167 11.1101 16.3027
139 3 -0.574701 12.8285 8.77108
362 2 -0.194375 12.7328 17.2167
2 4 14.2402 1.98823 3.83659
91 1 11.0592 5.3389 8.43811
317 2 9.05328 6.70643 4.85822
364 2 12.1654 4.16418 3.78143
42 4 9.20928 2.1713 3.86921
46 4 11.8133 1.92881 5.55277
50 4 10.491 4.21514 1.85366
52 4 10.1826 3.88842 7.53452
89 1 11.5691 4.99888 3.16634
90 1 9.09644 4.85134 6.14531
43 4 11.6137 1.98506 0.10086
273 2 12.3875 5.79249 2.64956
149 3 13.7045 0.753618 3.0598
150 3 8.78525 1.01619 2.89903
151 3 7.84298 2.47188 4.82636
153 3 11.8245 0.696145 1.11364
156 3 12.9586 2.73744 4.62433
157 3 10.45 1.72714 4.77651
158 3 12.3392 0.541727 6.52477
165 3 9.52658 3.47989 2.90608
166 3 11.4924 3.26096 1.01773
168 3 9.58394 5.28875 0.836934
170 3 11.2621 2.99196 6.79106
278 2 10.4144 6.24031 8.18648
274 2 10.8141 5.5838 3.83857
275 2 9.39835 4.40728 5.21605
276 2 9.48684 5.93789 6.3474
277 2 7.92037 4.73729 6.4007
279 2 12.0834 5.47185 8.06361
287 2 7.90318 6.29501 6.92883
345 2 14.5217 1.54277 7.43116
306 1 8.67994 6.98605 3.83987
304 4 6.73271 6.73668 3.73761
303 4 5.40072 4.62003 1.63965
308 1 5.996 5.68229 5.13236
309 3 6.37027 3.37439 1.04678
311 3 6.28519 5.83295 2.53029
316 2 9.16705 6.40149 2.98846
344 1 14.6414 0.715714 8.18955
322 2 5.38123 6.36767 5.90045
323 2 6.79329 5.02296 5.65289
321 2 5.26276 4.99212 4.44626
286 2 6.99805 7.12894 8.38808
7 4 14.3454 2.27708 15.4457
12 4 12.145 6.67979 15.375
346 2 14.7359 1.0925 9.2788
283 2 7.85994 5.76999 10.6279
247 2 5.70348 5.96703 8.95571
45 4 8.84318 2.01318 9.74524
204 2 15.1459 0.559075 10.9955
48 4 9.23792 2.68423 15.472
49 4 11.4033 2.46936 11.5228
51 4 9.34279 6.85469 16.9504
53 4 10.655 4.79246 13.64
24 4 8.00318 0.472028 13.4464
80 1 6.17652 4.92604 9.23029
88 1 12.6232 2.79107 10.0624
54 4 6.72026 6.99904 15.2419
93 1 8.61133 6.50885 10.3099
128 3 6.16183 3.8582 12.169
152 3 13.0279 2.40042 16.3454
154 3 8.88445 0.564957 8.94947
155 3 7.39818 2.18813 10.4394
159 3 14.0715 1.0063 14.359
160 3 9.02107 1.38476 14.4811
161 3 10.4599 2.3001 16.445
162 3 7.85283 2.90327 16.2779
163 3 9.98934 2.18057 10.8936
164 3 12.1889 1.31442 12.4434
280 2 11.024 5.08286 9.54554
359 2 13.4275 3.62239 13.4876
171 3 9.68727 3.94613 14.6063
172 3 11.3671 3.78859 12.4012
173 3 11.9328 5.28901 14.5175
174 3 6.46702 5.71649 14.1732
175 3 7.96234 6.68996 16.2375
177 3 9.86345 6.0343 12.946
248 2 7.26681 4.79784 8.88712
249 2 6.08813 4.67618 10.306
270 2 12.0418 3.02921 9.13692
271 2 13.0981 1.7668 9.94704
272 2 13.2631 3.54079 10.4719
284 2 9.52958 6.04394 9.59142
167 3 10.6975 7.1301 16.0545
203 2 14.4535 1.94147 12.1295
169 3 9.18025 3.2088 8.6675
33 4 3.13812 9.1014 1.72085
335 2 8.92468 10.5997 2.0577
13 4 9.17745 11.8982 4.08556
44 4 5.50231 13.5281 7.6543
56 4 4.07688 11.3829 3.80066
58 4 8.04514 8.98056 7.32446
60 4 6.66397 11.4848 5.7547
87 1 4.05837 8.26418 7.84198
366 2 10.2697 7.95813 6.39776
95 1 9.99326 9.02591 6.8155
133 3 4.1983 8.12063 1.00117
36 4 2.88225 9.77368 7.853
137 3 1.61713 12.8183 1.32113
143 3 1.61715 12.6585 6.92578
178 3 3.73726 9.98548 2.97205
179 3 4.65844 12.4127 2.63122
180 3 2.89907 12.0408 4.6516
348 2 10.0293 8.50299 0.836716
185 3 7.89596 12.2004 5.10652
186 3 5.35836 11.1921 4.86939
187 3 7.39835 9.81987 6.16765
188 3 6.14962 12.1644 7.15671
360 2 9.75419 9.70709 3.54893
268 2 5.09455 8.6255 7.95169
289 2 10.5938 9.2381 7.76173
290 2 10.0968 9.82402 6.07048
307 1 6.12029 8.57173 3.8043
354 2 7.32978 10.321 1.8221
363 2 7.95142 13.8228 7.86601
318 2 6.21742 9.18517 2.82205
319 2 6.65519 9.04647 4.78844
320 2 5.07434 8.15489 4.00713
41 4 5.30969 13.7309 1.9534
357 3 6.39052 13.0738 0.786022
334 1 8.83287 10.2573 3.11498
35 4 1.78588 11.5342 0.272675
336 2 7.76724 9.66354 3.37744
347 1 9.04502 7.91451 0.880083
349 2 8.86611 7.50576 1.9396
350 2 8.17941 8.51042 0.413029
351 1 6.36527 10.2872 0.97533
352 2 6.39384 9.4116 0.224652
353 2 5.37608 10.3568 1.5371
315 2 8.51174 8.06661 3.65673
329 2 8.76841 12.5182 6.81533
38 4 1.79781 11.6415 5.78979
136 3 2.50789 10.2033 0.880003
288 2 6.24906 7.28568 6.65551
19 4 0.439663 13.884 2.04919
94 1 7.20927 7.21226 7.27254
269 2 3.81416 7.86454 6.75402
17 4 9.24067 11.787 15.1991
295 2 8.45545 11.6085 10.1505
291 2 7.33341 10.8451 8.82016
57 4 6.52419 12.2069 17.0136
59 4 4.02369 12.0219 9.85402
61 4 7.98386 9.58976 13.4558
62 4 3.87345 12.0379 15.1855
63 4 6.47969 11.8793 11.5569
83 1 5.67352 7.87489 10.8488
92 1 11.1486 7.80715 10.9873
96 1 7.68571 9.80589 9.04378
97 1 7.95412 12.5465 10.4797
183 3 4.6086 13.4026 9.05398
182 3 3.40171 10.9292 8.83894
181 3 7.84885 12.129 16.1078
47 4 5.36045 14.1581 13.4289
184 3 2.77083 12.3275 11.039
189 3 7.27904 8.37867 14.3323
190 3 8.84203 8.58314 12.3514
191 3 8.84461 10.6419 14.266
192 3 3.77582 10.7624 14.0542
193 3 5.18953 11.9345 16.1504
194 3 4.12759 13.3893 14.3563
195 3 2.48369 12.1891 16.0928
196 3 5.23807 11.4163 10.6783
197 3 6.99712 10.4887 12.5586
198 3 6.13291 13.0922 12.49
256 2 5.25467 8.3473 9.93835
176 3 5.36695 7.50856 15.9125
258 2 5.8452 8.76602 11.6514
330 2 8.97605 12.5514 8.72918
296 2 8.63723 13.1208 11.192
292 2 8.73138 9.79186 9.43208
293 2 6.95395 9.19888 9.73233
294 2 7.55451 13.2468 9.56279
285 2 8.18075 7.45909 9.88821
55 4 9.58341 7.28668 11.8962
281 2 10.8203 7.21029 10.0183
257 2 6.74786 7.27112 10.5976
234 2 10.1557 10.6519 11.2614
ITEM: TIMESTEP
200
ITEM: NUMBER OF ATOMS
366
ITEM: BOX BOUNDS xy xz yz pp pp pp
-7.5839999999999996e+00 1.5901800000000000e+01 -7.5839999999999996e+00
0.0000000000000000e+00 1.4340199999999999e+01 1.7780000000000001e-01
0.0000000000000000e+00 1.7229253500000002e+01 4.3709999999999999e-01
ITEM: ATOMS id type x y z
115 3 7.14926 0.885588 0.85911
5 4 1.02607 2.23085 5.83074
9 4 0.123052 4.02751 1.66632
11 4 -0.143678 4.96398 7.19181
27 4 1.35228 6.78514 3.22253
29 4 5.0338 4.01565 8.09692
64 1 2.33166 2.93401 4.61583
69 1 -1.74929 5.39917 5.91574
70 1 1.1605 6.51994 7.10891
76 1 5.26301 1.59314 4.95284
77 1 2.90684 6.43086 4.43969
79 1 3.78161 5.19502 7.22551
98 3 -0.188587 1.6352 4.95049
99 3 1.93301 1.21572 6.64576
102 3 -0.727992 3.06277 2.70746
103 3 1.29555 3.1653 1.08761
104 3 -0.745357 4.72612 0.414902
105 3 0.448307 3.59689 6.705
210 2 -1.70928 6.46764 2.71521
124 3 0.727978 5.26648 2.6719
310 3 4.3533 5.5045 0.675752
199 2 2.88368 2.06417 3.89312
200 2 2.99517 3.4434 5.27644
201 2 1.79152 3.68282 3.9817
10 4 -1.35094 6.26197 0.229623
355 3 1.72828 0.690047 0.683909
215 2 -1.37251 5.01453 4.966
216 2 -2.19507 6.4055 5.91216
218 2 1.77891 6.41552 6.11712
219 2 1.80279 6.38956 8.06838
235 2 5.08644 0.569981 5.51232
236 2 5.72941 1.3797 3.92487
237 2 4.17534 2.14265 4.83096
238 2 3.56985 6.51812 3.45181
239 2 2.91645 5.4266 4.87413
241 2 -0.659871 6.7297 4.88149
244 2 2.74278 4.85196 7.59392
245 2 3.84828 5.12407 6.09676
246 2 3.98142 6.36564 7.42544
305 1 4.34592 3.95973 2.92888
324 1 3.65707 0.644652 2.6544
312 2 4.74511 3.15046 3.70062
313 2 3.55883 3.49095 2.22292
314 2 3.76425 4.90298 3.54973
326 2 3.56886 1.71724 2.38075
118 3 7.3443 0.861252 6.80908
126 3 6.07646 3.29601 6.86812
23 4 6.79887 2.0969 5.95578
20 4 6.51708 2.20477 0.0137643
325 2 3.39389 0.459885 3.71091
358 2 4.63911 0.13498 2.29146
3 4 1.55093 2.45125 17.0615
8 4 1.20044 2.13497 11.8635
212 2 -1.98523 4.93524 8.89649
22 4 3.57172 1.93005 9.99997
25 4 4.07813 2.45972 15.3888
26 4 6.23359 2.34341 11.4883
30 4 5.33822 4.83783 13.4174
253 2 3.91624 6.0815 9.71737
65 1 -0.606194 1.74196 11.1698
66 1 1.20148 3.90337 12.6296
68 1 -0.844798 4.76182 8.87548
81 1 1.01289 6.27062 14.4196
82 1 3.11149 6.49343 10.3614
100 3 0.220836 2.25308 16.1021
101 3 1.73104 0.988293 12.968
106 3 -2.551 6.73668 16.5743
116 3 3.11787 0.437634 9.17998
117 3 2.13763 2.41837 10.6101
119 3 3.90142 1.02155 14.6732
120 3 5.28218 2.28673 16.5041
121 3 2.76982 2.91283 16.1352
122 3 4.79355 1.83921 11.0964
123 3 6.80696 1.37779 12.7021
127 3 4.64354 3.70543 14.3491
131 3 4.39245 5.88149 12.7579
202 2 -0.717529 2.29089 10.1981
255 2 2.48292 5.68808 10.9207
333 2 -1.51816 4.57803 15.0902
205 2 2.14867 4.4059 12.2783
206 2 1.3302 3.7902 13.7851
207 2 0.359026 4.52932 12.3084
252 2 1.36712 6.55054 13.3325
129 3 2.84688 7.1672 16.3118
213 2 -0.172287 5.65764 9.36529
332 2 -0.526131 3.81589 13.6623
331 1 -1.45523 3.78103 14.3227
250 2 -0.0743049 6.09425 14.5697
251 2 1.60582 5.40464 14.7626
125 3 4.23986 2.9758 8.98306
211 2 -0.591352 3.73324 9.30294
28 4 4.2579 7.28212 17.0885
24 4 7.89541 0.512664 13.5569
1 4 -5.28823 13.5997 1.73587
221 2 -2.00095 7.48093 8.10416
14 4 -2.25127 9.73429 7.69307
15 4 -3.59795 11.8455 5.70781
338 2 -3.90984 9.09116 1.79974
34 4 -0.999009 11.8066 3.91207
337 1 -3.64663 9.32024 0.724182
67 1 -2.00079 7.10336 1.83116
71 1 -3.01694 8.0231 8.18368
72 1 -0.627478 9.19862 6.71627
78 1 0.106324 7.5439 4.32064
84 1 -1.46479 10.1075 2.99958
328 2 -5.41525 11.5826 7.84965
107 3 -6.51777 12.9213 2.84938
108 3 -4.54982 12.2334 1.04007
109 3 -5.11159 11.6245 4.89339
110 3 -3.23733 10.5027 6.68965
111 3 -3.82327 13.093 6.70476
132 3 1.90257 7.95173 2.27203
134 3 -0.560741 12.7402 2.75359
135 3 -2.38955 12.122 4.63672
339 2 -2.53916 9.72397 0.611734
141 3 0.322604 11.4125 4.83367
142 3 2.35495 10.2027 6.42451
222 2 -3.6297 7.81026 7.27111
209 2 -1.54327 8.08256 1.86802
217 2 0.480458 7.56546 7.08456
327 1 -6.2132 12.5314 7.87001
240 2 3.19626 7.23677 5.1965
223 2 -0.644561 8.21204 6.21084
224 2 0.232955 9.14853 7.58647
225 2 -0.335415 10.0179 6.00945
4 4 -4.83547 13.8174 7.64786
242 2 -0.486504 8.36513 3.79684
243 2 0.976399 8.00545 5.05871
259 2 -0.411719 9.73306 2.80005
260 2 -2.14323 10.2861 2.09391
261 2 -1.95182 9.57892 3.88388
262 2 -0.508764 10.7517 1.31271
264 2 1.31282 7.96941 8.59387
85 1 -0.191598 11.0851 0.215652
208 2 -3.1393 7.14889 1.61295
21 4 0.508127 13.6671 7.83911
136 3 2.32499 10.1063 0.657821
139 3 -0.622515 12.8014 8.55122
297 4 -4.36316 11.0038 0.0286323
362 2 -0.542276 12.1342 0.0300365
6 4 -4.82162 13.9429 13.7929
16 4 -2.14961 9.13713 13.4739
18 4 -3.38002 11.701 11.9094
31 4 1.52814 7.62734 15.6172
37 4 -1.00787 11.7988 9.83468
40 4 1.3802 11.8425 11.6576
365 2 -4.53498 8.99235 10.958
73 1 -0.703056 8.34286 12.5658
74 1 -1.08428 9.85789 14.906
75 1 -4.74087 11.0191 10.7382
86 1 1.53059 9.02272 9.12444
112 3 -3.04369 8.08647 14.2468
113 3 -2.91391 10.3404 12.7111
114 3 -3.84526 12.9606 12.7727
282 2 -3.69849 7.44413 11.8477
130 3 -0.116643 7.73009 16.7223
138 3 -1.68988 10.4297 9.01465
140 3 -2.18491 12.2383 10.8554
144 3 1.8204 9.00662 14.8656
145 3 3.33142 8.38052 12.57
146 3 0.33982 11.3382 10.5384
147 3 1.62429 10.7066 12.7777
148 3 0.83316 13.1855 12.5694
227 2 -0.092253 7.529 13.2472
228 2 -0.136115 9.24793 12.2654
229 2 -1.69523 10.7941 15.4574
230 2 -0.140102 10.1807 14.3698
231 2 -0.753273 9.04 15.7392
232 2 -4.37084 10.3397 9.91886
233 2 -4.9951 12.0788 10.3242
220 2 -3.54946 7.98004 9.15666
254 2 2.45099 7.40707 9.91641
263 2 -0.400126 10.7993 16.6107
226 2 -1.39737 7.91404 11.7303
265 2 0.707638 9.76806 8.94134
266 2 1.6714 8.86683 10.236
267 2 3.85255 7.57786 8.81071
298 1 -2.80763 12.3288 16.1046
299 3 -5.4985 10.9539 16.4783
300 2 -2.89226 11.9412 15.0328
301 2 -1.77076 12.0528 16.5586
302 2 -3.02493 13.4935 16.1261
340 1 -0.704157 13.649 14.9956
39 4 2.65196 9.73483 13.6351
342 2 -0.602575 12.5656 14.7147
341 2 -0.180741 13.9291 15.9351
356 3 -5.68875 13 14.7423
343 2 -1.74957 14.0306 14.9548
32 4 4.18138 7.26367 11.8229
361 2 -3.74138 8.92599 17.185
2 4 14.2332 2.00246 3.88561
91 1 10.9427 5.36425 8.59003
317 2 9.24284 6.57556 4.82392
364 2 12.2561 4.13294 3.60855
42 4 9.27667 2.13756 3.82763
46 4 11.8231 2.00287 5.66116
50 4 10.5381 4.1785 1.7982
52 4 10.1331 3.93697 7.54007
89 1 11.7081 4.99602 3.13491
90 1 9.15679 4.87955 6.11693
43 4 11.5807 1.93435 0.107179
273 2 12.3888 5.77568 2.71965
149 3 13.66 0.843775 2.98184
150 3 8.81591 0.897002 2.92317
151 3 8.09454 2.57695 4.99214
153 3 11.7638 0.59957 1.00442
156 3 13.028 2.76124 4.72628
157 3 10.6646 1.74923 4.61626
158 3 12.4289 0.657366 6.44657
165 3 9.66455 3.37809 2.84423
166 3 11.5719 3.1957 1.0569
168 3 9.74603 5.22494 0.828147
170 3 11.3174 3.14951 6.85723
278 2 10.3348 6.31558 8.31636
274 2 11.0276 5.50704 3.9333
275 2 9.47266 4.38438 5.19067
276 2 9.41742 5.99 6.06163
277 2 7.96459 4.66197 6.30219
279 2 11.9968 5.36418 8.22318
287 2 7.95403 6.33782 6.87865
345 2 14.5342 1.45697 7.4219
306 1 8.78804 6.82248 3.8243
304 4 6.83275 6.79168 3.73316
303 4 5.52486 4.66429 1.67141
308 1 5.93088 5.60278 5.11324
309 3 6.21049 3.36282 1.07583
311 3 6.35276 5.9156 2.46347
316 2 9.14851 6.21056 2.99783
344 1 14.5872 0.599461 8.23315
322 2 5.36627 6.26869 5.82914
323 2 6.89209 5.16709 5.64172
169 3 9.15108 3.18986 8.60743
321 2 5.32192 4.9131 4.44087
286 2 7.02634 7.04556 8.29476
214 2 13.3178 4.5795 6.41732
7 4 14.3077 2.22514 15.3382
12 4 12.0132 6.81904 15.3537
346 2 14.6274 1.07023 9.31421
283 2 7.74145 5.76022 10.7307