ITEM: TIMESTEP
0
ITEM: NUMBER OF ATOMS
366
ITEM: BOX BOUNDS xy xz yz pp pp pp
-7.5839999999999996e+00 1.5901800000000000e+01 -7.5839999999999996e+00
0.0000000000000000e+00 1.4340199999999999e+01 1.7780000000000001e-01
0.0000000000000000e+00 1.7246500000000001e+01 4.3709999999999999e-01
ITEM: ATOMS id type q x y z
215 2 0.18841 -2.02903 5.52963 4.90748
5 4 1.33473 1.0099 2.14615 5.66962
9 4 1.54418 0.146227 4.14293 1.70087
11 4 0.930586 -0.37519 4.88229 6.96392
27 4 1.17865 1.3925 6.68263 3.35827
29 4 1.19228 5.14542 3.94189 7.80039
64 1 -0.652049 2.21604 2.78943 4.36573
69 1 -0.646147 -2.00622 5.45016 6.02193
70 1 -0.658172 0.668965 6.41282 7.09403
76 1 -0.665666 5.64692 1.54926 4.60066
77 1 -0.663005 2.7492 5.98614 4.62745
79 1 -0.663537 4.09551 5.10733 6.80693
98 3 -0.780874 -0.309986 1.54706 4.88075
99 3 -0.818393 1.8844 1.15245 6.58358
102 3 -0.870319 -0.622724 3.14276 2.78813
103 3 -0.828889 1.19006 3.27086 0.813316
104 3 -0.813207 -0.923317 4.89631 0.665664
105 3 -0.776093 0.441109 3.66204 6.29515
210 2 0.170361 -1.70541 6.80417 2.57444
124 3 -0.818884 0.846905 5.408 2.58499
10 4 1.26414 -1.29292 6.34385 0.072812
199 2 0.218326 1.69677 2.41735 3.39841
200 2 0.180459 3.1589 2.26645 4.49915
201 2 0.188598 2.36449 4.02551 4.41098
240 2 0.154885 3.19406 6.96908 5.05571
355 3 -0.787645 1.54449 0.76946 0.821557
324 1 -0.690267 4.1009 0.82685 1.8585
216 2 0.147312 -2.39813 6.47307 6.63692
218 2 0.167401 1.61571 6.35843 6.48212
219 2 0.12868 0.921952 6.16494 8.25983
235 2 0.263739 5.99586 0.630306 3.94003
236 2 0.154877 5.16798 2.50129 3.92329
237 2 0.20103 4.80778 1.16397 5.33158
238 2 0.174975 3.4462 5.31409 4.0417
239 2 0.173046 2.20781 5.42321 5.43472
241 2 0.17626 -0.712885 6.55974 4.96632
244 2 0.182047 3.05561 4.78417 7.03605
245 2 0.157388 4.42973 4.60093 5.79804
246 2 0.160277 4.21777 6.30805 6.94336
305 1 -0.659891 4.29558 3.95411 2.79301
310 3 -0.832411 4.63452 5.54626 0.549422
312 2 0.180526 4.18155 2.80646 2.49653
313 2 0.206103 3.40288 4.54919 2.33598
314 2 0.140099 4.55882 4.22859 3.8688
325 2 0.193322 4.50347 1.06778 2.86786
326 2 0.211909 3.84128 1.68087 1.19612
118 3 -0.852822 7.33655 0.66788 6.67258
115 3 -0.867416 7.06177 0.829893 0.589344
273 2 0.173647 -3.2 5.99361 2.44281
126 3 -0.807676 6.18989 3.23234 6.82507
358 2 0.236026 4.81719 0.0696903 1.36352
331 1 -0.667225 -1.43329 3.90651 14.2539
8 4 1.20237 1.37463 2.27152 11.8434
253 2 0.153548 1.3965 5.59745 11.5892
22 4 1.49978 3.70934 1.8857 9.82138
25 4 1.53913 4.15028 2.441 15.1632
26 4 1.58068 6.27052 2.39563 11.4228
131 3 -0.808498 4.18384 5.75293 12.2956
30 4 1.51658 5.28563 4.81914 13.3482
65 1 -0.671533 -0.53318 2.47171 11.5453
66 1 -0.686338 1.61548 3.86743 12.9542
251 2 0.16288 0.625474 5.6913 14.9467
81 1 -0.677106 1.59329 6.1983 14.5368
82 1 -0.657706 1.62265 6.74723 11.2956
100 3 -0.76452 0.0726897 2.32759 16.1947
101 3 -0.824368 1.62853 0.916467 12.6727
106 3 -0.824747 -2.3938 6.84245 16.2644
116 3 -0.799744 3.31762 0.46137 9.08475
117 3 -0.788938 2.09666 2.41695 10.5021
119 3 -0.844087 3.72628 1.10147 14.2995
120 3 -0.812863 5.30795 2.31889 16.3427
121 3 -0.810581 2.63943 2.69282 15.9884
122 3 -0.813238 4.7419 1.82108 11.0803
123 3 -0.826574 6.95839 1.26893 12.4053
127 3 -0.81979 4.32411 3.86272 14.3797
3 4 1.60102 1.43032 2.48678 16.9979
202 2 0.167158 -0.756715 3.06969 10.4935
203 2 0.181318 -0.89085 3.0275 12.4801
333 2 0.229956 -1.62018 4.73466 15.0648
205 2 0.236899 2.59631 4.34598 12.5825
206 2 0.233322 1.7053 3.59008 14.0288
207 2 0.144057 0.738079 4.60279 12.8206
252 2 0.220616 2.52424 5.69222 14.889
212 2 0.152626 -1.30561 4.86693 9.44812
213 2 0.194 -0.0287316 3.65298 9.06214
254 2 0.146465 1.90849 6.8726 10.154
332 2 0.141307 -0.213439 3.87692 13.8012
250 2 0.187839 1.58441 6.43988 13.3496
128 3 -0.836037 6.04718 3.83266 12.322
68 1 -0.679201 -0.985465 4.08678 8.75119
125 3 -0.830299 4.22185 3.01237 8.74618
32 4 1.17356 3.5066 7.05261 11.7705
20 4 1.56371 6.73409 2.68805 17.2042
1 4 1.33319 -5.10824 13.7337 1.68763
328 2 0.167201 -5.87091 11.3622 7.72997
14 4 1.15306 -1.97743 9.69558 7.84694
15 4 1.52469 -3.30399 11.8472 5.97659
338 2 0.171404 -3.34923 10.5546 2.21619
34 4 1.28776 -0.812218 11.9057 3.87447
21 4 1.66214 0.516645 13.6966 7.77046
208 2 0.180383 -2.95913 7.42193 1.22309
71 1 -0.646495 -3.0413 7.9679 7.80264
72 1 -0.679575 -0.392777 9.51021 6.83605
78 1 -0.658949 0.0339584 7.38908 4.39784
84 1 -0.688651 -0.595851 10.2788 2.94315
67 1 -0.68346 -1.89592 7.32545 1.59379
107 3 -0.74735 -5.64583 13.3629 3.29011
108 3 -0.817333 -4.68757 12.3364 0.878812
109 3 -0.824004 -4.78169 11.5809 5.12806
110 3 -0.82813 -2.92318 10.6601 6.99515
111 3 -0.81374 -3.54034 13.3233 6.7026
132 3 -0.812837 2.24588 7.80705 2.63814
134 3 -0.799321 -0.896511 13.2797 2.7683
135 3 -0.825051 -2.09573 11.8843 4.9355
339 2 0.137315 -2.78133 9.55324 0.675214
141 3 -0.8295 0.653088 11.8872 4.77247
361 2 0.1668 -4.2083 8.97956 1.80609
337 1 -0.668451 -3.67325 9.86416 1.38408
209 2 0.167816 -1.25335 8.2881 1.43184
217 2 0.146172 0.137489 7.57123 7.05196
262 2 0.175233 -0.810941 11.7088 0.192842
222 2 0.167924 -3.43487 7.85089 6.82241
223 2 0.18147 -0.405956 8.80872 5.93141
224 2 0.189419 0.534008 9.22829 7.54934
225 2 0.238396 -0.363698 10.5855 6.51844
264 2 0.1646 1.53817 7.95738 8.09032
242 2 0.161704 -0.398214 7.99402 3.45043
243 2 0.164683 0.79361 8.03006 5.06247
259 2 0.209991 0.236434 9.78081 3.49726
260 2 0.180904 -0.348951 10.5068 1.83176
261 2 0.158098 -1.63265 9.82663 3.12815
142 3 -0.808855 2.24758 10.3157 6.19296
329 2 0.215781 -6.80705 13.0015 6.99406
327 1 -0.66706 -6.12404 12.5895 7.85435
13 4 1.34494 -6.02666 11.9161 4.16737
360 2 0.180971 -5.32156 10.1986 2.45353
221 2 0.12877 -2.00752 7.45708 7.99553
4 4 1.33103 -4.75593 13.955 7.52252
263 2 0.186782 -0.243143 9.86282 0.211721
269 2 0.153563 3.78294 7.71192 6.1368
136 3 -0.800877 2.35178 10.0451 1.07971
297 4 1.16053 -4.37048 11.0651 0.0152115
6 4 1.57969 -4.86615 13.9337 13.5852
16 4 1.19866 -2.20379 9.12098 13.2811
18 4 1.34359 -3.33538 11.8879 11.6577
31 4 1.33886 1.64996 7.71571 15.6768
37 4 1.52903 -0.886874 11.8237 9.86409
341 2 0.257683 -1.93335 13.4795 13.7954
342 2 0.180313 -0.628653 13.5903 15.2118
73 1 -0.658442 -1.01326 8.57707 11.8658
74 1 -0.666849 -0.989112 9.89679 14.5815
75 1 -0.687747 -4.74473 11.4457 10.4894
86 1 -0.664236 2.13915 8.79751 8.67475
112 3 -0.790395 -2.99888 7.92871 13.9351
113 3 -0.773383 -2.86674 10.3491 12.5717
114 3 -0.819325 -3.9574 12.9688 12.7438
139 3 -0.880017 -0.431781 12.7061 8.64575
356 3 -0.832565 -5.66116 12.8338 14.5866
138 3 -0.810481 -1.61301 10.2178 9.30515
140 3 -0.803896 -2.07319 12.4824 10.8935
144 3 -0.812069 1.66977 9.09 14.5165
362 2 0.207402 0.211883 11.4472 15.9969
146 3 -0.869334 0.422351 11.3091 10.6215
39 4 1.64932 2.77172 9.64931 13.5694
85 1 -0.69467 0.0593231 11.3656 17.1077
227 2 0.184619 -0.0309486 8.76795 12.3932
228 2 0.266116 -1.20933 9.35034 10.9692
229 2 0.155375 -1.73306 10.7086 15.1164
230 2 0.208787 -0.155811 10.3718 13.9828
231 2 0.255043 -0.606283 9.0742 15.2347
129 3 -0.845523 3.07169 7.74292 16.4268
233 2 0.187148 -4.1817 11.1987 9.51049
234 2 0.202411 -5.35167 12.4532 10.4457
220 2 0.173199 -3.85821 7.91305 8.7767
343 2 0.174479 -0.849086 11.9185 14.2368
147 3 -0.856964 2.19011 10.6083 12.4556
265 2 0.208758 1.55819 9.46822 9.34259
266 2 0.153057 3.06864 8.35044 9.33122
226 2 0.155459 -1.1153 7.45549 11.5332
298 1 -0.673185 -2.80314 12.1927 15.9933
299 3 -0.797137 -5.39082 10.8376 16.3975
300 2 0.196226 -3.20606 11.6668 15.0402
301 2 0.156678 -1.74973 11.8178 16.3403
302 2 0.224212 -2.85864 13.3121 15.8443
340 1 -0.672608 -0.925336 13.1283 14.1705
130 3 -0.799598 0.317087 7.75838 16.5413
255 2 0.17467 0.70249 7.42637 11.6104
232 2 0.177889 -5.42127 10.6166 10.8107
145 3 -0.805889 3.367 8.39295 12.6964
24 4 1.42353 0.285733 14.1701 13.1553
330 2 0.171304 -6.62403 12.64 8.87734
2 4 1.62503 14.3861 2.14247 3.66826
286 2 0.122598 8.49641 6.85181 8.48871
322 2 0.134572 6.05304 6.61636 5.53279
321 2 0.204667 6.27739 4.68781 4.99359
42 4 1.61741 9.31478 2.23556 3.77732
46 4 1.6053 11.8869 2.01255 5.3736
50 4 1.38637 10.4834 4.41369 1.85068
52 4 1.1272 10.4371 4.06525 7.49809
89 1 -0.674315 11.7824 5.23933 3.0135
90 1 -0.674559 9.75354 5.52948 6.29264
345 2 0.192408 14.6919 1.62464 7.27339
315 2 0.240348 9.32692 6.52638 2.51117
149 3 -0.826011 13.8047 0.936148 2.82376
150 3 -0.848061 8.59806 1.20214 2.84925
151 3 -0.822648 8.14138 2.47583 5.0476
153 3 -0.854236 11.6679 0.838044 1.09454
156 3 -0.846282 13.1137 2.83642 4.59587
157 3 -0.86204 10.6417 1.66205 4.46861
158 3 -0.816529 12.4873 0.679413 6.16921
165 3 -0.854264 9.60316 3.5707 2.87493
166 3 -0.855184 11.2588 3.42963 0.88886
168 3 -0.810964 9.63533 5.65182 0.973544
170 3 -0.814441 11.3744 3.01106 6.5077
364 2 0.241484 12.2833 4.36971 3.62289
274 2 0.160725 11.1189 5.90288 3.61897
275 2 0.146207 10.5746 6.20586 5.93831
276 2 0.154177 8.91417 6.20474 6.87578
277 2 0.194692 9.33105 4.77348 5.53015
278 2 0.163262 11.5725 6.04347 8.06084
287 2 0.166995 7.22031 6.69014 6.86658
323 2 0.174182 7.85914 5.73833 5.62644
344 1 -0.658953 14.7227 0.769836 8.12223
304 4 0.947652 6.99094 6.89674 3.56407
303 4 1.43924 5.54704 4.86338 1.55726
308 1 -0.622797 6.78927 5.75853 5.12539
169 3 -0.790743 9.31164 3.47745 8.47411
311 3 -0.807941 6.31014 5.93736 2.4779
309 3 -0.820721 6.22302 3.51128 0.999168
214 2 0.214298 13.1835 4.49497 6.42018
316 2 0.16309 9.34042 6.58469 4.4589
43 4 1.67531 11.4277 2.04318 0.113109
23 4 1.44064 6.95845 1.99169 5.89892
91 1 -0.670014 11.681 5.03545 8.61246
19 4 1.53176 7.87782 0.180673 1.79453
211 2 0.162047 13.9426 3.28807 8.44849
7 4 1.36184 14.0797 2.42606 15.3687
248 2 0.224982 7.16482 5.01337 8.64379
204 2 0.200662 14.8638 1.40161 11.5251
167 3 -0.810585 10.7476 7.28104 15.8002
247 2 0.173986 5.68343 6.05278 9.18183
45 4 1.58525 8.69042 2.22836 9.59135
12 4 1.53595 12.1472 6.86342 15.1405
48 4 1.62917 9.22218 2.5909 15.3315
49 4 1.3982 11.1419 2.21347 11.7484
51 4 1.3788 9.40332 6.94359 16.7928
53 4 1.54837 10.8423 4.64366 13.5189
154 3 -0.852099 8.75316 0.880911 8.80519
80 1 -0.659606 6.12821 5.05092 9.08225
88 1 -0.650366 12.2416 2.30035 10.218
346 2 0.170443 14.4515 1.14391 9.15746
93 1 -0.662989 7.72007 6.75263 11.0965
359 2 0.237331 13.4619 3.82237 13.4495
152 3 -0.820655 12.9475 2.72749 16.4357
282 2 0.175306 11.5508 6.92824 10.686
155 3 -0.86689 7.17692 2.62093 10.0934
159 3 -0.791821 13.6241 1.16263 14.5033
160 3 -0.773255 8.74901 1.40209 14.2733
161 3 -0.867038 10.3213 2.13746 16.4075
162 3 -0.788242 7.80441 3.16103 16.0629
163 3 -0.810828 9.60006 2.17535 10.9483
164 3 -0.860598 11.8602 1.06518 12.5204
54 4 1.60799 6.76465 7.10565 14.9986
280 2 0.18195 11.1431 5.00022 9.62787
171 3 -0.851954 9.83368 3.76913 14.4873
172 3 -0.826303 11.4942 3.74639 12.2928
173 3 -0.8273 11.993 5.40515 14.2798
174 3 -0.839057 6.23843 5.88676 14.1699
175 3 -0.781808 8.17998 6.49892 15.9671
177 3 -0.771034 9.96367 5.90319 12.621
249 2 0.24392 6.03162 4.4741 10.0323
285 2 0.160715 7.73087 6.83031 9.89248
270 2 0.257028 11.9432 1.31202 9.69906
271 2 0.187614 13.3616 2.32032 10.5794
272 2 0.190389 11.9831 3.27689 9.59707
284 2 0.232846 7.52618 5.69355 11.5206
279 2 0.171583 12.829 4.72056 8.7104
55 4 1.17206 9.50866 7.21719 11.8273
35 4 1.41494 1.67147 11.4434 0.396997
36 4 1.16449 3.20187 9.88607 7.39009
317 2 0.153439 9.10312 8.23208 3.43003
44 4 1.37432 5.59789 13.7451 7.34772
56 4 1.6045 4.36579 11.4644 3.83312
58 4 0.913305 8.0075 9.20867 7.58947
60 4 1.51854 6.90965 11.492 5.59559
87 1 -0.678805 4.30321 8.41906 6.88265
267 2 0.136501 4.74015 7.93024 7.86907
95 1 -0.674099 9.98159 9.3774 7.61015
133 3 -0.834942 4.45404 8.44571 1.07111
33 4 1.54274 3.28588 9.02788 1.99092
38 4 1.63522 1.94487 11.9218 5.65736
335 2 0.173593 8.38013 10.5982 2.33347
178 3 -0.825283 3.89483 9.90371 3.20724
179 3 -0.854804 4.74408 12.5749 2.6205
180 3 -0.855451 3.2659 12.12 4.79696
353 2 0.267017 5.76392 9.80037 1.18695
185 3 -0.819195 8.21102 11.9996 4.87308
186 3 -0.861058 5.78046 11.2311 4.49102
187 3 -0.812144 7.43252 9.74551 6.25069
188 3 -0.856589 6.40416 12.3985 6.7636
143 3 -0.841671 1.66578 12.8297 6.95022
268 2 0.18263 5.06639 9.13388 6.33324
357 3 -0.773883 6.17293 13.2867 0.63961
354 2 0.212302 6.80573 11.0628 2.2137
307 1 -0.634336 6.23052 8.62782 3.88116
182 3 -0.840286 3.82482 11.0778 8.41007
94 1 -0.653945 7.50732 7.2224 7.92085
318 2 0.217215 6.3198 9.36401 2.91052
319 2 0.264836 6.68843 9.08657 4.93874
320 2 0.18477 5.1478 8.09417 3.93169
306 1 -0.678352 8.97219 7.09694 3.4465
41 4 1.6469 5.2341 13.8301 1.85454
334 1 -0.662959 9.35147 10.4163 3.04768
366 2 0.147722 10.1109 8.25762 7.31908
336 2 0.167327 9.07947 9.63662 3.8222
347 1 -0.692558 8.59962 8.06371 0.371782
349 2 0.181205 8.77808 7.76751 1.5574
289 2 0.17375 10.4843 9.63584 8.52883
351 1 -0.710595 6.6651 10.5185 1.25464
352 2 0.181363 7.60175 10.0405 0.862902
363 2 0.183748 8.11197 13.9365 8.09125
290 2 0.216495 10.2075 10.1138 6.79316
137 3 -0.811025 1.30232 12.7503 1.21512
288 2 0.157896 6.62589 7.33541 8.61508
17 4 1.54499 9.26837 11.6343 15.3164
365 2 0.183985 11.0315 8.82279 10.5731
148 3 -0.827761 1.17066 13.1302 12.3185
281 2 0.138215 10.3289 7.4427 9.37312
59 4 1.58496 4.23112 12.0949 9.54938
61 4 1.55506 8.08303 9.45372 13.4736
62 4 1.64985 3.91098 11.8629 15.3062
63 4 1.38358 6.55961 11.9437 11.5556
83 1 -0.662452 4.66976 7.68611 10.3048
92 1 -0.665964 10.703 7.69376 10.4175
96 1 -0.661845 7.27014 9.92643 9.22926
97 1 -0.677763 8.06738 12.7231 10.663
28 4 1.54108 4.52204 7.58803 17.112
47 4 1.64176 5.06752 13.9518 13.4628
181 3 -0.808202 7.93011 12.2695 16.2791
176 3 -0.838331 5.72149 7.78224 16.0938
184 3 -0.831005 3.00763 12.3173 10.5894
189 3 -0.859349 7.16962 8.29908 14.0594
190 3 -0.771027 9.30216 8.65707 12.6063
191 3 -0.864875 8.74692 10.3916 14.5067
192 3 -0.819065 3.81912 10.4602 14.4423
193 3 -0.841632 5.20061 11.7992 16.3039
194 3 -0.881232 4.12415 13.0253 14.2711
195 3 -0.830834 2.52238 12.0303 16.216
196 3 -0.851665 5.53316 11.6409 10.4443
197 3 -0.762829 7.14125 10.4612 12.3065
198 3 -0.850249 6.07307 13.1365 12.5584
291 2 0.19211 7.58003 10.9933 9.2
40 4 1.61233 1.71998 11.8283 11.4555
258 2 0.192981 4.4442 8.77807 10.507
295 2 0.155978 8.6658 11.7621 10.4233
257 2 0.179387 5.81364 7.43981 10.6421
283 2 0.189805 7.10631 7.59543 11.5831
293 2 0.205171 6.17747 9.75347 8.99054
294 2 0.158483 7.72079 13.4201 9.67064
348 2 0.254903 9.33739 9.38184 17.2293
57 4 1.42918 6.58961 12.2532 17.0479
183 3 -0.80286 4.63126 13.5665 8.73468
256 2 0.119989 4.48233 7.39949 9.15719
296 2 0.219153 8.601 13.407 11.4178
292 2 0.184211 7.629 9.35795 10.164
350 2 0.213452 7.70604 8.46931 17.2457
ITEM: TIMESTEP
100
ITEM: NUMBER OF ATOMS
366
ITEM: BOX BOUNDS xy xz yz pp pp pp
-7.5495069999999984e+00 1.5901800000000000e+01 -7.5495069999999984e+00
0.0000000000000000e+00 1.4340199999999999e+01 1.7780000000000001e-01
0.0000000000000000e+00 1.7246500000000001e+01 4.3709999999999999e-01
ITEM: ATOMS id type q x y z
215 2 0.175207 -2.01145 5.86796 4.8743
5 4 1.26966 1.09917 2.2407 5.5981
9 4 1.49781 0.0942922 4.19761 1.56953
11 4 0.918331 -0.39118 4.90445 7.03758
27 4 1.19339 1.48577 6.7179 3.33742
29 4 1.18876 5.06404 3.90559 7.77788
64 1 -0.652106 2.13842 2.86649 4.25968
69 1 -0.632274 -1.90396 5.6416 5.98322
70 1 -0.64897 0.651072 6.4567 7.25095
76 1 -0.688857 5.66002 1.44762 4.57093
77 1 -0.671159 2.73366 6.00707 4.68943
79 1 -0.667963 3.99414 5.23759 6.91009
98 3 -0.753685 -0.234957 1.58432 4.75466
99 3 -0.77963 1.89922 1.25011 6.729
102 3 -0.797154 -0.828102 3.25396 2.79132
103 3 -0.850594 1.21594 3.29822 0.93001
104 3 -0.842056 -0.878141 4.87045 0.506501
105 3 -0.747999 0.481637 3.79413 6.26545
210 2 0.179934 -1.5445 6.57396 2.35897
124 3 -0.782754 0.887482 5.52113 2.56798
126 3 -0.795832 5.94559 3.07807 6.69181
199 2 0.234983 1.49046 2.67749 3.30379
200 2 0.170953 3.09621 2.19281 4.41347
201 2 0.194187 2.35605 4.06313 4.43559
240 2 0.144334 3.29032 6.98345 5.03832
355 3 -0.778693 1.36129 0.73214 0.772488
324 1 -0.675251 4.11144 0.871357 1.86201
216 2 0.143668 -2.27765 6.56759 6.73987
218 2 0.154956 1.72721 6.36133 6.72694
219 2 0.123999 0.747218 6.1874 8.47453
235 2 0.247032 6.21488 0.754598 3.90386
236 2 0.156768 5.10415 2.37937 3.95939
237 2 0.238044 4.97734 0.837053 5.17988
238 2 0.163486 3.41239 5.22864 4.26879
239 2 0.184375 2.07302 5.66029 5.57299
241 2 0.17421 -0.610632 6.77531 4.94544
244 2 0.184879 3.00548 4.93902 7.47004
245 2 0.172415 4.15675 4.74883 5.86852
246 2 0.16291 4.13196 6.3347 6.78445
305 1 -0.668113 4.43303 3.9223 2.86553
310 3 -0.816389 4.47612 5.40014 0.668192
312 2 0.17866 4.28177 2.76176 2.51789
313 2 0.216769 3.50838 4.51229 2.76988
314 2 0.129127 5.06644 4.05109 3.84997
325 2 0.194515 4.6399 1.02793 2.888
326 2 0.197385 4.01009 1.82118 1.21148
118 3 -0.845789 7.35068 0.870196 6.79303
115 3 -0.813608 7.06278 0.941187 0.685055
125 3 -0.794706 3.99805 3.01649 8.57927
331 1 -0.652015 -1.53009 3.74867 14.1842
8 4 1.20866 1.41868 2.12391 11.9623
253 2 0.166133 1.65595 5.3911 11.8127
22 4 1.49507 3.54629 1.95821 9.83554
25 4 1.56967 4.05914 2.57269 15.202
26 4 1.59512 6.3304 2.47175 11.3931
131 3 -0.83553 4.29466 5.76676 12.3972
30 4 1.53877 5.25835 4.7995 13.2754
65 1 -0.668473 -0.469505 2.26441 11.4898
66 1 -0.667927 1.59106 3.77495 13.0638
251 2 0.183643 0.563918 5.77746 14.7199
81 1 -0.655634 1.55005 6.25676 14.4394
82 1 -0.663651 1.84614 6.48033 11.2458
100 3 -0.809958 -0.0749411 2.33162 16.1554
101 3 -0.851174 1.6899 0.807008 12.7822
106 3 -0.81164 -2.49913 6.62932 16.1733
116 3 -0.815802 3.05131 0.44864 9.13844
117 3 -0.82354 2.24368 2.55201 10.6949
119 3 -0.849285 3.74905 1.2528 14.3397
120 3 -0.834241 5.42253 2.42382 16.1827
121 3 -0.846471 2.64895 2.76446 16.1845
122 3 -0.804288 4.8024 1.94825 10.9082
123 3 -0.829176 7.01032 1.28649 12.3416
127 3 -0.850753 4.35034 3.7603 14.1801
3 4 1.5751 1.39087 2.54944 17.1021
202 2 0.170436 -0.606079 2.89784 10.4815
203 2 0.179323 -0.986305 2.8179 12.4188
333 2 0.24376 -1.72004 4.57126 15.0075
205 2 0.241498 2.52007 4.27819 12.7304
206 2 0.21073 1.65797 3.41767 14.1773
207 2 0.132558 0.623538 4.47472 12.8159
252 2 0.221766 2.51264 5.69796 14.8366
212 2 0.145521 -1.28145 4.84017 9.57765
213 2 0.184759 0.109207 3.53625 9.1209
254 2 0.155259 2.08399 6.25367 10.1949
332 2 0.140156 -0.298712 3.68488 13.788
250 2 0.193619 1.66073 6.42508 13.3055
20 4 1.6001 6.7639 2.69964 17.0706
68 1 -0.675084 -0.907092 4.04405 8.83394
255 2 0.178269 0.965107 7.21845 11.4111
32 4 1.15239 3.65214 7.07136 11.6966
256 2 0.131597 4.02292 6.93056 9.44118
10 4 1.35087 -1.22089 6.6912 17.13
24 4 1.47951 7.85501 0.367955 13.3021
1 4 1.37596 -5.16484 13.8141 1.70469
328 2 0.18883 -5.96184 11.4741 7.78
14 4 1.16951 -2.03561 9.80843 7.85614
15 4 1.46792 -3.30377 11.97 5.90463
338 2 0.157865 -3.4896 10.417 2.17311
34 4 1.36107 -0.755056 12.0104 3.91197
21 4 1.64019 0.53596 13.7415 7.78722
208 2 0.185662 -2.99745 7.36275 1.52698
71 1 -0.645591 -2.84583 7.95569 8.04467
72 1 -0.662685 -0.489703 9.49087 6.8885
78 1 -0.663772 0.103594 7.58676 4.30847
84 1 -0.666253 -0.8214 10.36 3.00654
67 1 -0.685717 -1.92907 7.21169 1.51489
107 3 -0.765718 -5.63535 13.3898 3.23668
108 3 -0.835317 -4.77543 12.4381 1.07612
109 3 -0.862262 -4.74593 11.5991 5.24613
110 3 -0.824239 -3.05391 10.757 7.10507
111 3 -0.802008 -3.53202 13.4377 6.76764
132 3 -0.819952 2.23323 7.8799 2.57461
134 3 -0.860061 -0.658557 13.1963 2.83472
135 3 -0.849971 -2.1776 12.0318 4.71802
339 2 0.167875 -2.71295 9.30125 0.890791
141 3 -0.824146 0.668969 11.9539 4.84313
361 2 0.178293 -4.4616 8.95045 1.36867
337 1 -0.686528 -3.65657 9.73817 1.23928
209 2 0.159926 -1.25568 8.13577 1.2292
217 2 0.165538 0.189222 7.52064 7.16742
262 2 0.145714 -1.00191 11.6529 0.564622
222 2 0.138929 -3.36078 7.84016 7.01426
223 2 0.170082 -0.513141 8.78705 5.98349
224 2 0.194711 0.452439 9.23127 7.64528
225 2 0.204588 -0.44839 10.6662 6.49735
264 2 0.16142 1.54109 7.98016 8.26121
242 2 0.168252 -0.543407 8.02966 3.44096
243 2 0.179417 0.622481 8.31836 4.98369
259 2 0.198977 0.024478 9.71252 3.42904
260 2 0.168726 -0.580857 10.6307 1.81435
261 2 0.167147 -1.84247 9.90769 3.19373
142 3 -0.831198 2.0819 10.3768 6.35533
329 2 0.22871 -6.856 12.9814 7.06037
327 1 -0.671037 -6.20458 12.5753 7.92509
13 4 1.33589 -5.90281 12.0632 4.33262
360 2 0.174138 -5.17257 10.2007 2.47485
221 2 0.150184 -1.92564 7.29947 8.19098
4 4 1.34729 -4.81722 13.9485 7.63829
263 2 0.174256 -0.294006 9.96545 0.0772859
297 4 1.1693 -4.41757 11.1843 0.193509
136 3 -0.816498 2.09731 10.0477 1.09417
139 3 -0.87481 -0.432657 12.6458 8.56615
358 2 0.205903 -2.88386 13.8972 1.27865
6 4 1.57524 -4.79112 13.9339 13.6407
16 4 1.1203 -2.06728 9.16687 13.1093
18 4 1.33271 -3.27707 11.8161 11.6821
31 4 1.30414 1.57081 7.74565 15.5663
37 4 1.53283 -0.818851 11.6994 9.77466
341 2 0.237254 -2.01314 13.6365 13.749
342 2 0.192573 -0.866993 13.7259 15.2741
73 1 -0.678272 -0.849464 8.36087 11.7357
74 1 -0.646352 -1.21889 9.97778 14.5596
75 1 -0.658283 -4.66969 11.6022 10.4219
86 1 -0.665623 2.03495 8.86309 8.81877
112 3 -0.759294 -2.95505 7.94365 13.9557
113 3 -0.783147 -2.98886 10.2928 12.3501
114 3 -0.832823 -3.99905 12.9513 12.7319
145 3 -0.786158 3.39817 8.48491 12.5901
356 3 -0.807235 -5.6161 12.9496 14.731
138 3 -0.820341 -1.59416 10.1226 9.32873
140 3 -0.78181 -1.87882 12.3456 10.8938
144 3 -0.82654 1.54174 9.03405 14.4669
362 2 0.196225 0.0268645 11.7469 16.0328
146 3 -0.858864 0.532798 11.2523 10.5382
39 4 1.58005 2.78409 9.64406 13.5843
85 1 -0.681797 -0.0186152 11.5095 17.1247
227 2 0.188383 0.130647 8.63772 12.2615
228 2 0.264147 -1.04563 9.04785 10.8129
229 2 0.153382 -1.99119 10.8492 15.0661
230 2 0.190007 -0.288343 10.4036 13.884
231 2 0.232853 -0.826233 9.23828 15.3631
129 3 -0.797024 3.03653 7.48715 16.3376
233 2 0.199334 -4.1446 11.5308 9.37278
234 2 0.224866 -5.24421 12.5866 10.5362
220 2 0.188725 -3.63897 7.8704 8.86282
343 2 0.178538 -1.04654 12.0107 14.2806
147 3 -0.830782 2.13008 10.7399 12.5365
265 2 0.233861 1.35978 9.60444 9.34919
266 2 0.180844 2.8613 8.51863 9.53172
226 2 0.175675 -1.06142 7.32351 11.5923
298 1 -0.673972 -3.02344 12.2523 15.9604
232 2 0.165681 -5.30021 10.6124 10.7028
300 2 0.182398 -3.34784 11.5324 15.1388
301 2 0.145687 -1.87224 12.0019 16.4097
302 2 0.225861 -3.14856 13.2977 15.6744
340 1 -0.649869 -1.03122 13.2083 14.232
130 3 -0.804091 0.074289 7.49569 16.3813
299 3 -0.800814 -5.5678 11.0104 16.8232
2 4 1.57359 14.2397 2.08002 3.69657
286 2 0.141942 8.37802 6.76718 8.3536
322 2 0.138832 6.00415 6.47558 5.44508
321 2 0.197441 6.30095 4.71063 4.69789
42 4 1.59193 9.30525 2.2183 3.78429
46 4 1.59337 11.8099 1.89786 5.46356
50 4 1.39719 10.476 4.3241 1.82675
52 4 1.15711 10.4609 4.05965 7.47638
89 1 -0.666275 11.7789 5.11777 2.91572
90 1 -0.697218 9.7247 5.45463 6.24198
273 2 0.178932 12.5024 5.89142 2.40177
315 2 0.235636 9.44803 6.63031 2.64635
149 3 -0.828313 13.8144 0.817536 2.74132
150 3 -0.862694 8.72689 1.16277 2.75315
151 3 -0.829805 8.1679 2.72369 4.86064
153 3 -0.851988 11.8068 0.813525 0.988799
156 3 -0.849228 12.9194 2.71517 4.46586
157 3 -0.844871 10.634 1.49935 4.54209
158 3 -0.823008 12.6608 0.771678 6.2048
165 3 -0.831821 9.65705 3.65914 3.0248
166 3 -0.842873 11.2042 3.29166 0.778488
168 3 -0.761405 9.78581 5.61207 1.03193
170 3 -0.827103 11.2757 3.00209 6.637
364 2 0.258626 12.3118 4.18077 3.35762
274 2 0.172189 11.2755 5.65124 3.73365
275 2 0.1441 10.5578 6.04095 5.75569
276 2 0.167436 8.965 6.13203 6.75836
277 2 0.218968 9.26405 4.67177 5.54402
278 2 0.148569 11.5127 5.94549 8.15236
287 2 0.17406 7.24391 6.69884 6.78896
323 2 0.17754 7.78629 5.63138 5.58933
344 1 -0.672267 14.6465 0.749986 8.28231
304 4 0.94716 7.0573 6.8508 3.51825
303 4 1.37675 5.60416 4.74415 1.52157
308 1 -0.653975 6.73672 5.69114 5.04148
169 3 -0.791204 9.30751 3.44319 8.4534
311 3 -0.762632 6.67686 6.00073 2.22467
309 3 -0.826724 6.28807 3.49113 0.859152
214 2 0.183987 13.2459 4.59601 6.23498
316 2 0.171333 9.29926 6.47406 4.55102
211 2 0.166158 14.0427 3.33759 8.54041
23 4 1.39072 6.93958 2.08314 5.85142
345 2 0.189654 14.639 1.60805 7.48882
19 4 1.58495 8.02209 0.0662117 1.89001
7 4 1.48491 14.202 2.24106 15.4197
128 3 -0.843569 6.23342 3.89441 12.1733
204 2 0.188052 15.0771 1.11564 11.3752
55 4 1.16313 9.44316 7.20335 11.7727
247 2 0.152298 5.76786 5.97202 8.82086
45 4 1.60635 8.78676 2.21034 9.60986
12 4 1.48439 12.0589 6.89806 15.111
48 4 1.63663 9.2526 2.52863 15.2964
49 4 1.43955 11.2084 2.26485 11.5851
51 4 1.35107 9.29847 7.03192 16.7965
53 4 1.53678 10.7341 4.77817 13.491
154 3 -0.834806 8.7701 0.777897 8.96825
80 1 -0.650801 6.17083 4.92104 9.05038
88 1 -0.680403 12.3593 2.13748 10.0809
346 2 0.175925 14.5669 1.22209 9.24249
93 1 -0.666859 7.6465 6.71547 10.9314
359 2 0.247734 13.346 3.75359 13.4389
152 3 -0.854603 12.9634 2.53478 16.3598
282 2 0.166275 11.3767 6.59218 10.3983
155 3 -0.831132 7.22482 2.64547 10.0584
159 3 -0.876842 13.7874 1.13883 14.4268
160 3 -0.826735 8.53621 1.17381 14.4682
161 3 -0.874197 10.3053 2.01181 16.3726
162 3 -0.796452 7.9499 3.19184 16.0363
163 3 -0.852917 9.79046 2.22045 10.8201
164 3 -0.810414 11.6438 1.09596 12.5965
54 4 1.65106 6.7592 7.10016 15.0593
280 2 0.182774 11.2569 4.95304 9.6942
171 3 -0.836889 9.85218 3.6381 14.3222
172 3 -0.804491 11.5134 3.66461 12.2661
173 3 -0.822017 11.8606 5.32756 14.4779
174 3 -0.812786 6.15165 5.85 14.2499
175 3 -0.837136 8.04791 6.64671 15.9458
177 3 -0.830448 9.89617 5.84999 12.6918
249 2 0.234942 6.05563 4.66991 10.1401
285 2 0.152786 7.59633 7.13217 9.84766
270 2 0.26256 12.1969 1.06165 9.68934
271 2 0.177247 13.4218 2.17638 10.4978
272 2 0.195087 12.1946 3.01979 9.32241
284 2 0.229362 7.30539 5.68402 11.0968
91 1 -0.668555 11.7077 4.932 8.66622
43 4 1.72423 11.619 2.3746 17.2181
279 2 0.162682 12.8785 4.65695 8.73139
248 2 0.225849 7.26694 4.89615 8.78852
35 4 1.4068 1.6774 11.4325 0.387702
36 4 1.14393 3.11996 9.77253 7.37473
317 2 0.156452 9.41873 8.21747 3.70261
44 4 1.37435 5.69999 13.5952 7.44143
56 4 1.61345 4.33303 11.5054 3.75177
58 4 0.911439 8.12606 9.1921 7.5422
60 4 1.46805 6.92049 11.4082 5.70117
87 1 -0.685407 4.26548 8.5232 6.59332
267 2 0.140799 4.4503 7.60834 7.27931
95 1 -0.661167 10.0859 9.39141 7.39858
133 3 -0.842547 4.35908 8.22283 1.12835
33 4 1.55341 3.19325 9.10024 1.94111
38 4 1.61495 2.01536 11.9554 5.7171
335 2 0.178589 8.70829 10.8563 2.67449
178 3 -0.858654 3.77086 10.211 2.88906
179 3 -0.852282 4.75712 12.6262 2.575
180 3 -0.861361 3.24494 12.1496 4.74189
353 2 0.242129 6.0594 9.58116 0.968449
185 3 -0.788815 8.28171 12.1469 5.14401
186 3 -0.846755 5.71043 11.1836 4.59672
187 3 -0.805566 7.39161 9.73207 6.26453
188 3 -0.880287 6.46105 12.2891 6.97832
143 3 -0.853315 1.6909 13.0029 6.9031
268 2 0.204534 5.19346 9.29527 6.53027
357 3 -0.777956 6.44849 13.2401 0.700499
354 2 0.203305 6.62147 10.9924 1.9981
307 1 -0.640731 6.36222 8.57426 3.76133
182 3 -0.806471 3.89879 10.7768 8.49419
137 3 -0.798924 1.46129 12.8081 1.35414
318 2 0.205011 6.51233 9.26211 2.77669
319 2 0.263137 6.69986 9.00437 4.77998
320 2 0.146601 5.23029 7.99804 3.82661
306 1 -0.662623 9.04684 7.14281 3.57537
41 4 1.69005 5.33954 13.8113 1.78909
334 1 -0.635051 9.60956 10.489 3.29326
366 2 0.145454 10.4405 8.28134 7.30179
336 2 0.164117 9.39752 9.60867 4.05646
347 1 -0.663648 8.67771 8.12842 0.491575
349 2 0.183887 8.8638 7.77633 1.70749
269 2 0.147901 3.7759 8.1807 5.57205
351 1 -0.707485 6.81527 10.4053 1.08351
352 2 0.197356 7.89255 10.1331 0.838829
363 2 0.180735 8.08269 14.002 8.18354
350 2 0.20003 7.51681 8.13277 0.203754
288 2 0.149293 6.62234 7.41401 8.36984
348 2 0.26594 9.29133 9.08362 0.125753
290 2 0.248422 10.423 9.97582 6.47563
289 2 0.152958 10.3286 9.86167 8.40292
94 1 -0.674586 7.56961 7.23099 7.75756
291 2 0.260883 6.8274 11.1398 8.46828
28 4 1.53126 4.32086 6.96742 0.019037
17 4 1.51333 9.19205 11.7046 15.342
365 2 0.189269 11.2427 8.42809 10.4406
148 3 -0.803496 1.03063 13.0893 12.4509
281 2 0.130957 9.98381 7.54976 9.3867
59 4 1.55758 4.17168 12.0342 9.59397
61 4 1.58172 8.01387 9.52416 13.4238
62 4 1.6371 4.02551 11.8851 15.3096
63 4 1.38469 6.56621 11.8762 11.6935
83 1 -0.675859 4.59797 7.61662 10.1367
92 1 -0.683371 10.6474 7.50748 10.3368
96 1 -0.646871 7.33644 10.2099 9.00017
97 1 -0.676103 7.99089 12.7815 10.7967
330 2 0.167306 8.9468 12.6588 9.00526
47 4 1.65366 5.16701 14.1263 13.6404
181 3 -0.83257 7.72587 12.2328 15.8911
176 3 -0.822476 5.70062 7.58994 16.198
184 3 -0.835682 2.85869 12.3448 10.476
189 3 -0.857265 7.11147 8.37163 14.1694
190 3 -0.794717 9.0795 8.55095 12.5081
191 3 -0.842504 8.80627 10.5534 14.3317
192 3 -0.830965 3.86485 10.4533 14.4283
193 3 -0.842468 5.19846 11.7245 16.3671
194 3 -0.88414 4.32529 13.1821 14.5209
195 3 -0.807778 2.59696 12.1378 16.2535
196 3 -0.824915 5.43579 11.5822 10.6116
197 3 -0.817981 7.2746 10.591 12.4271
198 3 -0.799788 6.08433 13.1883 12.7264
40 4 1.62818 1.67745 11.8798 11.4849
296 2 0.227183 8.55956 13.3433 11.6443
258 2 0.195505 4.54004 8.70898 9.82892
295 2 0.170124 8.54009 11.8994 10.4549
257 2 0.161061 5.80857 7.28445 10.4265
283 2 0.185762 7.11098 7.47061 11.673
293 2 0.19459 6.65575 9.51369 9.58793
294 2 0.163155 7.63398 13.541 9.89923
292 2 0.132193 8.37919 10.4653 9.51792
57 4 1.424 6.64825 12.2396 16.9625
183 3 -0.838923 4.71806 13.3526 8.7351
167 3 -0.795255 10.6789 7.43572 15.9744
ITEM: TIMESTEP
200
ITEM: NUMBER OF ATOMS
366
ITEM: BOX BOUNDS xy xz yz pp pp pp
-7.5150140000000007e+00 1.5901800000000000e+01 -7.5150140000000007e+00
0.0000000000000000e+00 1.4340199999999999e+01 1.7780000000000001e-01
0.0000000000000000e+00 1.7246500000000001e+01 4.3709999999999999e-01
ITEM: ATOMS id type q x y z
215 2 0.184304 -1.92467 5.56819 4.92483
5 4 1.36103 0.963418 2.37577 5.55029
9 4 1.51729 0.0241187 4.17896 1.63158
11 4 0.91832 -0.421778 4.79493 7.15829
27 4 1.1821 1.34762 6.76934 3.24001
29 4 1.16841 4.93987 3.93048 7.69857
64 1 -0.651504 2.31441 2.81081 4.31589
69 1 -0.640825 -1.8976 5.488 6.04543
70 1 -0.642517 0.715706 6.33423 7.30022
76 1 -0.692604 5.58966 1.39125 4.53141
77 1 -0.657263 2.71912 6.0818 4.5192
79 1 -0.666925 3.94143 5.35705 6.91372