ITEM: TIMESTEP
0
ITEM: NUMBER OF ATOMS
366
ITEM: BOX BOUNDS xy xz yz pp pp pp
-7.8259280126619677e+00 1.5672935023048570e+01 -7.7280764795282639e+00
7.2117441858929696e-02 1.3785263820778400e+01 -1.4891651008504350e-01
-7.1564794098771145e-02 1.7144168498216750e+01 -4.5718737362614184e-02
ITEM: ATOMS id type x y z
11 4 -0.732825 4.92457 6.99351
69 1 -2.09401 5.45902 5.74168
102 3 -0.944794 3.28769 2.37787
104 3 -0.569916 5.03577 0.192705
98 3 -0.271291 1.74308 4.44643
215 2 -2.14251 6.24355 4.99666
210 2 -1.61804 6.32451 2.18219
19 4 7.62067 0.154705 1.8809
105 3 0.0825244 3.7819 6.29653
216 2 -3.04315 5.52411 6.57633
70 1 0.404154 6.37697 7.38689
9 4 0.0929003 4.24794 1.47919
124 3 0.701873 5.40082 2.3591
5 4 0.768618 2.46961 5.50499
303 4 5.32993 4.56564 1.29654
29 4 4.74115 4.26926 7.6622
64 1 2.16569 3.30448 4.43038
76 1 5.49435 1.3339 4.74074
79 1 3.07613 5.07446 6.94972
99 3 1.61557 1.44527 6.59522
103 3 1.2829 3.31029 0.840675
115 3 6.52447 0.96823 1.04503
324 1 3.717 0.21638 2.75374
126 3 5.66291 3.27258 6.73981
199 2 1.72658 2.80334 3.4699
200 2 3.00595 2.71298 4.81383
201 2 2.51188 4.37945 4.28727
244 2 2.71112 4.35288 6.0438
245 2 3.26963 6.28302 6.74383
246 2 2.40426 4.90504 7.88622
305 1 4.24168 3.45174 2.4249
309 3 5.89245 3.54856 0.255223
310 3 4.10351 5.50902 0.842851
312 2 3.12337 3.84779 2.21906
313 2 4.62359 3.66948 3.48277
314 2 4.3022 2.31274 2.15828
355 3 1.98414 0.652988 0.497169
236 2 4.60184 1.99853 4.69607
235 2 6.10717 1.41051 3.77883
325 2 3.05097 1.117 3.21403
219 2 1.33351 6.45363 6.802
4 4 2.45254 0.411168 7.56507
77 1 3.28952 6.19841 3.85919
239 2 2.96801 5.96255 4.96688
326 2 4.56091 0.514477 2.01569
238 2 3.63678 5.16118 3.3715
214 2 -2.25325 4.48152 5.12171
27 4 1.48601 6.7665 3.01849
237 2 5.15924 0.194994 4.92735
217 2 0.547039 5.97933 8.48777
68 1 -1.63301 4.30045 8.64255
106 3 -2.59528 6.26402 16.128
332 2 -0.5329 3.95929 14.8565
212 2 -2.06433 5.22098 9.17265
331 1 -1.63385 3.57662 14.7461
213 2 -0.956547 3.73932 9.31254
252 2 -0.423666 6.0872 14.4171
202 2 -1.11225 2.30748 11.18
65 1 -0.259899 1.62839 10.7448
100 3 -0.0474182 1.85826 16.0925
254 2 1.01787 6.46357 11.5182
253 2 2.19389 5.47913 10.3677
32 4 3.59173 6.38451 11.9104
20 4 6.07218 1.94336 17.0725
255 2 1.58616 4.6288 12.0585
251 2 1.23669 5.80008 13.4254
207 2 0.242602 3.6827 12.9961
359 2 -1.99683 3.53012 13.5627
204 2 0.127608 1.95727 9.78645
206 2 0.885884 2.21527 13.9268
250 2 1.05998 5.03693 15.1721
125 3 4.24468 3.63817 9.10642
8 4 1.53159 1.77851 11.7202
22 4 3.93952 2.17138 9.733
25 4 3.77847 1.82724 15.108
328 2 0.686229 0.255631 9.5419
30 4 5.2225 4.20517 13.5001
66 1 1.12977 2.97747 13.1982
81 1 0.723117 5.92558 14.4839
82 1 1.86451 5.70868 11.4757
101 3 1.65968 0.274676 12.2242
117 3 2.69779 2.40668 10.7311
119 3 3.29326 0.49222 14.4081
120 3 4.89963 1.34919 16.1445
121 3 2.48995 2.5835 15.9722
122 3 5.268 1.64831 10.4753
127 3 4.3837 2.97067 14.0329
131 3 4.34636 5.16685 12.671
205 2 2.15749 3.41597 13.3527
10 4 -1.37289 6.42052 17.1251
3 4 1.32802 2.04624 16.9065
227 2 -1.07262 6.3726 12.8091
116 3 3.34927 1.2738 8.57408
221 2 -4.34196 8.30749 8.4557
208 2 -3.06518 7.3963 1.5768
263 2 -0.632726 11.2114 0.0809925
241 2 -0.588475 7.23246 3.88851
358 2 -3.60054 13.1431 3.63468
78 1 0.461031 7.47294 4.38742
1 4 -5.42099 13.2907 1.67333
209 2 -1.43549 8.15921 1.65743
14 4 -2.33794 9.55902 7.50558
15 4 -4.13416 11.8123 5.8733
34 4 -1.23484 11.5753 3.90207
72 1 -1.51239 8.62364 6.09791
84 1 -1.63149 9.93932 3.16369
107 3 -6.43701 12.7224 2.74984
108 3 -4.73433 11.7495 0.941404
109 3 -5.37458 11.4649 4.91875
110 3 -3.71927 10.4825 6.83987
111 3 -4.50534 13.0046 6.76132
134 3 -0.954829 12.5608 2.66242
135 3 -2.89826 12.1693 4.90798
223 2 -1.74702 7.44156 5.98342
225 2 -1.57401 9.12403 5.00272
261 2 -1.6914 10.2794 2.03836
224 2 -0.427808 8.82977 6.50425
259 2 -2.63147 9.36304 3.56471
289 2 -3.21573 8.36819 4.99761
290 2 -4.19703 9.07964 3.60049
338 2 -2.34064 9.26952 0.138661
361 2 -3.82212 9.50069 1.36885
67 1 -1.98321 7.18917 1.46775
260 2 -0.637118 9.36867 3.27303
220 2 -2.62496 7.38905 8.10703
95 1 -4.19658 8.28192 4.36649
132 3 1.80036 7.97927 1.99979
337 1 -3.44097 9.36618 0.277597
138 3 -1.32864 10.3287 8.5033
142 3 1.58285 9.95636 6.4213
218 2 -0.231463 7.35796 7.26986
141 3 -0.0785639 11.3787 4.99796
242 2 0.729351 8.62532 4.37204
243 2 0.472047 7.08019 5.5008
267 2 3.59031 7.52996 5.63335
228 2 -0.187935 7.93271 12.1815
71 1 -3.17389 8.27846 8.6888
299 3 -5.87201 10.3478 15.9809
145 3 3.25009 7.79284 12.8595
139 3 -0.811642 12.8985 8.6674
147 3 1.88881 10.0599 12.2127
226 2 -1.60862 7.11021 11.1668
297 4 -4.53569 10.874 16.8868
222 2 -3.00814 8.26409 9.76403
300 2 -3.28933 12.9156 16.212
302 2 -2.07664 11.5477 16.1339
301 2 -3.3772 11.6935 14.8153
342 2 -1.23568 11.5499 13.9876
73 1 -1.15624 7.30622 12.1877
6 4 -5.19087 13.123 13.3757
16 4 -2.42511 8.49063 13.0284
18 4 -3.32929 11.1974 11.525
37 4 -0.869584 11.521 9.49039
74 1 -1.51428 9.51928 14.335
75 1 -4.43957 10.984 10.0058
112 3 -3.30579 7.43204 13.8778
113 3 -3.11643 9.59605 12.0503
114 3 -4.11536 12.1338 12.6134
140 3 -1.96882 11.6617 10.8155
229 2 -2.10351 10.4058 14.9034
230 2 -0.701239 9.95505 13.6822
231 2 -1.066 8.76657 15.0916
232 2 -4.13902 11.8831 9.33887
234 2 -4.04472 9.90944 9.5378
298 1 -3.10022 11.8427 15.9034
340 1 -1.3019 12.7754 13.9654
341 2 -1.2764 13.2905 14.986
356 3 -6.25492 12.2269 14.1496
329 2 -5.80179 12.3499 9.2745
262 2 -0.414541 11.7627 15.5217
362 2 0.0345771 10.0461 16.1406
130 3 -0.285891 7.67069 16.3783
233 2 -5.58453 11.0079 10.3819
144 3 1.32891 8.74039 14.4471
343 2 -2.12529 13.2192 13.2744
85 1 -0.0703726 11.0964 16.4379
265 2 0.429845 8.69145 8.56082
39 4 2.52165 9.2414 13.4312
129 3 2.59521 7.08092 16.3324
146 3 0.559167 11.2149 10.1119
266 2 1.73933 8.98421 9.8943
86 1 1.51701 8.54963 8.91767
31 4 1.23753 7.46293 15.4224
264 2 1.82674 7.45144 8.75208
327 1 -6.53595 13.2081 8.76108
258 2 3.21776 7.68416 9.72469
339 2 -4.09574 8.43903 16.9342
344 1 14.1321 1.23115 8.12559
304 4 6.76471 6.54398 3.62321
308 1 6.17344 6.00518 5.24817
311 3 6.28735 5.5628 2.45536
321 2 5.05042 6.17142 5.28957
80 1 6.04287 5.58407 8.04179
249 2 5.48007 6.50132 7.7802
323 2 6.55938 4.89547 5.18962
247 2 7.00355 5.46025 7.3376
169 3 9.47768 3.38689 8.46312
151 3 7.99672 2.93737 4.87224
276 2 7.95486 4.49855 6.43267
43 4 11.5659 1.80507 0.125671
273 2 11.5875 6.46424 2.23392
306 1 8.71162 6.8338 3.59473
150 3 8.31072 1.2053 2.95376
277 2 8.83602 5.84744 5.3209
274 2 10.6809 5.53486 3.75413
2 4 14.0781 2.17144 3.3818
42 4 8.93597 2.39691 3.71217
46 4 11.6279 2.19901 5.24427
50 4 10.3795 4.28795 1.63892
52 4 10.0942 4.22073 7.22208
89 1 11.3893 5.42926 2.81173
90 1 8.79623 5.28251 6.40392
149 3 13.4934 0.891222 2.70052
153 3 11.5307 0.458364 1.18676
156 3 12.9456 2.87806 4.32386
157 3 10.317 1.80129 4.38078
158 3 12.1855 1.04459 6.28013
165 3 9.26503 3.64549 2.69106
166 3 11.389 3.19953 1.03466
168 3 9.94519 5.45971 0.64005
170 3 10.9791 3.3338 6.23287
275 2 8.72034 6.03676 7.31024
91 1 11.1864 5.73162 7.93966
211 2 13.1412 3.5961 8.26554
364 2 12.2855 4.77919 2.95394
315 2 9.32178 5.86748 3.73138
271 2 11.3194 6.49397 7.09013
270 2 12.2486 5.1976 8.2247
346 2 14.3494 2.16974 7.52849
345 2 15.1015 0.581679 8.3251
118 3 7.41765 1.10773 6.81892
23 4 6.64583 2.17902 5.91706
248 2 6.38499 5.6022 9.10151
26 4 6.61845 2.16174 11.2045
128 3 6.36336 3.58555 12.4447
174 3 6.00658 4.98125 14.5673
54 4 6.42772 6.51945 15.1653
162 3 7.55022 1.9305 16.1774
285 2 5.96521 6.42803 10.7123
284 2 6.93405 5.01884 11.6122
93 1 7.0849 5.97219 10.9404
175 3 7.80765 6.37569 16.0407
256 2 4.79394 6.49548 9.44716
155 3 7.73588 2.56999 10.2368
283 2 7.7221 5.78579 10.0105
365 2 10.7309 6.22299 10.4966
203 2 15.028 0.511313 10.7296
363 2 13.5925 1.55018 9.07916
279 2 10.78 6.29397 8.83835
280 2 13.3062 3.83377 10.5294
12 4 11.7588 6.41025 15.1152
7 4 14.096 1.80744 15.4292
45 4 9.17905 2.20287 9.58533
48 4 8.82715 2.04938 15.3551
49 4 11.5251 2.38517 11.8626
51 4 9.3577 6.51934 16.84
53 4 9.90685 4.34792 13.733
88 1 12.9747 3.52165 11.6553
152 3 12.7755 1.71466 16.4432
159 3 14.036 0.867117 14.0639
160 3 8.7393 0.825031 14.2728
161 3 10.1646 1.90372 16.3566
163 3 10.5214 2.30083 10.5652
164 3 12.2657 0.92985 12.3301
171 3 8.88093 3.55184 14.6697
172 3 10.6498 3.22381 12.905
173 3 11.1304 5.08278 14.6859
177 3 9.37095 5.54269 12.6525
272 2 12.8823 4.32736 12.4177
55 4 8.67916 6.72151 11.7996
154 3 9.13695 0.811522 8.87254
123 3 7.1772 1.11617 12.2508
333 2 13.2513 4.09185 15.4655
35 4 1.64299 11.7878 0.0518212
334 1 8.90859 9.90482 3.10865
44 4 5.14577 13.7307 7.30647
268 2 4.4826 9.07209 6.28152
278 2 11.4474 7.17844 3.90642
21 4 0.335509 13.6651 7.82045
41 4 4.9897 13.4053 1.95103
318 2 5.15403 8.29806 2.57638
291 2 9.73838 9.07709 6.87507
33 4 2.81868 9.24078 1.66516
240 2 4.16921 7.0142 3.79344
56 4 3.78792 11.231 3.96967
60 4 6.32448 11.3185 5.74724
87 1 3.82516 8.21284 6.57326
133 3 4.16315 8.49516 0.929844
96 1 9.35269 8.43697 7.71867
143 3 1.2184 12.5793 6.90542
178 3 3.33849 9.93942 3.1516
179 3 4.33166 12.2822 2.92642
180 3 2.59398 11.9383 4.7722
186 3 4.91239 10.8191 5.20901
187 3 6.96176 9.98741 6.38832
188 3 6.24093 12.6094 6.72321
269 2 4.19484 7.67505 7.43991
307 1 5.72995 8.32272 3.5519
319 2 6.59529 9.0955 3.55729
320 2 5.03457 8.48599 4.41526
357 3 6.13326 12.5422 0.993612
322 2 7.05895 7.00823 6.33257
351 1 6.87114 9.95066 0.604079
58 4 7.50795 8.6452 7.266
185 3 7.42703 11.6693 4.59921
136 3 2.20607 10.4469 0.876863
352 2 7.5303 9.89506 1.54664
354 2 5.90323 9.4546 0.831894
182 3 3.41102 10.487 8.42521
137 3 0.934724 12.9849 0.989739
347 1 9.32879 8.11252 0.760945
316 2 9.01344 7.58517 4.425
349 2 10.1239 7.92482 1.50325
317 2 8.90195 7.28425 2.52224
336 2 7.92931 9.31346 3.24151
13 4 8.82025 11.6151 3.91656
286 2 10.5489 8.42509 5.07329
350 2 8.27357 8.13425 1.16805
292 2 9.98346 7.38818 7.83518
335 2 9.04843 10.1993 2.01977
360 2 9.90295 9.32686 3.54074
36 4 2.59772 9.51302 7.51691
330 2 8.36576 12.8043 7.95951
28 4 4.09413 7.07473 -0.00526882
348 2 9.53959 9.06115 0.0576748
38 4 1.32563 11.6 5.73426
183 3 4.35585 13.0781 8.53609
176 3 5.21226 7.0035 16.2414
40 4 1.63749 11.4627 11.3839
257 2 4.87838 7.88099 10.7636
83 1 4.16822 7.13826 10.2193
47 4 5.33842 13.5428 13.2967
288 2 6.89797 7.61794 9.75962
17 4 8.66254 11.1292 15.0801
24 4 0.234691 13.7067 13.1628
59 4 3.97487 11.7082 9.46773
62 4 3.85496 11.5923 15.1955
63 4 6.23945 11.1379 11.4684
191 3 7.90098 9.99187 14.1909
148 3 0.892603 12.5223 12.3442
184 3 3.00109 12.0359 10.6498
189 3 6.4656 7.73422 14.1988
192 3 3.40544 10.338 14.3524
193 3 5.12436 11.126 16.0232
194 3 4.32289 12.7305 14.1744
195 3 2.5002 12.1483 16.1301
196 3 5.4091 11.186 10.1119
197 3 6.12948 9.77417 12.3438
198 3 6.1268 12.5025 12.3926
61 4 7.11712 8.88756 13.382
94 1 6.80156 8.60425 9.04686
97 1 8.08327 10.9499 10.8482
181 3 7.56867 11.8283 16.0875
366 2 7.32184 9.50317 9.64406
295 2 8.01583 11.2525 9.71114
296 2 8.47656 9.88232 11.0515
190 3 8.16907 8.07158 12.3895
282 2 9.69819 7.48394 9.48712
92 1 10.0454 7.15822 10.5353
294 2 8.55873 11.7602 11.5071
281 2 10.4686 7.99452 11.1932
57 4 6.30227 11.5786 17.0147
287 2 5.73658 8.86794 8.76097
293 2 9.29656 9.0692 8.67886
167 3 10.5466 7.21002 15.9879
353 2 7.28077 9.30745 17.0776
ITEM: TIMESTEP
100
ITEM: NUMBER OF ATOMS
366
ITEM: BOX BOUNDS xy xz yz pp pp pp
-7.8259280126619677e+00 1.5672935023048570e+01 -7.7280764795282639e+00
7.2117441858929696e-02 1.3785263820778400e+01 -1.4891651008504350e-01
-7.1564794098771145e-02 1.7144168498216750e+01 -4.5718737362614184e-02
ITEM: ATOMS id type x y z
11 4 -0.799693 4.84949 6.95003
69 1 -2.10555 5.48434 5.65024
102 3 -0.902804 3.27039 2.43567
104 3 -0.532167 4.94602 0.17047
98 3 -0.28575 1.6897 4.53251
215 2 -1.42856 6.0976 4.95785
210 2 -1.23947 6.51184 2.32704
237 2 5.23352 0.299211 4.87646
105 3 -0.0257462 3.67748 6.25122
216 2 -2.90685 6.14519 6.18497
70 1 0.449139 6.27573 7.40991
9 4 0.113811 4.16574 1.47274
124 3 0.871333 5.2618 2.34714
5 4 0.749402 2.4005 5.45524
303 4 5.23985 4.69787 1.34848
29 4 4.89689 4.16961 7.66929
64 1 2.08336 3.19894 4.27596
76 1 5.47317 1.41611 4.70497
79 1 3.24966 4.73425 6.84879
99 3 1.58873 1.43135 6.52975
103 3 1.30498 3.09418 1.08099
115 3 6.47272 1.05956 1.16483
324 1 3.88568 0.37315 2.63441
126 3 5.70107 3.29203 6.68382
199 2 1.66513 2.81802 3.26693
200 2 2.9578 2.6234 4.60759
201 2 2.36397 4.31108 4.2065
244 2 2.88806 4.12714 5.92036
245 2 3.43898 5.87008 6.77528
246 2 2.55666 4.56073 7.74601
305 1 4.05832 3.53203 2.26508
217 2 0.506436 5.90271 8.53183
310 3 4.12463 5.83895 0.814576
312 2 2.99209 4.09786 2.16141
313 2 4.55239 3.72467 3.31068
314 2 3.96411 2.4585 2.08249
355 3 1.86989 0.629386 0.719207
236 2 4.60317 2.11911 4.88102
235 2 6.01363 1.63197 3.68872
325 2 3.33488 1.18997 3.07379
219 2 1.50847 6.18852 6.92428
4 4 2.39643 0.4984 7.53938
77 1 3.14494 6.19124 3.83809
239 2 2.89807 5.91108 4.89299
326 2 4.65352 0.722336 1.91824
238 2 3.47059 5.18822 3.21595
27 4 1.46062 6.82803 2.97931
214 2 -2.44041 4.52567 5.15315
19 4 7.62956 0.12278 1.92706
68 1 -1.62098 4.11918 8.61645
106 3 -2.69652 6.28939 16.1351
332 2 -0.694375 3.88733 14.8366
212 2 -1.77189 5.06762 9.24029
331 1 -1.83754 3.54053 14.704
213 2 -1.03442 3.30133 9.22442
252 2 -0.339823 5.702 14.6033
202 2 -1.1588 2.43936 10.9886
65 1 -0.276944 1.80618 10.5898
100 3 -0.122894 1.89195 16.2416
254 2 0.803155 6.71849 11.4784
253 2 2.01757 5.80547 10.3009
32 4 3.4674 6.58049 11.9199
20 4 6.16654 1.94962 17.1196
255 2 1.51443 4.89309 12.0204
251 2 1.11474 6.02151 13.3484
207 2 0.488588 4.00465 13.1425
116 3 3.32928 1.39386 8.60634
204 2 0.286531 2.27423 9.75187
206 2 1.03331 2.29331 13.9938
250 2 1.4461 5.09847 14.9553
125 3 4.46179 3.66899 9.17046
8 4 1.39272 1.91897 11.779
22 4 3.95049 2.27363 9.83689
25 4 3.8107 1.88367 15.2158
328 2 0.73995 0.412511 9.45917
30 4 5.33917 4.17887 13.4707
66 1 1.28602 3.2291 13.2013
81 1 0.768191 5.89321 14.4482
82 1 1.65343 5.9274 11.3874
101 3 1.60624 0.374375 12.2548
117 3 2.64944 2.44475 10.881
119 3 3.28113 0.695497 14.1684
120 3 5.04872 1.30263 16.1752
121 3 2.55852 2.35191 16.0501
122 3 5.22772 1.74632 10.5812
127 3 4.54556 3.09258 14.327
131 3 4.39899 5.27398 12.6189
205 2 2.37015 3.57322 13.2597
10 4 -1.39989 6.41923 17.1214
3 4 1.34812 1.92075 17.1319
227 2 -1.38789 6.28265 12.371
221 2 -4.31162 8.44127 8.33945
208 2 -2.87767 7.10211 1.7939
263 2 -0.757294 11.3901 0.142582
241 2 -0.652119 7.2069 3.8186
358 2 -3.46265 13.2593 3.35919
78 1 0.442017 7.44303 4.41294
1 4 -5.33948 13.2194 1.69146
209 2 -1.26218 8.1898 1.52825
14 4 -2.27742 9.57484 7.46094
15 4 -4.14514 11.7823 5.80377
34 4 -1.36631 11.7395 3.9202
72 1 -1.36622 8.67227 6.01592
84 1 -1.77983 10.0877 3.10519
107 3 -6.31615 12.641 2.75852
108 3 -4.50373 11.9474 1.00634
109 3 -5.56821 11.3451 5.22168
110 3 -3.41552 10.4085 6.69651
111 3 -4.48017 13.0169 6.76171
134 3 -0.996435 12.8318 2.86622
135 3 -2.97252 12.0646 4.80096
223 2 -1.66002 7.45068 5.9531
225 2 -1.48555 9.20846 4.91867
261 2 -2.07612 10.315 2.00732
224 2 -0.354631 8.84319 6.37715
259 2 -2.62093 9.36092 3.55159
289 2 -3.04602 8.34629 4.92917
290 2 -4.15551 8.88008 3.45546
38 4 1.28039 11.5137 5.74982
361 2 -3.57852 9.16773 1.37082
67 1 -1.76875 7.12046 1.5657
260 2 -0.718718 9.62309 3.2064
220 2 -2.57839 7.45016 8.14112
95 1 -4.1037 8.15846 4.33323
132 3 1.7463 8.04828 1.95382
337 1 -3.60159 9.23077 0.269714
267 2 3.42243 7.42433 5.50672
142 3 1.6053 10.0681 6.37974
218 2 -0.00666038 7.32083 7.38548
141 3 -0.0369557 11.4759 4.79893
242 2 0.584355 8.54795 4.43657
243 2 0.496251 6.96578 5.51678
228 2 -0.262156 7.80803 12.8852
71 1 -3.2215 8.36612 8.63467
299 3 -5.78945 10.5908 16.1969
145 3 3.15162 7.78955 12.853
339 2 -4.35798 8.38464 16.9245
147 3 1.90394 9.91866 12.0867
226 2 -1.19235 7.82101 11.1752
297 4 -4.46575 10.9315 16.9868
222 2 -3.10036 8.39217 9.77087
300 2 -3.40922 12.9805 15.8519
302 2 -2.06256 11.5848 16.1041
301 2 -3.56897 11.4935 14.7642
342 2 -1.31417 11.6416 14.0197
73 1 -1.16581 7.39816 12.2345
6 4 -5.24781 13.1624 13.3002
16 4 -2.35369 8.6014 13.0498
18 4 -3.3288 11.2636 11.3518
37 4 -0.934018 11.6472 9.62297
74 1 -1.36063 9.56161 14.3906
75 1 -4.46514 11.0496 9.89943
112 3 -3.48189 7.46466 13.9752
113 3 -2.95011 9.62455 11.9909
114 3 -4.0917 12.1221 12.477
140 3 -1.94906 11.9362 10.8089
229 2 -2.09115 10.3857 14.7942
230 2 -0.515091 9.97512 13.8707
231 2 -1.04984 8.84407 15.2486
232 2 -4.16811 11.9146 9.27767
234 2 -3.9994 10.0022 9.49415
298 1 -3.19863 11.8706 15.76
340 1 -1.24073 12.8296 13.9766
341 2 -1.25241 13.3298 15.0153
356 3 -6.11129 12.1743 14.1427
329 2 -5.90912 12.46 9.28144
262 2 -0.492813 11.7523 15.4606
362 2 0.0417764 9.98941 16.3869
130 3 -0.197508 7.64439 16.3887
233 2 -5.57771 11.0444 10.186
144 3 1.32481 8.68898 14.315
343 2 -2.06257 13.2108 13.2958
85 1 -0.16198 11.1349 16.536
265 2 0.538244 8.96021 8.69281
39 4 2.49392 9.21926 13.3819
129 3 2.578 7.1091 16.2412
146 3 0.442043 11.1745 10.2251
266 2 1.96181 9.04161 9.88742
86 1 1.55428 8.57966 8.91802
31 4 1.13629 7.49406 15.4596
264 2 1.75642 7.47057 8.80097
327 1 -6.5572 13.3119 8.70236
258 2 3.22915 7.83757 9.81579
338 2 -2.74923 9.35335 17.0407
138 3 -1.41422 10.2311 8.58361
139 3 -0.886877 12.797 8.57407
344 1 13.961 1.11977 8.10472
304 4 6.76504 6.51862 3.64677
308 1 6.35107 5.91667 5.27026
311 3 6.24173 5.52908 2.51488
321 2 5.1981 5.98958 5.21968
80 1 6.03549 5.77501 8.08149
249 2 5.46407 6.66271 7.67141
323 2 6.75366 4.83324 5.26189
247 2 7.02034 5.61353 7.49864
169 3 9.58345 3.24805 8.42212
151 3 7.86445 2.82964 4.86674
276 2 8.03785 4.45228 6.61019
43 4 11.592 1.69623 0.106559
273 2 11.3299 6.2434 2.37114
306 1 8.76883 6.74131 3.67619
150 3 8.47959 1.06267 2.83428
277 2 8.82099 5.81204 5.52185
274 2 10.7766 5.28237 4.03652
2 4 14.1248 2.08918 3.49809
42 4 8.97785 2.30151 3.62645
46 4 11.6921 2.2371 5.22281
50 4 10.4088 4.17994 1.67063
52 4 10.2114 4.31247 7.27512
89 1 11.3481 5.24909 2.99021
90 1 8.82904 5.30723 6.56438
149 3 13.6339 0.814029 2.7583
153 3 11.7174 0.408738 1.04844
156 3 12.876 2.8379 4.40411
157 3 10.394 1.95965 4.28258
158 3 12.0558 0.891949 6.1306
165 3 9.22701 3.47997 2.64044
166 3 11.4089 3.10896 1.08183
168 3 9.72157 5.23221 0.560974
170 3 11.2331 3.68883 6.23187
275 2 8.75447 6.05234 7.45867
91 1 11.2959 5.80634 8.0071
211 2 13.0467 3.71327 8.18425
364 2 12.3732 4.79119 3.05185
315 2 9.33737 5.78025 3.76185
271 2 11.6021 6.52672 7.14649
270 2 12.3474 5.25841 8.33573
346 2 14.0883 2.02921 7.47618
345 2 15.0167 0.611133 8.32231
118 3 7.40403 1.15512 6.92923
23 4 6.77384 2.16711 5.8716
309 3 5.95144 3.62261 0.509443
248 2 6.24164 5.81847 9.19416
26 4 6.62698 2.2935 11.3167
128 3 6.19699 3.39429 12.3095
174 3 6.09894 5.06449 14.4787
54 4 6.42367 6.57032 15.2275
162 3 7.44907 1.94798 16.3146
285 2 6.10619 6.51134 10.7958
284 2 7.01294 4.96074 11.5874
93 1 7.19433 5.92887 11.0221
175 3 7.7329 6.56558 16.0153
256 2 4.86303 6.77908 9.4626
155 3 7.82168 2.93029 10.3876
283 2 7.92867 5.83797 10.021
365 2 10.9647 6.39051 10.5663
203 2 15.0756 0.73963 10.4918
363 2 13.3993 1.31501 9.11074
279 2 10.7948 6.35018 8.9447
280 2 13.3239 3.79852 10.5213
12 4 11.6266 6.49947 15.0968
7 4 14.012 1.8187 15.4576
45 4 9.14581 2.28225 9.59647
48 4 8.90211 1.87968 15.3957
49 4 11.5303 2.46839 11.7855
51 4 9.11067 6.59721 16.8863
53 4 9.95226 4.23475 13.8819
88 1 12.9535 3.66135 11.621
152 3 12.7811 1.77335 16.3708
159 3 13.9649 0.65199 14.0966
160 3 8.77745 0.750354 14.2628
161 3 10.0787 1.59253 16.406
163 3 10.5981 2.40344 10.4993
164 3 12.2614 1.06523 12.1666
171 3 8.96133 3.46839 14.819
172 3 10.6925 3.15135 12.9842
173 3 11.2842 5.00814 14.6047
177 3 9.18792 5.54123 12.912
272 2 12.7312 4.56368 12.2598
55 4 8.72582 6.73261 11.9474
154 3 8.89416 0.753883 9.11
123 3 7.32984 1.02115 12.18
333 2 13.0149 4.06849 15.381
359 2 13.4898 3.59515 13.5303
176 3 5.2927 6.90374 16.3193
35 4 1.6653 11.7465 -0.0149124
334 1 8.94171 9.77906 3.20445
44 4 5.08505 13.5847 7.16726
268 2 4.57327 8.76756 6.16911
278 2 11.5035 7.06162 3.95734
21 4 0.345629 13.7124 7.8981
41 4 5.15832 13.3469 1.93485
318 2 5.16332 8.23987 2.73185
291 2 9.76866 8.96238 6.76469
33 4 2.94431 9.20768 1.69581
240 2 4.0836 6.97919 3.8119
56 4 3.72559 11.2417 3.95683
60 4 6.32146 11.2302 5.61072
87 1 3.75532 8.06161 6.46979
133 3 4.32383 8.62486 1.08961
96 1 9.39228 8.33751 7.64605
143 3 1.19542 12.7114 6.86134
178 3 3.27118 9.7836 3.23791
179 3 4.4027 12.2391 2.87227
180 3 2.39708 11.8632 4.56214
186 3 4.91897 10.7605 5.02661
187 3 7.00045 9.95735 6.62309
188 3 6.15792 12.5257 6.50072
269 2 4.15855 7.32736 7.31438
307 1 5.70773 8.2501 3.72747
319 2 6.487 9.11137 3.77255
320 2 4.97547 8.29437 4.57026
357 3 6.14104 12.5385 0.986607
322 2 7.06948 7.00295 6.35242
351 1 6.84621 9.83176 0.339502
58 4 7.48391 8.6068 7.41687
185 3 7.42408 11.503 4.41891
136 3 2.24979 10.3855 0.859153
352 2 7.39719 10.0339 1.33506
354 2 5.8019 9.24051 0.628482
182 3 3.40641 10.3103 8.34889
137 3 1.00187 12.8862 0.955064
347 1 9.11795 8.15684 0.869154
316 2 8.93143 7.51418 4.49112
349 2 9.98438 7.95587 1.59148
317 2 8.96397 7.21324 2.62805
336 2 7.90464 9.29231 3.28213
13 4 8.88826 11.4975 4.03266
286 2 10.6398 8.29415 5.01862
350 2 8.13963 8.26732 1.41866
292 2 10.0221 7.41905 7.78082
335 2 9.29722 10.0164 2.12836
360 2 9.76618 9.10721 3.7139
36 4 2.57941 9.35549 7.44571
330 2 8.34082 12.8867 7.91613
183 3 4.14985 12.9442 8.39156
348 2 9.38753 8.95833 0.153419
353 2 7.27819 9.21889 16.7796
40 4 1.63592 11.4309 11.2809
257 2 4.95638 8.00533 10.8437
83 1 4.2663 7.27784 10.3083
47 4 5.24003 13.6128 13.1495
288 2 7.11984 7.55515 9.79688
17 4 8.62452 11.2693 15.1211
24 4 0.337058 13.628 13.1268
59 4 3.97858 11.671 9.3547
62 4 3.71541 11.6712 15.0249
63 4 6.16703 11.1682 11.4111
191 3 7.76709 10.0865 14.2634
148 3 1.17452 12.483 12.4516
184 3 3.05194 11.8801 10.5827
189 3 6.41331 7.78745 14.2376
192 3 3.49058 10.2553 14.2333
193 3 4.97947 11.3302 16.142
194 3 4.20784 12.7775 13.9725
195 3 2.38768 12.0692 15.9187
196 3 5.35394 11.1074 10.0462
197 3 6.07994 9.70139 12.3159
198 3 6.11407 12.5862 12.2555
61 4 7.04029 8.91527 13.3595
94 1 6.86797 8.56871 9.19179
97 1 7.97837 11.1677 10.6419
181 3 7.5675 11.9937 16.0196
366 2 7.24661 9.51072 9.76926
295 2 7.84465 11.1428 9.55143
296 2 8.4923 10.286 11.0722
190 3 8.26482 8.15417 12.5082
282 2 9.82517 7.5638 9.57426
92 1 10.1949 7.21376 10.6702
294 2 8.47298 12.1622 10.9755
281 2 10.5268 8.13299 11.2666
57 4 6.32049 11.5501 17.0116
287 2 5.69902 8.67889 8.82406
293 2 9.35785 9.00184 8.69119
167 3 10.3209 7.09262 15.9646
28 4 3.88461 7.08449 17.072
ITEM: TIMESTEP
200
ITEM: NUMBER OF ATOMS
366
ITEM: BOX BOUNDS xy xz yz pp pp pp
-7.8259280126619677e+00 1.5672935023048570e+01 -7.7280764795282639e+00
7.2117441858929696e-02 1.3785263820778400e+01 -1.4891651008504350e-01
-7.1564794098771145e-02 1.7144168498216750e+01 -4.5718737362614184e-02
ITEM: ATOMS id type x y z
11 4 -0.828658 4.82872 6.90706
69 1 -2.22331 5.50586 5.77891
102 3 -0.954797 3.33549 2.39938
104 3 -0.660631 4.88465 0.274025
98 3 -0.172625 1.75679 4.45142
215 2 -1.68189 6.19599 5.07604
210 2 -1.52943 6.00563 2.19831
237 2 5.21385 0.259763 4.77779
105 3 0.0574191 3.68186 6.31068
216 2 -3.12894 5.97139 6.22551
70 1 0.466584 6.26334 7.33836
9 4 0.122315 4.09073 1.56156
124 3 0.66118 5.5232 2.56682
5 4 0.800088 2.38863 5.50344
217 2 0.166302 6.05127 8.50966
29 4 4.97029 4.18785 7.78455
64 1 2.18948 3.27141 4.49308
76 1 5.51811 1.43177 4.60697
79 1 3.36683 4.89889 7.03574
99 3 1.65636 1.43706 6.48886
103 3 1.25423 3.14824 1.01181
115 3 6.45162 1.08103 1.2276
324 1 3.74944 0.563582 2.76702
126 3 5.76361 3.27078 6.84258
199 2 1.97108 2.78079 3.45976
200 2 3.0375 2.77728 5.04926
201 2 2.39861 4.39346 4.32804
244 2 2.95863 4.33837 6.12795
245 2 3.58062 6.08887 6.89596
246 2 2.64948 4.74811 7.88272
305 1 4.27368 3.57738 2.57353
27 4 1.42553 6.79742 3.0576
310 3 4.04711 5.61628 0.646869
312 2 3.14507 3.84735 2.40824
313 2 4.58931 3.69376 3.65473
314 2 4.44547 2.54451 2.17416
355 3 1.84341 0.488582 0.778625
236 2 4.62591 2.09723 4.74785
235 2 6.00076 1.55063 3.62843
325 2 3.03957 1.46927 3.02898
219 2 1.55438 5.8332 7.105
4 4 2.57024 0.556223 7.51252
77 1 3.12615 6.29955 4.04254
239 2 2.80035 6.21 5.08323
326 2 4.62301 0.844581 2.04434
238 2 3.52421 5.25004 3.55483
118 3 7.22202 0.914904 6.63413
303 4 5.19739 4.70953 1.35648
68 1 -1.5933 4.14876 8.64241
106 3 -2.78769 6.35046 16.2687
332 2 -0.391872 3.9046 14.7039
212 2 -1.74807 5.05339 9.31766
331 1 -1.49211 3.50478 14.6549
213 2 -0.825645 3.47645 9.06527
252 2 -0.178865 5.62125 14.7253
202 2 -1.043 2.52189 11.0275
65 1 -0.133498 1.89704 10.5403
100 3 -0.0277699 1.64759 16.2507
254 2 0.710183 6.53908 11.63
253 2 1.9211 5.77768 10.3371
32 4 3.4264 6.55212 11.9048
359 2 -1.9147 3.46784 13.5233
255 2 1.51773 4.71095 12.0531
251 2 1.26958 5.83165 13.4457
207 2 0.165904 3.6658 13.1699
116 3 3.44998 1.32639 8.71123
204 2 0.267717 2.33121 9.55254
206 2 0.995362 2.17554 13.9253
250 2 1.62708 5.1927 15.2069
125 3 4.41061 3.83175 9.26279
8 4 1.50415 1.99263 11.6676
22 4 4.10401 2.31443 9.8416
25 4 3.71417 1.89623 15.1792
328 2 0.874478 0.492377 9.44141
30 4 5.20638 4.29014 13.6358
66 1 1.10262 3.07804 13.2631
81 1 0.904752 5.81376 14.5447
82 1 1.70205 5.83482 11.4711
101 3 1.56991 0.570715 12.2207
117 3 2.7629 2.55882 10.8249
119 3 3.47544 0.630033 14.1658
120 3 4.89741 1.43999 16.2682
121 3 2.43304 2.29661 15.9719
122 3 5.44921 1.71823 10.5885
127 3 4.12479 3.36782 14.2861
131 3 4.31558 5.36959 12.5786
205 2 1.99993 3.67506 13.5825
227 2 -1.75854 6.82358 11.5399
20 4 6.15453 1.92403 17.1194
3 4 1.28934 1.8731 17.0654
10 4 -1.40666 6.32869 17.1185
333 2 -2.12174 4.06398 15.3805
203 2 -0.314852 0.817589 10.5173
221 2 -4.39768 8.34076 8.20945
208 2 -2.68234 7.42073 1.85828
263 2 -0.830233 11.194 0.233235
241 2 -0.6138 7.48885 3.90298
358 2 -3.69226 13.5705 3.619
78 1 0.422679 7.62663 4.39526
1 4 -5.14786 13.1353 1.80098
209 2 -0.900729 7.79488 1.83826
14 4 -2.33603 9.6582 7.50779
15 4 -4.15598 11.7279 5.97559
34 4 -1.46565 11.6916 3.96865
72 1 -1.39464 8.64431 6.10028
84 1 -1.66556 9.99546 3.18931
107 3 -6.03117 12.535 3.02923
108 3 -4.3255 11.8739 0.941129
109 3 -5.566 11.1668 5.34024
110 3 -3.47375 10.5205 6.82553
111 3 -4.33831 12.9719 7.00001
134 3 -0.936661 12.6095 2.76718
135 3 -3.04422 12.1319 4.79781
223 2 -1.65061 7.52267 6.08242
225 2 -1.50176 9.18975 5.07958
261 2 -1.77 10.3465 2.08638
224 2 -0.398391 8.93718 6.57264
259 2 -2.60752 9.38667 3.56551
289 2 -3.01338 8.36143 4.89428
290 2 -4.15039 9.01065 3.5507
38 4 1.22103 11.5447 5.77049
361 2 -3.66618 9.20855 1.44035
67 1 -1.68687 6.97169 1.66441
260 2 -0.665893 9.43965 3.33751
220 2 -2.65573 7.49266 7.99999
95 1 -4.0487 8.18003 4.28026
132 3 1.76391 8.05984 2.04928
337 1 -3.54277 9.26993 0.321818
267 2 3.64279 7.37479 5.65689
142 3 1.61453 9.92713 6.44946
218 2 0.256501 7.3037 7.03122
141 3 -0.318125 11.5056 5.11067
242 2 0.76761 8.67194 4.44638
243 2 0.495062 7.10267 5.52387
338 2 -2.47946 9.43021 0.00357309
19 4 -0.143498 13.727 1.96539
330 2 -7.19659 12.8712 8.06312
138 3 -1.40338 10.4812 8.48558
264 2 2.14006 7.32064 8.47675
71 1 -3.27133 8.3425 8.51745
228 2 -0.145185 7.33419 12.6498
258 2 3.33596 7.72136 9.71097
299 3 -5.90367 10.5326 16.2264
145 3 3.20615 7.87446 12.7506
339 2 -4.18478 8.35228 17.0046
147 3 1.95415 9.85714 11.9292
226 2 -0.766901 8.43923 11.1875
297 4 -4.50604 10.8845 16.9032
222 2 -3.1882 8.31168 9.61244
300 2 -3.41382 12.9104 15.9599
302 2 -2.10689 11.5153 16.049
301 2 -3.45493 11.501 14.581
342 2 -1.34535 11.4515 13.8748
73 1 -1.02812 7.63956 11.9755
6 4 -5.22197 13.3437 13.2945
16 4 -2.42399 8.57762 12.9169
18 4 -3.43914 11.3497 11.4201
37 4 -0.910524 11.5947 9.51968
74 1 -1.51804 9.42555 14.4399
75 1 -4.4639 11.0353 9.89207
112 3 -3.53589 7.56581 13.7482
113 3 -3.10839 9.76872 12.1094
114 3 -4.26196 12.3779 12.267
140 3 -2.14294 11.8916 10.7314
229 2 -2.13061 10.2387 14.8975
230 2 -0.635264 9.76762 13.7266
231 2 -1.15315 8.63044 15.1774
232 2 -4.07555 11.9848 9.32387
234 2 -4.08818 9.99099 9.41182
298 1 -3.22436 11.8163 15.6875
340 1 -1.21353 12.664 13.8259
341 2 -1.10188 13.1056 14.9021
356 3 -6.07744 12.3096 14.1489
329 2 -5.68472 12.4788 9.2111
262 2 -0.447036 11.3659 15.5543
362 2 -0.134129 9.74796 16.5211
130 3 -0.282446 7.56902 16.371
233 2 -5.63583 11.0463 10.3242
144 3 1.2119 8.70321 14.4498
343 2 -1.98943 13.2188 13.2607
85 1 -0.280405 10.8606 16.6133
139 3 -0.78755 12.8673 8.65282
39 4 2.45439 9.16879 13.3605
129 3 2.56974 7.35121 16.3713
146 3 0.447772 11.1588 10.2636
266 2 1.9532 8.63171 9.90926
86 1 1.64767 8.37598 8.85035
31 4 1.17091 7.49304 15.5116
265 2 0.57431 8.47649 8.62383
327 1 -6.36274 13.3433 8.66228
344 1 14.0708 1.06358 8.03985
304 4 6.69612 6.43334 3.76071
308 1 6.22607 5.77005 5.37296
311 3 6.07797 5.66451 2.47909
321 2 5.09778 5.83669 5.38809
80 1 6.11393 5.66072 8.22714
249 2 5.55492 6.62796 7.83678
323 2 6.68381 4.72772 5.37627
247 2 7.06447 5.47226 7.57955
169 3 9.60654 3.44677 8.48407
151 3 7.82814 2.77085 4.74762
276 2 8.09266 4.31096 6.67162
43 4 11.6438 1.71316 0.160578
273 2 11.3948 6.30848 2.32032
306 1 8.70127 6.54396 3.59886
150 3 8.43705 0.889513 2.91645
277 2 8.75221 5.65927 5.45382
274 2 10.9307 5.32821 3.85305
2 4 14.1541 2.1209 3.47322
42 4 8.99633 2.24823 3.60414
46 4 11.6511 2.32983 5.23871
50 4 10.3374 4.19072 1.60554
52 4 10.2569 4.35408 7.2345
89 1 11.388 5.27753 2.88388
90 1 8.7814 5.25423 6.5711
149 3 13.5683 0.820861 2.78682
153 3 11.818 0.352966 1.02928
156 3 12.93 2.82301 4.31619
157 3 10.4428 1.90495 4.31124
158 3 12.1045 1.03365 6.19391
165 3 9.12458 3.39393 2.53943
166 3 11.3744 3.15716 0.939646
168 3 9.80298 5.34505 0.637454
170 3 11.1616 3.54945 6.16028
275 2 8.5658 6.06374 7.31916
91 1 11.3326 5.6888 8.05943
211 2 13.0634 3.60976 8.43345
364 2 12.3983 4.71142 2.85955
315 2 9.14374 5.45913 3.71219
271 2 11.6159 6.42157 7.26887
270 2 12.2782 5.04696 8.36979
346 2 14.1385 1.94134 7.42811
345 2 15.1666 0.560325 8.27063
309 3 5.94409 3.58498 0.392361
23 4 6.72713 2.15448 5.80161
214 2 13.0059 4.44964 5.22537
248 2 6.37423 5.76079 9.35992
26 4 6.75277 2.2583 11.2897