ITEM: TIMESTEP
0
ITEM: NUMBER OF ATOMS
366
ITEM: BOX BOUNDS xy xz yz pp pp pp
-7.8259280126619677e+00 1.5672935023048570e+01 -7.7280764795282639e+00
7.2574629232555837e-02 1.3648589544362832e+01 -1.4891651008504350e-01
-7.1564794098771145e-02 1.7318064794098724e+01 -4.5261549988988042e-02
ITEM: ATOMS id type x y z
11 4 -0.732825 4.8765 7.06488
69 1 -2.09401 5.40561 5.8004
102 3 -0.944794 3.25599 2.40261
104 3 -0.569916 4.98659 0.195375
98 3 -0.271291 1.72682 4.49207
215 2 -2.14251 6.18229 5.04785
210 2 -1.61804 6.26244 2.20496
19 4 7.62067 0.154337 1.90062
105 3 0.0825244 3.74526 6.36086
216 2 -3.04315 5.47005 6.64348
70 1 0.404154 6.31437 7.46222
9 4 0.0929003 4.20664 1.49486
124 3 0.701873 5.34799 2.38365
5 4 0.768618 2.44609 5.56132
303 4 5.32993 4.52116 1.31036
29 4 4.74115 4.22775 7.74032
64 1 2.16569 3.27261 4.47585
76 1 5.49435 1.32174 4.78935
79 1 3.07613 5.0249 7.02064
99 3 1.61557 1.43199 6.66256
103 3 1.2829 3.27836 0.84989
115 3 6.52447 0.959726 1.05631
324 1 3.717 0.215394 2.78228
126 3 5.66291 3.24103 6.80861
199 2 1.72658 2.77648 3.50567
200 2 3.00595 2.68703 4.86318
201 2 2.51188 4.33683 4.3313
244 2 2.71112 4.31053 6.10557
245 2 3.26963 6.22137 6.81267
246 2 2.40426 4.85717 7.9666
305 1 4.24168 3.4184 2.45012
309 3 5.89245 3.51426 0.258524
310 3 4.10351 5.45511 0.852088
312 2 3.12337 3.81049 2.24219
313 2 4.62359 3.63397 3.51867
314 2 4.3022 2.29079 2.1808
355 3 1.98414 0.647636 0.502914
236 2 4.60184 1.97973 4.74423
235 2 6.10717 1.39759 3.81773
325 2 3.05097 1.10701 3.24722
219 2 1.33351 6.39027 6.87143
4 4 2.45254 0.408234 7.64221
77 1 3.28952 6.13761 3.89889
239 2 2.96801 5.9041 5.01777
326 2 4.56091 0.510511 2.03678
238 2 3.63678 5.11074 3.40628
214 2 -2.25325 4.43788 5.17417
27 4 1.48601 6.70001 3.0497
237 2 5.15924 0.194222 4.97785
217 2 0.547039 5.92071 8.57423
68 1 -1.63301 4.25863 8.73058
106 3 -2.59528 6.20255 16.2916
332 2 -0.5329 3.92087 15.0073
212 2 -2.06433 5.16995 9.26603
331 1 -1.63385 3.54203 14.8958
213 2 -0.956547 3.70311 9.40733
252 2 -0.423666 6.0275 14.5635
202 2 -1.11225 2.28558 11.2937
65 1 -0.259899 1.61328 10.8541
100 3 -0.0474182 1.84086 16.2558
254 2 1.01787 6.40012 11.6352
253 2 2.19389 5.42552 10.4732
32 4 3.59173 6.32185 12.0314
20 4 6.07218 1.9251 17.2456
255 2 1.58616 4.58369 12.181
251 2 1.23669 5.74325 13.5618
207 2 0.242602 3.64705 13.1281
359 2 -1.99683 3.496 13.7004
204 2 0.127608 1.93888 9.88602
206 2 0.885884 2.1943 14.0682
250 2 1.05998 4.98774 15.3261
125 3 4.24468 3.60297 9.19913
8 4 1.53159 1.7619 11.8393
22 4 3.93952 2.15085 9.83203
25 4 3.77847 1.81015 15.2613
328 2 0.686229 0.254253 9.63901
30 4 5.2225 4.1643 13.6372
66 1 1.12977 2.94888 13.3322
81 1 0.723117 5.86751 14.6309
82 1 1.86451 5.65277 11.5923
101 3 1.65968 0.273108 12.3484
117 3 2.69779 2.38379 10.8402
119 3 3.29326 0.488476 14.5543
120 3 4.89963 1.33687 16.3083
121 3 2.48995 2.55884 16.1342
122 3 5.268 1.633 10.5819
127 3 4.3837 2.94214 14.1753
131 3 4.34636 5.11636 12.7997
205 2 2.15749 3.38299 13.4883
10 4 -1.37289 6.3575 17.2988
3 4 1.32802 2.02695 17.078
227 2 -1.07262 6.31005 12.9392
116 3 3.34927 1.26224 8.66141
221 2 -4.34196 8.22559 8.54183
208 2 -3.06518 7.32352 1.59345
263 2 -0.632726 11.1005 0.0825335
241 2 -0.588475 7.16132 3.92851
358 2 -3.60054 13.0128 3.67211
78 1 0.461031 7.39939 4.43246
1 4 -5.42099 13.159 1.69096
209 2 -1.43549 8.0788 1.6749
14 4 -2.33794 9.46461 7.58212
15 4 -4.13416 11.6954 5.93335
34 4 -1.23484 11.4607 3.9422
72 1 -1.51239 8.53858 6.16023
84 1 -1.63149 9.84111 3.19636
107 3 -6.43701 12.5964 2.77834
108 3 -4.73433 11.6331 0.951636
109 3 -5.37458 11.3514 4.96915
110 3 -3.71927 10.3789 6.90968
111 3 -4.50534 12.8757 6.83034
134 3 -0.954829 12.4363 2.69004
135 3 -2.89826 12.0488 4.95828
223 2 -1.74702 7.36833 6.04458
225 2 -1.57401 9.03397 5.05397
261 2 -1.6914 10.1778 2.05968
224 2 -0.427808 8.74265 6.57068
259 2 -2.63147 9.27058 3.60144
289 2 -3.21573 8.28568 5.04881
290 2 -4.19703 8.99002 3.63758
338 2 -2.34064 9.178 0.140784
361 2 -3.82212 9.40686 1.3834
67 1 -1.98321 7.11846 1.4833
260 2 -0.637118 9.27617 3.30681
220 2 -2.62496 7.31634 8.18964
95 1 -4.19658 8.20028 4.41132
132 3 1.80036 7.90066 2.02072
337 1 -3.44097 9.27369 0.281124
138 3 -1.32864 10.2266 8.58991
142 3 1.58285 9.85798 6.48689
218 2 -0.231463 7.28556 7.34401
141 3 -0.0785639 11.2661 5.04917
242 2 0.729351 8.54024 4.41693
243 2 0.472047 7.01056 5.55709
267 2 3.59031 7.45584 5.69097
228 2 -0.187935 7.85456 12.3053
71 1 -3.17389 8.19685 8.77728
299 3 -5.87201 10.2455 16.143
145 3 3.25009 7.71609 12.9901
139 3 -0.811642 12.7707 8.75567
147 3 1.88881 9.96043 12.3368
226 2 -1.60862 7.04029 11.2803
297 4 -4.53569 10.7664 17.0581
222 2 -3.00814 8.18262 9.86338
300 2 -3.28933 12.7876 16.3764
302 2 -2.07664 11.4334 16.2976
301 2 -3.3772 11.5777 14.9657
342 2 -1.23568 11.4356 14.1296
73 1 -1.15624 7.23433 12.3116
6 4 -5.19087 12.9929 13.5115
16 4 -2.42511 8.4069 13.1608
18 4 -3.32929 11.0866 11.6421
37 4 -0.869584 11.407 9.58698
74 1 -1.51428 9.42527 14.4805
75 1 -4.43957 10.8753 10.1076
112 3 -3.30579 7.3589 14.0187
113 3 -3.11643 9.50127 12.1728
114 3 -4.11536 12.0136 12.7415
140 3 -1.96882 11.5462 10.9255
229 2 -2.10351 10.3029 15.0546
230 2 -0.701239 9.85668 13.8211
231 2 -1.066 8.68008 15.2447
232 2 -4.13902 11.7655 9.43392
234 2 -4.04472 9.81152 9.63486
298 1 -3.10022 11.7255 16.0647
340 1 -1.3019 12.6488 14.1072
341 2 -1.2764 13.1587 15.1381
356 3 -6.25492 12.1058 14.2932
329 2 -5.80179 12.2276 9.36891
262 2 -0.414541 11.6462 15.6792
362 2 0.0345771 9.94686 16.3044
130 3 -0.285891 7.59516 16.5445
233 2 -5.58453 10.899 10.4875
144 3 1.32891 8.65417 14.5938
343 2 -2.12529 13.0882 13.4092
85 1 -0.0703726 10.9866 16.6046
265 2 0.429845 8.60572 8.64802
39 4 2.52165 9.15017 13.5676
129 3 2.59521 7.01129 16.4981
146 3 0.559167 11.1039 10.2148
266 2 1.73933 8.89554 9.99496
86 1 1.51701 8.46531 9.00847
31 4 1.23753 7.38948 15.5789
264 2 1.82674 7.37811 8.84121
327 1 -6.53595 13.0772 8.8503
258 2 3.21776 7.6085 9.82364
339 2 -4.09574 8.35582 17.106
344 1 14.1321 1.22002 8.20839
304 4 6.76471 6.47972 3.66054
308 1 6.17344 5.9463 5.3019
311 3 6.28735 5.50835 2.48089
321 2 5.05042 6.11089 5.34373
80 1 6.04287 5.5294 8.12374
249 2 5.48007 6.43748 7.85951
323 2 6.55938 4.84769 5.24276
247 2 7.00355 5.40683 7.41244
169 3 9.47768 3.3542 8.54933
151 3 7.99672 2.90918 4.92217
276 2 7.95486 4.45474 6.49837
43 4 11.5659 1.7882 0.127663
273 2 11.5875 6.40077 2.25721
306 1 8.71162 6.76664 3.63176
150 3 8.31072 1.19442 2.98432
277 2 8.83602 5.79014 5.37537
274 2 10.6809 5.48069 3.79277
2 4 14.0781 2.1509 3.41669
42 4 8.93597 2.37412 3.75039
46 4 11.6279 2.1782 5.29796
50 4 10.3795 4.24625 1.65619
52 4 10.0942 4.1797 7.29575
89 1 11.3893 5.37615 2.84085
90 1 8.79623 5.23087 6.46933
149 3 13.4934 0.883488 2.72852
153 3 11.5307 0.454959 1.19947
156 3 12.9456 2.85045 4.36826
157 3 10.317 1.78445 4.42576
158 3 12.1855 1.03532 6.34429
165 3 9.26503 3.61021 2.71897
166 3 11.389 3.16872 1.04584
168 3 9.94519 5.40629 0.647238
170 3 10.9791 3.30164 6.29655
275 2 8.72034 5.97757 7.3848
91 1 11.1864 5.67549 8.02058
211 2 13.1412 3.56132 8.34975
364 2 12.2855 4.73257 2.9845
315 2 9.32178 5.80999 3.7698
271 2 11.3194 6.43021 7.16247
270 2 12.2486 5.14681 8.30851
346 2 14.3494 2.14922 7.60526
345 2 15.1015 0.577041 8.40992
118 3 7.41765 1.09783 6.88852
23 4 6.64583 2.1584 5.97755
248 2 6.38499 5.54736 9.19417
26 4 6.61845 2.1413 11.3184
128 3 6.36336 3.55088 12.5711
174 3 6.00658 4.93262 14.7151
54 4 6.42772 6.45544 15.3192
162 3 7.55022 1.91238 16.3416
285 2 5.96521 6.36493 10.8213
284 2 6.93405 4.96983 11.7302
93 1 7.0849 5.91365 11.0516
175 3 7.80765 6.31311 16.2034
256 2 4.79394 6.4317 9.54331
155 3 7.73588 2.54547 10.3409
283 2 7.7221 5.72911 10.1124
365 2 10.7309 6.16194 10.6033
203 2 15.028 0.507378 10.8387
363 2 13.5925 1.53586 9.17159
279 2 10.78 6.23221 8.92835
280 2 13.3062 3.79661 10.6365
12 4 11.7588 6.34733 15.2686
7 4 14.096 1.79055 15.5857
45 4 9.17905 2.18202 9.68288
48 4 8.82715 2.03006 15.5109
49 4 11.5251 2.36249 11.9832
51 4 9.3577 6.45532 17.0109
53 4 9.90685 4.30562 13.8724
88 1 12.9747 3.48761 11.7738
152 3 12.7755 1.6987 16.61
159 3 14.036 0.859624 14.2066
160 3 8.7393 0.817959 14.4177
161 3 10.1646 1.88586 16.5225
163 3 10.5214 2.279 10.6727
164 3 12.2657 0.92173 12.4553
171 3 8.88093 3.5175 14.8186
172 3 10.6498 3.19275 13.0361
173 3 11.1304 5.03313 14.835
177 3 9.37095 5.48844 12.7811
272 2 12.8823 4.28527 12.5438
55 4 8.67916 6.65547 11.9195
154 3 9.13695 0.804585 8.96288
123 3 7.1772 1.10618 12.3752
333 2 13.2513 4.05211 15.6225
35 4 1.64299 11.6711 0.0530676
334 1 8.90859 9.80695 3.14077
44 4 5.14577 13.5945 7.381
268 2 4.4826 8.98255 6.34569
278 2 11.4474 7.10784 3.94661
21 4 0.335509 13.5297 7.90017
41 4 4.9897 13.2724 1.97146
318 2 5.15403 8.21626 2.60313
291 2 9.73838 8.9875 6.94524
33 4 2.81868 9.14955 1.6827
240 2 4.16921 6.94524 3.83248
56 4 3.78792 11.1199 4.01049
60 4 6.32448 11.2065 5.80602
87 1 3.82516 8.13189 6.64038
133 3 4.16315 8.41139 0.93996
96 1 9.35269 8.35378 7.79736
143 3 1.2184 12.4547 6.9759
178 3 3.33849 9.8412 3.18416
179 3 4.33166 12.1605 2.95671
180 3 2.59398 11.8201 4.82113
186 3 4.91239 10.7121 5.26234
187 3 6.96176 9.88871 6.45357
188 3 6.24093 12.4845 6.79184
269 2 4.19484 7.59948 7.51578
307 1 5.72995 8.24067 3.5885
319 2 6.59529 9.00572 3.59395
320 2 5.03457 8.4023 4.46058
357 3 6.13326 12.4179 1.00437
322 2 7.05895 6.93932 6.39726
351 1 6.87114 9.85233 0.610904
58 4 7.50795 8.55993 7.34011
185 3 7.42703 11.5538 4.64639
136 3 2.20607 10.3436 0.886443
352 2 7.5303 9.79729 1.56299
354 2 5.90323 9.36124 0.84102
182 3 3.41102 10.3833 8.51104
137 3 0.934724 12.8562 1.00046
347 1 9.32879 8.03257 0.769355
316 2 9.01344 7.5105 4.47042
349 2 10.1239 7.84675 1.51915
317 2 8.90195 7.21259 2.54844
336 2 7.92931 9.22151 3.27497
13 4 8.82025 11.5001 3.95684
286 2 10.5489 8.34202 5.12526
350 2 8.27357 8.05409 1.18057
292 2 9.98346 7.31548 7.91505
335 2 9.04843 10.0985 2.04089
360 2 9.90295 9.23477 3.57723
36 4 2.59772 9.41907 7.59357
330 2 8.36576 12.6775 8.04063
28 4 4.09413 7.00516 -0.00459916
348 2 9.53959 8.97172 0.0589803
38 4 1.32563 11.4852 5.7929
183 3 4.35585 12.9485 8.62303
176 3 5.21226 6.93464 16.4062
40 4 1.63749 11.3492 11.4996
257 2 4.87838 7.80336 10.8731
83 1 4.16822 7.06805 10.3232
47 4 5.33842 13.4085 13.4317
288 2 6.89797 7.54294 9.85893
17 4 8.66254 11.0191 15.2331
24 4 0.234691 13.5709 13.2964
59 4 3.97487 11.5923 9.56409
62 4 3.85496 11.4776 15.3498
63 4 6.23945 11.0277 11.585
191 3 7.90098 9.89313 14.3349
148 3 0.892603 12.3982 12.4696
184 3 3.00109 11.9167 10.7581
189 3 6.4656 7.65806 14.3429
192 3 3.40544 10.2358 14.4981
193 3 5.12436 11.0159 16.1858
194 3 4.32289 12.6044 14.3183
195 3 2.5002 12.028 16.2937
196 3 5.4091 11.0753 10.2148
197 3 6.12948 9.67761 12.4692
198 3 6.1268 12.3786 12.5185
61 4 7.11712 8.79986 13.5179
94 1 6.80156 8.51938 9.13896
97 1 8.08327 10.8416 10.9585
181 3 7.56867 11.7112 16.2508
366 2 7.32184 9.40932 9.74219
295 2 8.01583 11.1411 9.80995
296 2 8.47656 9.78468 11.1639
190 3 8.16907 7.99205 12.5153
282 2 9.69819 7.41028 9.58367
92 1 10.0454 7.08781 10.6424
294 2 8.55873 11.6438 11.624
281 2 10.4686 7.91575 11.307
57 4 6.30227 11.464 17.1873
287 2 5.73658 8.78044 8.85019
293 2 9.29656 8.97969 8.76725
167 3 10.5466 7.1391 16.1501
353 2 7.28077 9.21555 17.2508
ITEM: TIMESTEP
100
ITEM: NUMBER OF ATOMS
366
ITEM: BOX BOUNDS xy xz yz pp pp pp
-7.8259280126619677e+00 1.5672935023048570e+01 -7.7280764795282639e+00
7.2574629232555837e-02 1.3648589544362832e+01 -1.4891651008504350e-01
-7.1564794098771145e-02 1.7318064794098724e+01 -4.5261549988988042e-02
ITEM: ATOMS id type x y z
11 4 -0.80567 4.79291 7.04698
69 1 -2.13874 5.43333 5.73079
102 3 -0.899054 3.22396 2.48423
104 3 -0.548003 4.8936 0.178997
98 3 -0.30365 1.65311 4.58669
215 2 -1.44151 6.05091 5.06104
210 2 -1.16331 6.45073 2.31914
237 2 5.20696 0.309542 4.93779
105 3 -0.0395978 3.63156 6.32992
216 2 -2.95899 6.07115 6.25354
70 1 0.433961 6.22942 7.45986
9 4 0.110985 4.12111 1.4927
124 3 0.88241 5.19892 2.3819
5 4 0.749703 2.3545 5.50562
303 4 5.23902 4.65259 1.36496
29 4 4.89686 4.13135 7.74471
64 1 2.06279 3.13509 4.33284
76 1 5.47829 1.41674 4.75805
79 1 3.26568 4.63349 6.86951
99 3 1.57508 1.41186 6.59966
103 3 1.30733 3.05747 1.08955
115 3 6.47431 1.04382 1.17156
324 1 3.89531 0.343088 2.67444
126 3 5.71865 3.26235 6.76922
199 2 1.56991 2.70557 3.33359
200 2 2.93444 2.50116 4.69779
201 2 2.39612 4.3094 4.24174
244 2 2.88208 3.96697 6.0113
245 2 3.46623 5.65927 6.60913
246 2 2.54035 4.59092 7.75379
305 1 4.03752 3.50744 2.28971
217 2 0.470372 5.89168 8.55834
310 3 4.12866 5.78743 0.821807
312 2 2.95639 4.0688 2.19026
313 2 4.5109 3.69189 3.33814
314 2 3.94949 2.42184 2.09851
355 3 1.87409 0.614098 0.723174
236 2 4.63021 2.12838 4.94548
235 2 5.99269 1.61904 3.73582
325 2 3.35091 1.16911 3.11016
219 2 1.48623 6.1194 6.98442
4 4 2.39246 0.497081 7.62077
77 1 3.15177 6.15756 3.94683
239 2 2.94169 5.88946 4.97307
326 2 4.65786 0.69331 1.96214
238 2 3.48396 5.17258 3.30701
27 4 1.4915 6.75086 3.02666
214 2 -2.42301 4.50742 5.19345
19 4 7.62595 0.125612 1.94089
68 1 -1.61918 4.0866 8.70813
106 3 -2.69912 6.23512 16.302
332 2 -0.738275 3.86106 14.9655
212 2 -1.78231 5.02973 9.3357
331 1 -1.82382 3.51563 14.8227
213 2 -0.998691 3.27589 9.29307
252 2 -0.327497 5.60968 14.7747
202 2 -1.15034 2.40638 11.1022
65 1 -0.274023 1.78318 10.6976
100 3 -0.124634 1.88348 16.391
254 2 0.8204 6.6938 11.6468
253 2 2.0077 5.75891 10.4378
32 4 3.47094 6.52271 12.0253
20 4 6.16308 1.93097 17.2935
255 2 1.50187 4.85856 12.1623
251 2 1.11047 5.95853 13.4872
207 2 0.472797 3.94896 13.2434
116 3 3.31625 1.38264 8.70617
204 2 0.294711 2.27365 9.83893
206 2 1.07784 2.27154 14.1308
250 2 1.47764 5.05903 15.1265
125 3 4.45832 3.64521 9.25389
8 4 1.40129 1.89639 11.8872
22 4 3.95549 2.25799 9.93199
25 4 3.80502 1.86761 15.378
328 2 0.759797 0.447337 9.53371
30 4 5.34521 4.13258 13.605
66 1 1.29094 3.18462 13.3202
81 1 0.774955 5.82691 14.6079
82 1 1.65185 5.88024 11.5331
101 3 1.61103 0.362498 12.3759
117 3 2.64815 2.43102 10.9908
119 3 3.27795 0.6926 14.3188
120 3 5.0393 1.28927 16.3517
121 3 2.55296 2.34677 16.2094
122 3 5.23079 1.72376 10.6764
127 3 4.54584 3.06117 14.4841
131 3 4.40237 5.21923 12.7356
205 2 2.37668 3.57215 13.3437
10 4 -1.39135 6.34758 17.2756
3 4 1.35004 1.90441 17.3004
227 2 -1.38919 6.16993 12.5279
221 2 -4.27193 8.38309 8.43562
208 2 -2.87341 6.99097 1.78759
263 2 -0.747136 11.2798 0.125268
241 2 -0.593206 7.04927 3.94043
358 2 -3.46449 13.0948 3.41971
78 1 0.436478 7.37501 4.4629
1 4 -5.33897 13.0823 1.7153
209 2 -1.29796 8.13623 1.49462
14 4 -2.27341 9.52287 7.52529
15 4 -4.13334 11.6465 5.86842
34 4 -1.35981 11.6214 3.95811
72 1 -1.38873 8.60413 6.10137
84 1 -1.77055 9.96587 3.17093
107 3 -6.31669 12.5106 2.79606
108 3 -4.50745 11.8162 1.0123
109 3 -5.56651 11.2232 5.26969
110 3 -3.43031 10.3078 6.78312
111 3 -4.46533 12.8811 6.81632
134 3 -1.00233 12.7036 2.8896
135 3 -2.97245 11.9375 4.84556
223 2 -1.63947 7.42205 6.057
225 2 -1.47581 9.11276 4.98625
261 2 -2.09812 10.1604 2.06974
224 2 -0.354017 8.85016 6.55764
259 2 -2.60468 9.25185 3.64706
289 2 -3.05297 8.28308 4.99426
290 2 -4.17509 8.82577 3.55661
38 4 1.28189 11.4036 5.80609
361 2 -3.5309 9.08904 1.36994
67 1 -1.76282 7.05549 1.55506
260 2 -0.705847 9.49386 3.25186
220 2 -2.60445 7.42032 8.18412
95 1 -4.09447 8.08398 4.41343
132 3 1.74921 7.97117 2.00193
337 1 -3.5941 9.13287 0.269042
267 2 3.48653 7.38189 5.57888
142 3 1.59995 9.96082 6.4416
218 2 -0.020753 7.28264 7.40651
141 3 -0.025913 11.3693 4.84962
242 2 0.497671 8.45173 4.43006
243 2 0.560525 6.94702 5.58218
228 2 -0.256361 7.71756 13.0264
71 1 -3.18126 8.2968 8.69486
299 3 -5.77674 10.5105 16.3533
145 3 3.15823 7.71158 12.9802
138 3 -1.42511 10.1607 8.67649
147 3 1.90793 9.8254 12.2098
226 2 -1.20656 7.69961 11.3235
297 4 -4.46464 10.8365 17.1523
222 2 -3.03564 8.27933 9.82859
300 2 -3.38153 12.8769 16.0262
302 2 -2.08104 11.4583 16.2719
301 2 -3.58512 11.3837 14.9362
342 2 -1.30623 11.5098 14.1726
73 1 -1.15702 7.28996 12.3784
6 4 -5.24251 13.0243 13.4351
16 4 -2.35483 8.49871 13.1933
18 4 -3.32566 11.1478 11.4667
37 4 -0.936811 11.51 9.70818
74 1 -1.3614 9.45668 14.5333
75 1 -4.48191 10.9566 10.0212
112 3 -3.47969 7.39338 14.1281
113 3 -2.9552 9.53795 12.1014
114 3 -4.08594 12.0019 12.6139
140 3 -1.96177 11.8214 10.8997
229 2 -2.10327 10.2747 14.9487
230 2 -0.508505 9.86393 14.0033
231 2 -1.05698 8.73572 15.398
232 2 -4.19424 11.8773 9.39907
234 2 -3.98028 9.90788 9.58661
298 1 -3.19989 11.7624 15.9152
340 1 -1.23249 12.7259 14.1245
341 2 -1.23392 13.2457 15.161
356 3 -6.10987 12.0513 14.2958
329 2 -5.87234 12.3207 9.37193
262 2 -0.495914 11.658 15.605
362 2 0.0339306 9.89185 16.5136
130 3 -0.185039 7.5671 16.5367
233 2 -5.57189 10.9345 10.3183
144 3 1.32512 8.60732 14.4587
343 2 -2.04851 13.1015 13.4361
85 1 -0.158509 11.0315 16.6912
265 2 0.504857 8.81003 8.84378
39 4 2.49394 9.13645 13.5223
129 3 2.5857 7.04727 16.4056
146 3 0.432446 11.0498 10.3401
266 2 1.91769 8.89888 10.0126
86 1 1.53728 8.46089 9.03697
31 4 1.13684 7.41785 15.6129
264 2 1.77101 7.36116 8.89667
327 1 -6.54046 13.1696 8.77692
258 2 3.20854 7.76486 9.90613
339 2 -4.32795 8.29551 17.1208
338 2 -2.73307 9.31244 17.1929
139 3 -0.879684 12.6607 8.6561
344 1 13.9762 1.12718 8.18358
304 4 6.75793 6.45714 3.69479
308 1 6.33829 5.86409 5.32879
311 3 6.23714 5.4784 2.56317
321 2 5.21616 5.94841 5.29223
80 1 6.01765 5.73267 8.1578
249 2 5.44453 6.60393 7.76299
323 2 6.73381 4.81853 5.25254
247 2 7.0356 5.55696 7.52199
169 3 9.59225 3.23075 8.50862
151 3 7.86873 2.81967 4.93467
276 2 7.92547 4.46858 6.70514
43 4 11.5896 1.66663 0.0987226
273 2 11.2362 6.2591 2.55077
306 1 8.77984 6.63021 3.72687
150 3 8.47646 1.06103 2.86339
277 2 8.79769 5.67723 5.55198
274 2 10.9389 5.00842 4.05591
2 4 14.1095 2.06566 3.54078
42 4 8.9772 2.27985 3.67632
46 4 11.6936 2.21202 5.27591
50 4 10.412 4.15133 1.70703
52 4 10.2239 4.27566 7.34822
89 1 11.4046 5.2119 2.98919
90 1 8.77712 5.19087 6.6137
149 3 13.6364 0.808445 2.7853
153 3 11.7173 0.39354 1.05263
156 3 12.8686 2.81273 4.44817
157 3 10.3922 1.92817 4.33287
158 3 12.0465 0.8794 6.19852
165 3 9.23492 3.46015 2.6884
166 3 11.4003 3.07287 1.0893
168 3 9.71116 5.179 0.557476
170 3 11.2184 3.66374 6.29267
275 2 8.77245 6.02754 7.47096
91 1 11.2696 5.71011 8.07713
309 3 5.9656 3.59572 0.515836
364 2 12.4651 4.83986 2.90868
315 2 9.2812 5.64551 3.74987
271 2 11.5634 6.40544 7.19433
270 2 12.3065 5.17027 8.399
346 2 14.1086 2.0182 7.53495
345 2 15.0341 0.590499 8.40243
118 3 7.40974 1.14576 6.99275
23 4 6.79036 2.15648 5.92902
211 2 13.0671 3.64421 8.28658
248 2 6.26233 5.77585 9.28937
26 4 6.62805 2.26591 11.4223
128 3 6.18852 3.35075 12.4371
174 3 6.10639 5.00881 14.6283
54 4 6.42092 6.50304 15.3848
162 3 7.4433 1.91587 16.4859
285 2 6.1104 6.45489 10.8906
284 2 6.9933 4.89581 11.6908
93 1 7.1965 5.85561 11.1168
175 3 7.7277 6.49929 16.1818
256 2 4.8606 6.70578 9.56436
155 3 7.82452 2.91933 10.4879
283 2 7.9311 5.75613 10.1345
365 2 10.8952 6.27755 10.677
203 2 15.0483 0.705869 10.5766
363 2 13.4112 1.3353 9.19162
279 2 10.7773 6.26828 9.039
280 2 13.3268 3.78944 10.6338
12 4 11.6197 6.43623 15.2559
7 4 14.007 1.80187 15.5982
45 4 9.14456 2.26425 9.68524
48 4 8.90079 1.85634 15.5549
49 4 11.5265 2.45775 11.8932
51 4 9.10412 6.52022 17.0566
53 4 9.94692 4.18753 14.0093
88 1 12.9617 3.64664 11.7234
152 3 12.7847 1.7546 16.5192
159 3 13.9665 0.63922 14.25
160 3 8.77524 0.736441 14.4133
161 3 10.0751 1.57045 16.5734
163 3 10.5949 2.39045 10.6174
164 3 12.2727 1.05334 12.2958
171 3 8.95653 3.43303 14.9627
172 3 10.6851 3.11985 13.1109
173 3 11.2732 4.95871 14.7502
177 3 9.19883 5.48514 13.0146
272 2 12.7533 4.54674 12.3675
55 4 8.72452 6.67226 12.0468
154 3 8.89368 0.753986 9.1957
123 3 7.33525 1.01322 12.2935
333 2 13.0157 4.03631 15.4698
359 2 13.5176 3.55826 13.6484
176 3 5.28643 6.83656 16.4816
35 4 1.66456 11.635 -0.0195174
334 1 8.95857 9.68276 3.22925
44 4 5.0898 13.4563 7.24693
268 2 4.61608 8.65066 6.34599
278 2 11.5424 6.99725 4.01353
21 4 0.348677 13.5741 7.97474
41 4 5.16014 13.2087 1.94696
318 2 5.14494 8.17389 2.69174
291 2 9.67701 8.83627 6.82572
33 4 2.94992 9.11585 1.72058
240 2 4.07491 6.94689 3.85128
56 4 3.72472 11.1381 4.00092
60 4 6.31812 11.1291 5.6557
87 1 3.70907 8.00881 6.55353
133 3 4.32055 8.54924 1.09979
96 1 9.39245 8.24639 7.81232
143 3 1.19271 12.5817 6.92629
178 3 3.26289 9.68109 3.26296
179 3 4.39995 12.1158 2.90156
180 3 2.40207 11.7598 4.62098
186 3 4.9211 10.647 5.05823
187 3 6.99271 9.86324 6.68835
188 3 6.15003 12.4029 6.5636
269 2 3.98427 7.32784 7.44527
307 1 5.73479 8.19231 3.67217
319 2 6.51211 9.05765 3.66695
320 2 5.03159 8.18362 4.60004
357 3 6.13554 12.4064 0.993207
322 2 7.0784 6.92842 6.43283
351 1 6.87058 9.72361 0.359355
58 4 7.48468 8.52516 7.49345
185 3 7.42625 11.4 4.46874
136 3 2.2608 10.2941 0.871045
352 2 7.40292 9.94898 1.34015
354 2 5.8213 9.14524 0.63115
182 3 3.39776 10.2262 8.45842
137 3 0.995297 12.7645 0.955692
347 1 9.10178 8.0516 0.912073
316 2 9.02848 7.38635 4.546
349 2 9.98361 7.8892 1.62115
317 2 8.96919 7.10425 2.66531
336 2 7.9421 9.15993 3.28692
13 4 8.88429 11.3933 4.0647
286 2 10.6723 8.18305 5.11601
350 2 8.12602 8.1053 1.47234
292 2 10.0449 7.35103 7.96105
335 2 9.34819 9.95136 2.16431
360 2 9.78519 9.03892 3.76059
36 4 2.5915 9.27566 7.52837
330 2 8.35082 12.7265 8.0181
183 3 4.16348 12.8303 8.49064
348 2 9.32237 8.89105 0.200465
28 4 3.88564 7.02022 17.2449
40 4 1.62671 11.3178 11.3909
257 2 4.97179 7.96198 10.9282
83 1 4.26292 7.20878 10.4104
47 4 5.2389 13.4767 13.2871
288 2 7.1173 7.4738 9.87908
17 4 8.62716 11.1616 15.2886
24 4 0.341573 13.4971 13.2574
59 4 3.97859 11.5653 9.45923
62 4 3.71698 11.5588 15.186
63 4 6.16406 11.0518 11.5302
191 3 7.75808 9.9871 14.412
148 3 1.18169 12.3662 12.5704
184 3 3.042 11.7761 10.6828
189 3 6.41904 7.71081 14.3906
192 3 3.49429 10.15 14.3836
193 3 4.98648 11.2135 16.3055
194 3 4.20507 12.6583 14.1256
195 3 2.39144 11.9567 16.0833
196 3 5.34652 10.9932 10.1573
197 3 6.0796 9.60435 12.4337
198 3 6.10476 12.4618 12.3796
61 4 7.04072 8.82588 13.4957
94 1 6.86279 8.48755 9.26424
97 1 7.96568 11.0736 10.7514
181 3 7.56489 11.8877 16.187
366 2 7.24788 9.44059 9.86207
295 2 7.82613 11.0753 9.66843
296 2 8.47625 10.1761 11.1643
190 3 8.26398 8.07916 12.6229
282 2 9.86819 7.50429 9.6327
92 1 10.1599 7.15243 10.7292
294 2 8.4726 12.0709 11.0877
281 2 10.4872 8.05729 11.3343
57 4 6.32263 11.4318 17.1838
287 2 5.70299 8.58529 8.88795
293 2 9.34363 8.97734 8.78686
167 3 10.3237 7.03556 16.1256
353 2 7.31356 9.11648 16.9705
ITEM: TIMESTEP
200
ITEM: NUMBER OF ATOMS
366
ITEM: BOX BOUNDS xy xz yz pp pp pp
-7.8259280126619677e+00 1.5672935023048570e+01 -7.7280764795282639e+00
7.2574629232555837e-02 1.3648589544362832e+01 -1.4891651008504350e-01
-7.1564794098771145e-02 1.7318064794098724e+01 -4.5261549988988042e-02
ITEM: ATOMS id type x y z
11 4 -0.813602 4.7803 7.02544
69 1 -2.22619 5.45924 5.88268
102 3 -0.946194 3.30802 2.47749
104 3 -0.668075 4.8155 0.316997
98 3 -0.222749 1.69078 4.54127
215 2 -1.74406 6.17289 5.13464
210 2 -1.47695 6.01143 2.29317
237 2 5.21941 0.283403 4.80645
105 3 0.0333419 3.63957 6.3511
216 2 -3.13114 5.88092 6.37095
70 1 0.424533 6.17105 7.4042
9 4 0.141485 4.05514 1.59322
124 3 0.715933 5.46583 2.60549
5 4 0.773109 2.36337 5.53152
118 3 7.24538 0.870253 6.67593
29 4 4.9955 4.14674 7.87299
64 1 2.12491 3.2383 4.45897
76 1 5.51906 1.44206 4.64096
79 1 3.29661 4.70794 7.15121
99 3 1.65253 1.42492 6.53006
103 3 1.24601 3.09626 1.01276
115 3 6.44241 1.07324 1.22098
324 1 3.73473 0.568504 2.81101
126 3 5.79616 3.21326 6.94065
199 2 1.80228 2.80035 3.45637
200 2 3.03099 2.71209 4.92389
201 2 2.29056 4.3676 4.36939
244 2 2.87922 4.16911 6.12531
245 2 3.37211 5.8529 6.84895
246 2 2.53993 4.53236 7.98627
305 1 4.18182 3.55069 2.54836
27 4 1.48794 6.71447 3.09727
310 3 4.07137 5.60013 0.653341
312 2 3.12077 3.96693 2.41226
313 2 4.5166 3.55652 3.59916
314 2 4.21273 2.4257 2.07583
355 3 1.85141 0.477899 0.792677
236 2 4.5925 2.12032 4.83572
235 2 5.971 1.59031 3.61003
325 2 3.02547 1.46683 3.03796
219 2 1.5375 5.65946 7.30722
4 4 2.56027 0.561441 7.57878
77 1 3.16876 6.20906 4.0311
239 2 2.76694 6.00523 5.08085
326 2 4.64156 0.849654 2.09503
238 2 3.46902 5.17201 3.52473
217 2 0.00437852 6.33612 8.51232
243 2 0.309057 6.8233 5.35907
303 4 5.17736 4.66243 1.38126
68 1 -1.58827 4.09693 8.74018
106 3 -2.7871 6.26431 16.4033
332 2 -0.442494 3.90498 14.8187
212 2 -1.74838 5.01047 9.44068
331 1 -1.4988 3.4777 14.7802
213 2 -0.847562 3.40384 9.17588
252 2 -0.156311 5.41692 14.8303
202 2 -1.04106 2.5019 11.1448
65 1 -0.104227 1.86648 10.642
100 3 -0.0557094 1.62128 16.4015
254 2 0.743439 6.44571 11.7466
253 2 1.93806 5.68075 10.4832
32 4 3.45107 6.49423 12.0102
359 2 -1.9272 3.43798 13.6286
255 2 1.53725 4.66539 12.2339
251 2 1.31241 5.79726 13.5705
207 2 0.182968 3.5869 13.2678
116 3 3.42271 1.32781 8.79553
204 2 0.247799 2.25228 9.63412
206 2 0.9663 2.10883 14.1063
250 2 1.71532 5.15119 15.3686
125 3 4.43524 3.78261 9.365
8 4 1.51699 1.96216 11.7737
22 4 4.08418 2.27996 9.95709
25 4 3.70621 1.90266 15.3499
328 2 0.9005 0.435024 9.53751
30 4 5.215 4.23801 13.7608
66 1 1.11275 2.99082 13.4085
81 1 0.939072 5.74454 14.7068
82 1 1.71402 5.75263 11.6108
101 3 1.59583 0.540898 12.3136
117 3 2.78809 2.52838 10.9413
119 3 3.47081 0.630983 14.3367
120 3 4.87496 1.43412 16.4559
121 3 2.41614 2.30886 16.1283
122 3 5.45653 1.67807 10.6816
127 3 4.12023 3.33819 14.4369
131 3 4.33196 5.31645 12.7135
205 2 2.05873 3.56554 13.6536
227 2 -1.80666 6.69995 11.7375
3 4 1.27858 1.85941 17.2221
203 2 -0.307493 0.746039 10.7078
10 4 -1.4192 6.25603 17.2797
333 2 -2.13597 4.01755 15.5191
20 4 6.15983 1.9096 17.2891
221 2 -4.37673 8.21045 8.39249
208 2 -2.67426 7.34335 1.73247
263 2 -0.844815 11.1187 0.187852
241 2 -0.603716 7.67888 3.98066
358 2 -3.71019 13.4568 3.65331
78 1 0.377827 7.51667 4.46694
1 4 -5.14407 13.0065 1.81878
209 2 -0.892408 7.7796 1.68712
14 4 -2.32776 9.60256 7.54185
15 4 -4.14646 11.6221 6.03495
34 4 -1.44524 11.5822 4.00539
72 1 -1.3179 8.60114 6.19358
84 1 -1.61993 9.87862 3.23508
107 3 -6.02737 12.4108 3.04957
108 3 -4.30665 11.7427 0.959982
109 3 -5.56473 11.0976 5.40517
110 3 -3.48435 10.4045 6.89065
111 3 -4.31186 12.845 7.0528
134 3 -0.924283 12.4691 2.77984
135 3 -3.0489 12.0053 4.83474
223 2 -1.6403 7.47613 6.15729
225 2 -1.45194 9.1358 5.15892
261 2 -1.77645 10.2102 2.15965
224 2 -0.299706 8.79926 6.56011
259 2 -2.53563 9.25414 3.72161
289 2 -2.97168 8.25013 5.05873
290 2 -4.0878 8.92951 3.72206
38 4 1.23872 11.4618 5.80261
361 2 -3.72666 9.14471 1.40657
67 1 -1.66854 6.90746 1.63908
260 2 -0.623316 9.32711 3.31796
220 2 -2.62669 7.39009 8.03317
95 1 -3.98035 8.06767 4.42237
132 3 1.79197 7.96189 2.0831
337 1 -3.54223 9.16156 0.299569
267 2 3.40941 7.35665 5.85792
142 3 1.60655 9.83038 6.49472
218 2 0.396178 7.0242 6.76642
141 3 -0.302473 11.4204 5.14168
242 2 0.930762 8.41409 4.72125
19 4 -0.161826 13.5916 1.98315
338 2 -2.49129 9.21953 -0.00259186
330 2 -7.14495 12.7603 8.03994
278 2 -3.9332 7.03708 3.80599
138 3 -1.42869 10.3621 8.5802
228 2 -0.165415 7.1888 12.7824
139 3 -0.768078 12.7553 8.76746
299 3 -5.87779 10.4326 16.3758
145 3 3.22595 7.80787 12.8909
339 2 -4.25879 8.33012 17.1539
147 3 1.99303 9.7668 12.0742
226 2 -0.794687 8.3091 11.3412
297 4 -4.48571 10.786 17.0764
222 2 -3.02687 8.15006 9.71528
300 2 -3.33342 12.8043 16.1452
302 2 -2.07447 11.373 16.2417
301 2 -3.41378 11.3929 14.8165
342 2 -1.406 11.4596 13.9601
73 1 -1.05009 7.51022 12.1424
6 4 -5.20041 13.1999 13.4438
16 4 -2.43178 8.47388 13.0829
18 4 -3.42649 11.2344 11.5554
37 4 -0.910102 11.4884 9.63143
74 1 -1.50357 9.35332 14.5632
75 1 -4.52038 10.8975 10.048
112 3 -3.57992 7.50697 13.9263
113 3 -3.09583 9.64812 12.2182
114 3 -4.23393 12.2489 12.4477
140 3 -2.14769 11.7921 10.8375
229 2 -2.10434 10.16 15.0236
230 2 -0.654812 9.71871 13.8186
231 2 -1.12732 8.56667 15.3032
232 2 -4.12381 11.7605 9.41744
234 2 -4.14662 9.74887 9.47612
298 1 -3.16176 11.71 15.8725
340 1 -1.25606 12.5826 13.8992
341 2 -1.20438 13.051 14.9636
356 3 -6.09302 12.1925 14.2944
329 2 -5.65989 12.3587 9.23057
262 2 -0.344103 11.0827 15.7524
362 2 -0.216758 9.57609 16.8346
130 3 -0.218766 7.52024 16.4881
233 2 -5.66716 10.9788 10.4699
144 3 1.22518 8.61907 14.5888
343 2 -2.001 13.1339 13.2772
85 1 -0.266525 10.6666 16.8254
265 2 0.524456 8.43589 8.64484
39 4 2.47028 9.08493 13.4909
129 3 2.57463 7.30519 16.5369
146 3 0.421811 11.0011 10.3775
266 2 1.8186 8.6231 10.0233
86 1 1.58397 8.33314 8.93768
31 4 1.16403 7.42962 15.6745
264 2 2.02064 7.30251 8.68663
327 1 -6.36215 13.2083 8.7332
258 2 3.26755 7.67157 9.82059
71 1 -3.26156 8.19214 8.63715
344 1 14.0836 1.13072 8.06761
304 4 6.66008 6.37738 3.80387
308 1 6.19904 5.80046 5.4146
311 3 6.02986 5.55808 2.53961
321 2 5.09827 5.91663 5.35498
80 1 6.14829 5.61428 8.31635
249 2 5.53771 6.51227 7.88589
323 2 6.59706 4.75711 5.42401
247 2 7.1156 5.46677 7.67129
169 3 9.62064 3.3909 8.54567
151 3 7.82411 2.75808 4.79802
276 2 8.07966 4.31266 6.70435
43 4 11.6385 1.68535 0.129108
273 2 11.364 6.37849 2.37226
306 1 8.66062 6.39995 3.59932
150 3 8.40536 0.909317 2.92676
277 2 8.75183 5.63938 5.45549
274 2 11.1578 5.21468 3.80641
2 4 14.1356 2.09685 3.52177
42 4 9.00283 2.23761 3.66662
46 4 11.6489 2.30574 5.29322
50 4 10.4131 4.14005 1.64474
52 4 10.2368 4.27857 7.31345
89 1 11.5044 5.30033 2.78401
90 1 8.81463 5.18986 6.59826
149 3 13.5459 0.829513 2.80238
153 3 11.8381 0.317813 0.997043
156 3 12.9098 2.79514 4.36128
157 3 10.4452 1.8195 4.38273
158 3 12.099 1.04536 6.29208
165 3 9.21959 3.39654 2.65269
166 3 11.396 3.10486 0.943758
168 3 9.76757 5.25898 0.662771
170 3 11.1379 3.53829 6.19229
275 2 8.76334 6.01546 7.42138
91 1 11.3152 5.68215 8.16586
309 3 5.95054 3.55368 0.428748
364 2 12.5968 4.86156 2.62768
315 2 8.99115 5.29817 3.57639
271 2 11.5732 6.41417 7.38245
270 2 12.3134 5.05228 8.44165
346 2 14.1232 1.96879 7.37635
345 2 15.1773 0.612733 8.32067
211 2 13.0393 3.57029 8.50777
23 4 6.75981 2.13553 5.87107
214 2 13.0677 4.40509 5.37705