ITEM: TIMESTEP
0
ITEM: NUMBER OF ATOMS
366
ITEM: BOX BOUNDS xy xz yz pp pp pp
-7.8259280126619677e+00 1.5672935023048570e+01 -7.7280764795282639e+00
1.1783617922154388e-01 1.3913441379297762e+01 -1.4891651008504350e-01
-7.1564794098771145e-02 1.7318064794098724e+01 1.2817755851936080e-01
ITEM: ATOMS id type x y z
11 4 -0.732825 4.99593 7.06488
69 1 -2.09401 5.51774 5.8004
102 3 -0.944794 3.31243 2.40261
104 3 -0.569916 5.03844 0.195375
98 3 -0.271291 1.78871 4.49207
215 2 -2.14251 6.29474 5.04785
210 2 -1.61804 6.34727 2.20496
19 4 7.62067 0.174427 1.90062
105 3 0.0825244 3.84622 6.36086
216 2 -3.04315 5.59126 6.64348
70 1 0.404154 6.4523 7.46222
9 4 0.0929003 4.26361 1.49486
124 3 0.701873 5.42537 2.38365
5 4 0.768618 2.52594 5.56132
303 4 5.32993 4.57946 1.31036
29 4 4.74115 4.34738 7.74032
64 1 2.16569 3.34995 4.47585
76 1 5.49435 1.38251 4.78935
79 1 3.07613 5.14539 7.02064
99 3 1.61557 1.51261 6.66256
103 3 1.2829 3.3195 0.84989
115 3 6.52447 0.979508 1.05631
324 1 3.717 0.244918 2.78228
126 3 5.66291 3.34138 6.80861
199 2 1.72658 2.83911 3.50567
200 2 3.00595 2.76233 4.86318
201 2 2.51188 4.42348 4.3313
244 2 2.71112 4.41465 6.10557
245 2 3.26963 6.35186 6.81267
246 2 2.40426 4.98542 7.9666
305 1 4.24168 3.47695 2.45012
309 3 5.89245 3.55187 0.258524
310 3 4.10351 5.51826 0.852088
312 2 3.12337 3.87093 2.24219
313 2 4.62359 3.70539 3.51867
314 2 4.3022 2.33526 2.1808
355 3 1.98414 0.658732 0.502914
236 2 4.60184 2.04669 4.74423
235 2 6.10717 1.44941 3.81773
325 2 3.05097 1.15019 3.24722
219 2 1.33351 6.52306 6.87143
4 4 2.45254 0.488305 7.64221
77 1 3.28952 6.23812 3.89889
239 2 2.96801 6.01344 5.01777
326 2 4.56091 0.53556 2.03678
238 2 3.63678 5.19596 3.40628
214 2 -2.25325 4.53398 5.17417
27 4 1.48601 6.79771 3.0497
237 2 5.15924 0.245488 4.97785
217 2 0.547039 6.06579 8.57423
68 1 -1.63301 4.38847 8.73058
106 3 -2.59528 6.42765 16.2916
332 2 -0.5329 4.11008 15.0073
212 2 -2.06433 5.31436 9.26603
331 1 -1.63385 3.72629 14.8958
213 2 -0.956547 3.83411 9.40733
252 2 -0.423666 6.23355 14.5635
202 2 -1.11225 2.42113 11.2937
65 1 -0.259899 1.73765 10.8541
100 3 -0.0474182 2.02154 16.2558
254 2 1.01787 6.58064 11.6352
253 2 2.19389 5.58458 10.4732
32 4 3.59173 6.50554 12.0314
20 4 6.07218 2.11653 17.2456
255 2 1.58616 4.75133 12.181
251 2 1.23669 5.93641 13.5618
207 2 0.242602 3.8147 13.1281
359 2 -1.99683 3.66784 13.7004
204 2 0.127608 2.05685 9.88602
206 2 0.885884 2.35667 14.0682
250 2 1.05998 5.19091 15.3261
125 3 4.24468 3.73088 9.19913
8 4 1.53159 1.89762 11.8393
22 4 3.93952 2.27042 9.83203
25 4 3.77847 1.98057 15.2613
328 2 0.686229 0.352737 9.63901
30 4 5.2225 4.34226 13.6372
66 1 1.12977 3.11151 13.3322
81 1 0.723117 6.07261 14.6309
82 1 1.86451 5.82532 11.5923
101 3 1.65968 0.398875 12.3484
117 3 2.69779 2.5158 10.8402
119 3 3.29326 0.638479 14.5543
120 3 4.89963 1.51299 16.3083
121 3 2.48995 2.74556 16.1342
122 3 5.268 1.75484 10.5819
127 3 4.3837 3.11314 14.1753
131 3 4.34636 5.29556 12.7997
205 2 2.15749 3.55157 13.4883
10 4 -1.37289 6.59423 17.2988
3 4 1.32802 2.21773 17.078
227 2 -1.07262 6.50271 12.9392
116 3 3.34927 1.36113 8.66141
221 2 -4.34196 8.39362 8.54183
208 2 -3.06518 7.41295 1.59345
263 2 -0.632726 11.213 0.0825335
241 2 -0.588475 7.27246 3.92851
358 2 -3.60054 13.1805 3.67211
78 1 0.461031 7.51798 4.43246
1 4 -5.42099 13.3084 1.69096
209 2 -1.43549 8.17668 1.6749
14 4 -2.33794 9.63556 7.58212
15 4 -4.13416 11.8724 5.93335
34 4 -1.23484 11.6154 3.9422
72 1 -1.51239 8.68595 6.16023
84 1 -1.63149 9.972 3.19636
107 3 -6.43701 12.7509 2.77834
108 3 -4.73433 11.7597 0.951636
109 3 -5.37458 11.5153 4.96915
110 3 -3.71927 10.5523 6.90968
111 3 -4.50534 13.0736 6.83034
134 3 -0.954829 12.5884 2.69004
135 3 -2.89826 12.2196 4.95828
223 2 -1.74702 7.50273 6.04458
225 2 -1.57401 9.17529 5.05397
261 2 -1.6914 10.3007 2.05968
224 2 -0.427808 8.8962 6.57068
259 2 -2.63147 9.39977 3.60144
289 2 -3.21573 8.41939 5.04881
290 2 -4.19703 9.11673 3.63758
338 2 -2.34064 9.27164 0.140784
361 2 -3.82212 9.51524 1.3834
67 1 -1.98321 7.20472 1.4833
260 2 -0.637118 9.40246 3.30681
220 2 -2.62496 7.47166 8.18964
95 1 -4.19658 8.32675 4.41132
132 3 1.80036 8.0002 2.02072
337 1 -3.44097 9.3697 0.281124
138 3 -1.32864 10.4153 8.58991
142 3 1.58285 10.0219 6.48689
218 2 -0.231463 7.43212 7.34401
141 3 -0.0785639 11.4299 5.04917
242 2 0.729351 8.6702 4.41693
243 2 0.472047 7.13647 5.55709
267 2 3.59031 7.58759 5.69097
228 2 -0.187935 8.05648 12.3053
71 1 -3.17389 8.36695 8.77728
299 3 -5.87201 10.5099 16.143
145 3 3.25009 7.92346 12.9901
139 3 -0.811642 12.9868 8.75567
147 3 1.88881 10.1839 12.3368
226 2 -1.60862 7.22373 11.2803
297 4 -4.53569 11.0453 17.0581
222 2 -3.00814 8.36343 9.86338
300 2 -3.28933 13.0801 16.3764
302 2 -2.07664 11.7114 16.2976
301 2 -3.3772 11.8439 14.9657
342 2 -1.23568 11.692 14.1296
73 1 -1.15624 7.43005 12.3116
6 4 -5.19087 13.2588 13.5115
16 4 -2.42511 8.62295 13.1608
18 4 -3.32929 11.3146 11.6421
37 4 -0.869584 11.6176 9.58698
74 1 -1.51428 9.6648 14.4805
75 1 -4.43957 11.0858 10.1076
112 3 -3.30579 7.57294 14.0187
113 3 -3.11643 9.71849 12.1728
114 3 -4.11536 12.2619 12.7415
140 3 -1.96882 11.7716 10.9255
229 2 -2.10351 10.5571 15.0546
230 2 -0.701239 10.094 13.8211
231 2 -1.066 8.91973 15.2447
232 2 -4.13902 11.9782 9.43392
234 2 -4.04472 10.0065 9.63486
298 1 -3.10022 12.0041 16.0647
340 1 -1.3019 12.9172 14.1072
341 2 -1.2764 13.4426 15.1381
356 3 -6.25492 12.3706 14.2932
329 2 -5.80179 12.4443 9.36891
262 2 -0.414541 11.9202 15.6792
362 2 0.0345771 10.2099 16.3044
130 3 -0.285891 7.83685 16.5445
233 2 -5.58453 11.1135 10.4875
144 3 1.32891 8.88704 14.5938
343 2 -2.12529 13.354 13.4092
85 1 -0.0703726 11.2632 16.6046
265 2 0.429845 8.77865 8.64802
39 4 2.52165 9.3778 13.5676
129 3 2.59521 7.24662 16.4981
146 3 0.559167 11.3178 10.2148
266 2 1.73933 9.08487 9.99496
86 1 1.51701 8.64043 9.00847
31 4 1.23753 7.61943 15.5789
264 2 1.82674 7.54057 8.84121
327 1 -6.53595 13.2973 8.8503
258 2 3.21776 7.78311 9.82364
339 2 -4.09574 8.61081 17.106
344 1 14.1321 1.31395 8.20839
304 4 6.76471 6.5813 3.66054
308 1 6.17344 6.05891 5.3019
311 3 6.28735 5.58833 2.48089
321 2 5.05042 6.22558 5.34373
80 1 6.04287 5.66602 8.12374
249 2 5.48007 6.58063 7.85951
323 2 6.55938 4.94861 5.24276
247 2 7.00355 5.53509 7.41244
169 3 9.47768 3.4731 8.54933
151 3 7.99672 2.98731 4.92217
276 2 7.95486 4.56425 6.49837
43 4 11.5659 1.80706 0.127663
273 2 11.5875 6.48753 2.25721
306 1 8.71162 6.87083 3.63176
150 3 8.31072 1.23586 2.98432
277 2 8.83602 5.90191 5.37537
274 2 10.6809 5.5735 3.79277
2 4 14.0781 2.20632 3.41669
42 4 8.93597 2.43513 3.75039
46 4 11.6279 2.25271 5.29796
50 4 10.3795 4.30522 1.65619
52 4 10.0942 4.2944 7.29575
89 1 11.3893 5.45838 2.84085
90 1 8.79623 5.34792 6.46933
149 3 13.4934 0.919223 2.72852
153 3 11.5307 0.471074 1.19947
156 3 12.9456 2.92245 4.36826
157 3 10.317 1.84626 4.42576
158 3 12.1855 1.10875 6.34429
165 3 9.26503 3.67339 2.71897
166 3 11.389 3.21071 1.04584
168 3 9.94519 5.4669 0.647238
170 3 10.9791 3.39749 6.29655
275 2 8.72034 6.11132 7.3848
91 1 11.1864 5.81255 8.02058
211 2 13.1412 3.68031 8.34975
364 2 12.2855 4.80975 2.9845
315 2 9.32178 5.9059 3.7698
271 2 11.3194 6.56631 7.16247
270 2 12.2486 5.28141 8.30851
346 2 14.3494 2.24651 7.60526
345 2 15.1015 0.666494 8.40992
118 3 7.41765 1.17733 6.88852
23 4 6.64583 2.23951 5.97755
248 2 6.38499 5.69486 9.19417
26 4 6.61845 2.27564 11.3184
128 3 6.36336 3.71198 12.5711
174 3 6.00658 5.12912 14.7151
54 4 6.42772 6.67336 15.3192
162 3 7.55022 2.09463 16.3416
285 2 5.96521 6.53696 10.8213
284 2 6.93405 5.13686 11.7302
93 1 7.0849 6.08342 11.0516
175 3 7.80765 6.53844 16.2034
256 2 4.79394 6.59163 9.54331
155 3 7.73588 2.67411 10.3409
283 2 7.7221 5.88763 10.1124
365 2 10.7309 6.32974 10.6033
203 2 15.028 0.620415 10.8387
363 2 13.5925 1.64261 9.17159
279 2 10.78 6.38397 8.92835
280 2 13.3062 3.94085 10.6365
12 4 11.7588 6.56365 15.2686
7 4 14.096 1.96402 15.5857
45 4 9.17905 2.30041 9.68288
48 4 8.82715 2.2052 15.5109
49 4 11.5251 2.50571 11.9832
51 4 9.3577 6.69016 17.0109
53 4 9.90685 4.48736 13.8724
88 1 12.9747 3.6401 11.7738
152 3 12.7755 1.88148 16.61
159 3 14.036 1.0099 14.2066
160 3 8.7393 0.969924 14.4177
161 3 10.1646 2.06966 16.5225
163 3 10.5214 2.40828 10.6727
164 3 12.2657 1.05512 12.4553
171 3 8.88093 3.70074 14.8186
172 3 10.6498 3.35489 13.0361
173 3 11.1304 5.23185 14.835
177 3 9.37095 5.67122 12.7811
272 2 12.8823 4.45352 12.5438
55 4 8.67916 6.84142 11.9195
154 3 9.13695 0.901866 8.96288
123 3 7.1772 1.24063 12.3752
333 2 13.2513 4.24879 15.6225
35 4 1.64299 11.789 0.0530676
334 1 8.90859 9.93694 3.14077
44 4 5.14577 13.8052 7.381
268 2 4.4826 9.13626 6.34569
278 2 11.4474 7.21862 3.94661
21 4 0.335509 13.7449 7.90017
41 4 4.9897 13.4257 1.97146
318 2 5.15403 8.32481 2.60313
291 2 9.73838 9.14726 6.94524
33 4 2.81868 9.25832 1.6827
240 2 4.16921 7.05324 3.83248
56 4 3.78792 11.2719 4.01049
60 4 6.32448 11.3773 5.80602
87 1 3.82516 8.27996 6.64038
133 3 4.16315 8.50527 0.93996
96 1 9.35269 8.51566 7.79736
143 3 1.2184 12.6498 6.9759
178 3 3.33849 9.97197 3.18416
179 3 4.33166 12.3125 2.95671
180 3 2.59398 11.9872 4.82113
186 3 4.91239 10.8724 5.26234
187 3 6.96176 10.0527 6.45357
188 3 6.24093 12.6781 6.79184
269 2 4.19484 7.75092 7.51578
307 1 5.72995 8.35932 3.5885
319 2 6.59529 9.13215 3.59395
320 2 5.03457 8.53131 4.46058
357 3 6.13326 12.5529 1.00437
322 2 7.05895 7.07291 6.39726
351 1 6.87114 9.95749 0.610904
58 4 7.50795 8.71932 7.34011
185 3 7.42703 11.7165 4.64639
136 3 2.20607 10.4565 0.886443
352 2 7.5303 9.9114 1.56299
354 2 5.90323 9.46373 0.84102
182 3 3.41102 10.5728 8.51104
137 3 0.934724 12.9956 1.00046
347 1 9.32879 8.12093 0.769355
316 2 9.01344 7.63059 4.47042
349 2 10.1239 7.94072 1.51915
317 2 8.90195 7.31045 2.54844
336 2 7.92931 9.34693 3.27497
13 4 8.82025 11.6554 3.95684
286 2 10.5489 8.47706 5.12526
350 2 8.27357 8.14677 1.18057
292 2 9.98346 7.46805 7.91505
335 2 9.04843 10.2205 2.04089
360 2 9.90295 9.36335 3.57723
36 4 2.59772 9.58967 7.59357
330 2 8.36576 12.8855 8.04063
28 4 4.09413 7.0754 -0.00459916
348 2 9.53959 9.06246 0.0589803
38 4 1.32563 11.6586 5.7929
183 3 4.35585 13.1651 8.62303
176 3 5.21226 7.16827 16.4062
40 4 1.63749 11.5784 11.4996
257 2 4.87838 7.99044 10.8731
83 1 4.16822 7.2422 10.3232
47 4 5.33842 13.6778 13.4317
288 2 6.89797 7.71725 9.85893
17 4 8.66254 11.2823 15.2331
24 4 0.234691 13.8404 13.2964
59 4 3.97487 11.8046 9.56409
62 4 3.85496 11.7465 15.3498
63 4 6.23945 11.2544 11.585
191 3 7.90098 10.1359 14.3349
148 3 0.892603 12.6477 12.4696
184 3 3.00109 12.1442 10.7581
189 3 6.4656 7.87837 14.3429
192 3 3.40544 10.4837 14.4981
193 3 5.12436 11.2886 16.1858
194 3 4.32289 12.8744 14.3183
195 3 2.5002 12.312 16.2937
196 3 5.4091 11.2888 10.2148
197 3 6.12948 9.89958 12.4692
198 3 6.1268 12.6284 12.5185
61 4 7.11712 9.02345 13.5179
94 1 6.80156 8.69635 9.13896
97 1 8.08327 11.0602 10.9585
181 3 7.56867 11.9916 16.2508
366 2 7.32184 9.60131 9.74219
295 2 8.01583 11.3513 9.80995
296 2 8.47656 9.99468 11.1639
190 3 8.16907 8.19745 12.5153
282 2 9.69819 7.58049 9.58367
92 1 10.0454 7.26536 10.6424
294 2 8.55873 11.8772 11.624
281 2 10.4686 8.1083 11.307
57 4 6.30227 11.7512 17.1873
287 2 5.73658 8.95716 8.85019
293 2 9.29656 9.15759 8.76725
167 3 10.5466 7.37223 16.1501
353 2 7.28077 9.48067 17.2508
ITEM: TIMESTEP
100
ITEM: NUMBER OF ATOMS
366
ITEM: BOX BOUNDS xy xz yz pp pp pp
-7.8259280126619677e+00 1.5672935023048570e+01 -7.7280764795282639e+00
1.1783617922154388e-01 1.3913441379297762e+01 -1.4891651008504350e-01
-7.1564794098771145e-02 1.7318064794098724e+01 1.2817755851936080e-01
ITEM: ATOMS id type x y z
11 4 -0.805196 4.90164 7.03403
69 1 -2.16191 5.55572 5.76051
102 3 -0.882908 3.28224 2.46364
104 3 -0.532487 4.96233 0.186711
98 3 -0.307214 1.73744 4.59763
215 2 -1.52188 6.17715 5.06848
210 2 -1.13506 6.52314 2.25728
237 2 5.22063 0.365273 4.97407
105 3 -0.0477337 3.72583 6.32194
216 2 -2.98469 6.19646 6.28982
70 1 0.451967 6.34278 7.45607
9 4 0.115421 4.17564 1.48548
124 3 0.911794 5.26045 2.35304
5 4 0.729166 2.4498 5.5104
303 4 5.24917 4.71614 1.35727
29 4 4.90883 4.249 7.72929
64 1 2.07467 3.21752 4.31978
76 1 5.47606 1.45769 4.78347
79 1 3.29341 4.76595 6.84669
99 3 1.57316 1.49963 6.5965
103 3 1.31179 3.11761 1.07562
115 3 6.49931 1.06336 1.16039
324 1 3.89331 0.376115 2.64332
126 3 5.72252 3.36804 6.76144
199 2 1.65099 2.83222 3.30347
200 2 2.95389 2.62625 4.68023
201 2 2.38292 4.3642 4.26395
244 2 2.87863 4.07729 6.01302
245 2 3.5361 5.72833 6.43626
246 2 2.55619 4.84216 7.73985
305 1 4.04645 3.54785 2.25962
217 2 0.486139 5.99461 8.56979
310 3 4.13725 5.84975 0.834555
312 2 2.96439 4.1 2.14792
313 2 4.51858 3.75745 3.32173
314 2 3.95407 2.47211 2.1272
355 3 1.86291 0.635768 0.748531
236 2 4.62146 2.16984 4.98221
235 2 5.95489 1.64937 3.75126
325 2 3.32486 1.18732 3.07075
219 2 1.5086 6.21584 6.98201
4 4 2.39682 0.583495 7.62081
77 1 3.1639 6.19444 3.89008
239 2 2.96212 6.00726 4.93241
326 2 4.65345 0.722295 1.91761
238 2 3.48385 5.19982 3.289
27 4 1.49132 6.82579 2.99975
19 4 7.62525 0.155366 1.94162
214 2 -2.48523 4.63986 5.24031
68 1 -1.61638 4.20216 8.69305
106 3 -2.68855 6.42851 16.3052
332 2 -0.724108 4.01317 14.8793
212 2 -1.75553 5.1491 9.3029
331 1 -1.84115 3.64666 14.7863
213 2 -1.0187 3.37614 9.29811
252 2 -0.332516 5.89385 14.7465
202 2 -1.17664 2.51399 11.105
65 1 -0.272703 1.90553 10.689
100 3 -0.139107 2.06497 16.3812
254 2 0.816686 6.838 11.6659
253 2 1.99668 5.94059 10.4239
32 4 3.47443 6.71465 12.034
20 4 6.17169 2.11878 17.2826
255 2 1.53895 5.03644 12.1488
251 2 1.15211 6.14253 13.5048
207 2 0.574345 4.22528 13.3524
116 3 3.33488 1.45431 8.68502
204 2 0.274041 2.40365 9.81302
206 2 1.01378 2.43933 14.0953
250 2 1.40457 5.21077 15.1483
125 3 4.44851 3.7452 9.22839
8 4 1.40553 2.02719 11.8753
22 4 3.96345 2.37319 9.93406
25 4 3.81647 2.03732 15.3859
328 2 0.757596 0.512441 9.55855
30 4 5.34891 4.31698 13.6018
66 1 1.30349 3.36386 13.307
81 1 0.785926 6.03224 14.6126
82 1 1.66136 6.06576 11.5439
101 3 1.61392 0.505249 12.4014
117 3 2.66232 2.53582 10.9698
119 3 3.28495 0.836918 14.3236
120 3 5.04409 1.4586 16.3511
121 3 2.54989 2.50831 16.2114
122 3 5.24067 1.85928 10.6915
127 3 4.56576 3.25849 14.4934
131 3 4.40559 5.41034 12.7548
205 2 2.42756 3.63679 13.3305
10 4 -1.39278 6.57801 17.2676
3 4 1.34945 2.09826 17.2955
227 2 -1.39501 6.41875 12.5117
221 2 -4.27685 8.57556 8.4441
208 2 -2.88793 7.04974 1.82629
263 2 -0.752928 11.3814 0.110418
241 2 -0.597537 7.15703 3.93823
358 2 -3.45474 13.2781 3.38714
78 1 0.452669 7.43979 4.43814
1 4 -5.34037 13.2186 1.6993
209 2 -1.33148 8.21255 1.47252
14 4 -2.28214 9.712 7.53623
15 4 -4.13234 11.83 5.8822
34 4 -1.36169 11.7979 3.95841
72 1 -1.41818 8.75659 6.11055
84 1 -1.78265 10.1332 3.17007
107 3 -6.31033 12.6395 2.78303
108 3 -4.51825 11.974 1.00392
109 3 -5.56589 11.3953 5.27041
110 3 -3.41436 10.5109 6.78594
111 3 -4.48057 13.0669 6.83548
134 3 -0.982853 12.8806 2.89651
135 3 -2.95043 12.1344 4.8613
223 2 -1.6771 7.55836 6.0501
225 2 -1.50956 9.28619 5.0063
261 2 -2.10487 10.3658 2.09765
224 2 -0.381082 8.97786 6.56172
259 2 -2.60857 9.39732 3.61432
289 2 -3.07508 8.39284 4.96686
290 2 -4.16291 8.91408 3.51106
38 4 1.2952 11.5738 5.7977
361 2 -3.57428 9.2104 1.37593
67 1 -1.78317 7.14332 1.53887
260 2 -0.738884 9.66216 3.24704
220 2 -2.6448 7.59121 8.25086
95 1 -4.09944 8.19412 4.38207
132 3 1.75975 8.05575 2.01479
337 1 -3.60981 9.2433 0.260391
267 2 3.28503 7.89863 5.55523
142 3 1.61827 10.1611 6.46185
218 2 0.0351033 7.3973 7.41018
141 3 -0.0216971 11.5376 4.85266
242 2 0.508671 8.59172 4.40826
243 2 0.582228 7.02857 5.55275
269 2 3.62897 7.34431 7.32322
228 2 -0.277605 7.92995 13.0616
71 1 -3.21427 8.51642 8.7168
299 3 -5.8112 10.7692 16.37
145 3 3.17015 7.95912 13.0029
138 3 -1.41027 10.3549 8.65336
147 3 1.9063 10.084 12.2102
226 2 -1.18136 7.9606 11.3527
297 4 -4.48323 11.1101 17.1434
222 2 -3.12368 8.44992 9.84645
300 2 -3.41648 13.1291 15.996
302 2 -2.07396 11.7411 16.2576
301 2 -3.55844 11.6234 14.9099
342 2 -1.30291 11.7583 14.1802
73 1 -1.17878 7.53351 12.4141
6 4 -5.2357 13.2991 13.4578
16 4 -2.35772 8.73426 13.2232
18 4 -3.32893 11.3768 11.4742
37 4 -0.940384 11.7105 9.6953
74 1 -1.35843 9.71632 14.5496
75 1 -4.4838 11.1712 10.0181
112 3 -3.47463 7.62008 14.1474
113 3 -2.96685 9.78367 12.1143
114 3 -4.08255 12.2655 12.6098
140 3 -1.97611 12.0305 10.8742
229 2 -2.09979 10.5303 14.9572
230 2 -0.519566 10.1263 14.0293
231 2 -1.04449 8.99748 15.4039
232 2 -4.20689 11.9916 9.3301
234 2 -4.04765 10.1478 9.61495
298 1 -3.19374 12.0095 15.9054
340 1 -1.2171 12.9668 14.1084
341 2 -1.25867 13.5023 15.1403
356 3 -6.10267 12.3194 14.3077
329 2 -5.83121 12.574 9.40752
262 2 -0.496545 11.9132 15.6252
362 2 0.0561985 10.1647 16.548
130 3 -0.190143 7.80223 16.519
233 2 -5.6104 11.1377 10.2923
144 3 1.32797 8.8449 14.4609
343 2 -2.0236 13.3214 13.4033
85 1 -0.15464 11.3138 16.6978
265 2 0.50512 8.98267 8.88628
39 4 2.50952 9.37798 13.5194
129 3 2.5769 7.29523 16.4191
146 3 0.424396 11.2813 10.3451
266 2 1.88765 9.03784 10.055
86 1 1.51207 8.63826 9.07324
31 4 1.1389 7.6456 15.6247
264 2 1.74397 7.5645 8.90214
327 1 -6.54318 13.4077 8.79713
258 2 3.1952 7.93464 9.9148
339 2 -4.36762 8.5661 17.0961
338 2 -2.7628 9.53245 17.2091
139 3 -0.874412 12.8784 8.65422
344 1 13.969 1.16512 8.17885
304 4 6.75481 6.54052 3.68814
308 1 6.31632 6.01636 5.34252
311 3 6.23116 5.54367 2.55723
321 2 5.20699 6.03771 5.28748
80 1 6.02885 5.83937 8.16523
249 2 5.39856 6.69897 7.7456
323 2 6.80332 4.90771 5.22499
247 2 7.03219 5.6752 7.54052
169 3 9.58049 3.31107 8.49901
151 3 7.86066 2.85525 4.90647
276 2 8.01979 4.47823 6.69462
43 4 11.5765 1.69593 0.10624
273 2 11.2946 6.27894 2.34846
306 1 8.77876 6.75985 3.71465
150 3 8.49597 1.11156 2.85458
277 2 8.80962 5.85384 5.55608
274 2 10.7381 5.23727 4.03439
2 4 14.1159 2.10811 3.54626
42 4 8.97034 2.32155 3.65914
46 4 11.6889 2.2933 5.28162
50 4 10.4089 4.18976 1.6953
52 4 10.2084 4.38249 7.33504
89 1 11.3587 5.27339 3.00882
90 1 8.82634 5.37781 6.62345
149 3 13.6405 0.832348 2.78757
153 3 11.7237 0.421278 1.07286
156 3 12.8692 2.87322 4.4293
157 3 10.3891 2.00778 4.33381
158 3 12.053 0.958221 6.18931
165 3 9.24103 3.50402 2.67484
166 3 11.3954 3.11074 1.09245
168 3 9.72657 5.2339 0.572714
170 3 11.2208 3.76333 6.28823
275 2 8.76239 6.14343 7.50333
91 1 11.3029 5.87159 8.07531
211 2 13.0597 3.78533 8.25301
364 2 12.3717 4.80817 3.06499
315 2 9.38374 5.8024 3.7761
271 2 11.6331 6.56184 7.21509
270 2 12.2935 5.31013 8.41861
346 2 14.0544 2.07966 7.53319
345 2 15.0295 0.688725 8.39738
118 3 7.41164 1.2407 7.00011
23 4 6.78521 2.22909 5.93369
309 3 5.9456 3.63934 0.527906
248 2 6.22088 5.89104 9.29871
26 4 6.62582 2.40656 11.4254
128 3 6.17777 3.54343 12.445
174 3 6.09545 5.22195 14.6113
54 4 6.4087 6.72778 15.3766
162 3 7.44085 2.12425 16.4773
285 2 6.12573 6.60876 10.8974
284 2 7.00295 5.08973 11.7106
93 1 7.1995 6.04303 11.1289
175 3 7.73259 6.71846 16.1793
256 2 4.87987 6.81276 9.52806
155 3 7.80802 3.0245 10.4738
283 2 7.93733 5.92551 10.1507
365 2 10.8658 6.41337 10.6607
203 2 15.0978 0.781948 10.5754
363 2 13.4071 1.3698 9.1975
279 2 10.7794 6.42872 9.05284
280 2 13.3116 3.88629 10.61
12 4 11.6163 6.64782 15.2584
7 4 14.0053 1.96524 15.6122
45 4 9.1368 2.36793 9.68864
48 4 8.89916 2.03375 15.5533
49 4 11.5266 2.58956 11.8957
51 4 9.09534 6.76239 17.058
53 4 9.96872 4.37638 14.0219
88 1 12.9489 3.76251 11.7029
152 3 12.7699 1.95133 16.525
159 3 13.9601 0.756165 14.2519
160 3 8.76576 0.895862 14.4067
161 3 10.0617 1.74362 16.5762
163 3 10.5697 2.49242 10.6432
164 3 12.2598 1.19585 12.3261
171 3 8.9884 3.59303 14.949
172 3 10.7199 3.31485 13.1205
173 3 11.2644 5.16755 14.7615
177 3 9.18222 5.66745 13.0255
272 2 12.7773 4.6636 12.3607
55 4 8.72671 6.84948 12.0557
154 3 8.89762 0.826125 9.19739
123 3 7.32725 1.15948 12.3044
333 2 13.0318 4.21165 15.4329
359 2 13.4866 3.6752 13.6197
176 3 5.28381 7.06687 16.4788
35 4 1.66806 11.7474 -0.0186079
334 1 8.94958 9.81955 3.24669
44 4 5.08777 13.6423 7.23555
268 2 4.69248 8.68615 6.56856
278 2 11.5173 7.0876 3.98345
21 4 0.355208 13.7886 7.97004
41 4 5.16162 13.3746 1.94946
318 2 5.16149 8.29479 2.66449
291 2 9.67218 8.96626 6.79863
33 4 2.96694 9.23268 1.71421
183 3 4.1651 13.0132 8.46715
56 4 3.72619 11.3006 3.98112
60 4 6.31697 11.2904 5.65353
87 1 3.65052 8.22743 6.59831
133 3 4.32575 8.64239 1.08139
96 1 9.37688 8.37671 7.78551
143 3 1.20204 12.7989 6.93669
178 3 3.3018 9.82052 3.23682
179 3 4.40094 12.2963 2.90597
180 3 2.41121 11.9059 4.61556
186 3 4.9194 10.8078 5.06467
187 3 6.98089 10.0436 6.70104
188 3 6.13397 12.5904 6.54873
348 2 9.37342 8.97911 0.184919
307 1 5.74234 8.2917 3.62564
319 2 6.49527 9.17597 3.653
320 2 5.05022 8.24267 4.52503
357 3 6.11643 12.5637 0.9942
322 2 7.0187 7.08064 6.42218
351 1 6.85388 9.86933 0.399497
58 4 7.47542 8.69436 7.49343
185 3 7.42918 11.5607 4.47825
136 3 2.27468 10.3791 0.869902
352 2 7.43398 9.96609 1.37468
354 2 5.80432 9.28421 0.650418
182 3 3.43012 10.4211 8.4876
137 3 1.00954 12.8771 0.941305
347 1 9.11436 8.1387 0.874702
316 2 8.97439 7.54659 4.50659
349 2 10.0024 7.92062 1.63796
317 2 8.94618 7.20908 2.6512
336 2 7.92171 9.33097 3.29656
13 4 8.88304 11.5212 4.07266
286 2 10.6534 8.32969 5.07037
350 2 8.09816 8.20892 1.431
292 2 10.0622 7.47258 7.92848
335 2 9.33353 10.1118 2.18412
360 2 9.7649 9.10959 3.73108
36 4 2.59844 9.50051 7.57859
330 2 8.36872 12.9216 8.04115
240 2 4.0674 6.98593 3.7702
353 2 7.23304 9.50273 16.9383
40 4 1.61885 11.5481 11.3975
257 2 4.98637 8.12402 10.9423
83 1 4.25527 7.35902 10.4105
47 4 5.23499 13.7346 13.2923
288 2 7.067 7.668 9.88671
17 4 8.6226 11.4219 15.2871
24 4 0.3476 13.7674 13.261
59 4 3.97896 11.7658 9.45899
62 4 3.71883 11.8182 15.186
63 4 6.17148 11.2929 11.5445
191 3 7.77968 10.2235 14.407
148 3 1.18734 12.6404 12.5758
184 3 3.03296 11.9888 10.6713
189 3 6.41215 7.94144 14.3899
192 3 3.49605 10.4121 14.3992
193 3 4.9819 11.4793 16.3096
194 3 4.2101 12.9128 14.1194
195 3 2.39136 12.2266 16.0844
196 3 5.34145 11.218 10.1911
197 3 6.09957 9.83494 12.463
198 3 6.1081 12.7 12.3865
61 4 7.04858 9.04777 13.4998
94 1 6.84126 8.67876 9.26904
97 1 7.96646 11.2752 10.7222
181 3 7.54338 12.1378 16.1742
366 2 7.2113 9.60685 9.83691
295 2 7.79588 11.2767 9.64686
296 2 8.46038 10.3761 11.1368
190 3 8.252 8.28615 12.6365
282 2 9.82647 7.64178 9.61424
92 1 10.1333 7.2899 10.7259
294 2 8.46248 12.266 11.0801
281 2 10.4958 8.1837 11.3386
57 4 6.31549 11.7224 17.1821
287 2 5.6484 8.788 8.87039
293 2 9.33625 9.11305 8.74871
167 3 10.3304 7.26619 16.1306
28 4 3.89064 7.26622 17.2404
ITEM: TIMESTEP
200
ITEM: NUMBER OF ATOMS
366
ITEM: BOX BOUNDS xy xz yz pp pp pp
-7.8259280126619677e+00 1.5672935023048570e+01 -7.7280764795282639e+00
1.1783617922154388e-01 1.3913441379297762e+01 -1.4891651008504350e-01
-7.1564794098771145e-02 1.7318064794098724e+01 1.2817755851936080e-01
ITEM: ATOMS id type x y z
11 4 -0.816641 4.88916 6.9558
69 1 -2.21624 5.57792 5.86051
102 3 -0.904451 3.33404 2.45051
104 3 -0.661372 4.84617 0.296864
98 3 -0.245596 1.7345 4.57791
215 2 -1.73922 6.2221 5.05444
210 2 -1.6037 5.9712 2.2281
237 2 5.22927 0.386791 4.81166
105 3 0.0261437 3.75181 6.30885
216 2 -3.0778 6.04743 6.34391
70 1 0.508109 6.28811 7.38518
9 4 0.135624 4.08775 1.56899
124 3 0.765535 5.49307 2.5746
5 4 0.749155 2.40443 5.54523
217 2 0.182943 6.1039 8.56692
29 4 5.0261 4.25289 7.85015
64 1 2.08917 3.1723 4.39265
76 1 5.46189 1.54507 4.69927
79 1 3.28775 4.69527 6.95861
99 3 1.65498 1.52544 6.54596
103 3 1.26875 3.1367 0.989838
115 3 6.51461 1.09485 1.21861
324 1 3.71884 0.571338 2.80524
126 3 5.87479 3.31177 6.93216
199 2 1.83597 2.77997 3.34537
200 2 2.98591 2.67095 4.85439
201 2 2.06246 4.30839 4.40951
244 2 2.94653 4.20016 5.97848
245 2 3.20887 5.82272 6.80842
246 2 2.51511 4.38034 7.83706
305 1 4.22647 3.63665 2.66306
303 4 5.17441 4.69495 1.41656
310 3 4.0652 5.63738 0.696919
312 2 3.12583 3.93498 2.44156
313 2 4.44305 3.75252 3.74569
314 2 4.36613 2.57974 2.36368
355 3 1.81319 0.482121 0.802042
236 2 4.54982 2.17474 4.97569
235 2 5.88827 1.76634 3.68461
325 2 2.98313 1.49907 3.16806
219 2 1.54373 5.71752 7.11282
4 4 2.57741 0.644059 7.59956
77 1 3.20641 6.42647 3.97649
239 2 2.90023 6.39345 4.99878
326 2 4.52479 0.900539 2.02664
238 2 3.55529 5.373 3.56605
27 4 1.51769 6.76478 3.10199
118 3 7.24195 0.954797 6.68698
67 1 -1.66809 6.96296 1.62909
68 1 -1.61728 4.21292 8.68796
106 3 -2.7808 6.50791 16.4253
332 2 -0.415222 4.08861 14.8238
212 2 -1.69517 5.1644 9.34613
331 1 -1.4929 3.62271 14.7076
213 2 -0.951061 3.44248 9.2369
252 2 -0.115016 5.65203 14.9699
202 2 -1.05628 2.61784 11.064
65 1 -0.130066 1.98492 10.6253
100 3 -0.063506 1.81773 16.4191
254 2 0.647467 6.6994 11.8307
253 2 1.83373 6.06845 10.5107
32 4 3.45162 6.71218 12.0195
227 2 -1.31342 6.74852 11.7029
255 2 1.5489 4.89707 12.1299
251 2 1.27967 5.9413 13.6001
207 2 0.24819 3.84422 13.4044
116 3 3.46084 1.36598 8.78925
204 2 0.256412 2.34805 9.64172
206 2 1.11836 2.3013 14.0396
250 2 1.76941 5.34817 15.3908
125 3 4.37352 3.86874 9.29811
8 4 1.53465 2.11247 11.7842
22 4 4.09213 2.38402 9.9344
25 4 3.72956 2.05188 15.3446
328 2 0.933811 0.537697 9.48042
30 4 5.23762 4.45083 13.7706
66 1 1.16479 3.22246 13.3279
81 1 0.965918 5.92342 14.7504
82 1 1.65601 6.01694 11.6292
101 3 1.58558 0.684375 12.3664
117 3 2.76494 2.61084 10.8956
119 3 3.49223 0.787141 14.3204
120 3 4.88356 1.62125 16.4828
121 3 2.44007 2.45652 16.1259
122 3 5.44267 1.84053 10.6907
127 3 4.16789 3.51526 14.4371
131 3 4.31271 5.5024 12.7279
205 2 2.07324 3.83235 13.5385
359 2 -1.87666 3.57152 13.5665
3 4 1.26897 2.03943 17.2237
333 2 -2.22768 4.16451 15.4263
10 4 -1.41201 6.4762 17.2725
20 4 6.18297 2.1153 17.2832
203 2 -0.366897 0.861166 10.6655
221 2 -4.39557 8.36205 8.40986
208 2 -2.59862 7.51985 1.77175
263 2 -0.786378 11.1291 0.136037
241 2 -0.683058 7.44783 3.98097
358 2 -3.6818 13.5311 3.64331
78 1 0.388635 7.58363 4.41026
1 4 -5.15889 13.1596 1.81325
209 2 -0.785783 7.72854 1.76942
14 4 -2.32087 9.74042 7.55424
15 4 -4.16535 11.8159 6.02162
34 4 -1.4508 11.7578 4.01261
72 1 -1.38206 8.69792 6.16516
84 1 -1.62883 10.0609 3.23303
107 3 -6.01296 12.5451 3.03675
108 3 -4.33392 11.8975 0.92789
109 3 -5.54077 11.2195 5.35408
110 3 -3.44763 10.5998 6.89477
111 3 -4.3685 13.0553 7.00153
134 3 -0.918748 12.6622 2.80751
135 3 -3.0507 12.198 4.84616
223 2 -1.69145 7.55376 6.10644
225 2 -1.48725 9.28262 5.13288
261 2 -1.77301 10.4288 2.12433
224 2 -0.32425 8.90209 6.58841
259 2 -2.55803 9.41865 3.66425
289 2 -3.02148 8.35842 4.89683
290 2 -4.11419 9.06777 3.57492
38 4 1.22882 11.675 5.7955
361 2 -3.711 9.2016 1.45652
138 3 -1.40199 10.5422 8.55707
260 2 -0.593284 9.52422 3.30798
220 2 -2.6857 7.48532 8.12862
95 1 -4.0205 8.2067 4.30555
132 3 1.83899 8.05541 2.16709
337 1 -3.57597 9.26259 0.310205
267 2 3.21657 8.00413 5.68063
142 3 1.57655 10.1573 6.65806
218 2 0.605279 7.33791 7.11363
141 3 -0.295478 11.5948 5.15555
242 2 0.711581 8.69694 4.49465
269 2 3.81415 7.13756 7.23334
330 2 -7.19056 12.9404 8.07224
338 2 -2.51112 9.43684 -0.0267031
19 4 -0.117775 13.7387 1.97094
243 2 0.488901 7.04662 5.51609
228 2 -0.38609 7.77271 13.0652
71 1 -3.3086 8.38968 8.64
299 3 -5.9326 10.6909 16.416
145 3 3.24664 8.04719 12.865
139 3 -0.754088 12.9606 8.75292
147 3 1.96084 10.0445 12.1122
226 2 -0.76142 8.52426 11.2977
297 4 -4.52883 11.0403 17.0648
222 2 -3.06774 8.45679 9.73145
300 2 -3.49541 13.0429 16.0517
302 2 -2.14764 11.6865 16.1757
301 2 -3.50644 11.5907 14.7204
342 2 -1.33207 11.6726 14.213
73 1 -1.06449 7.76695 12.1431
6 4 -5.1919 13.4832 13.4562
16 4 -2.42897 8.71098 13.1304
18 4 -3.43835 11.4874 11.5664
37 4 -0.919529 11.6913 9.62118
74 1 -1.59144 9.57413 14.642
75 1 -4.46476 11.0959 10.0649
112 3 -3.54824 7.74395 13.9164
113 3 -3.10971 9.9284 12.3008
114 3 -4.24322 12.5365 12.4157
140 3 -2.17427 12.0188 10.8051
229 2 -2.19464 10.3874 15.0647
230 2 -0.721212 9.91609 13.9598
231 2 -1.26947 8.7631 15.389
232 2 -4.16625 11.9781 9.42033
234 2 -4.13799 10.0665 9.51425
298 1 -3.26696 11.9461 15.8075
340 1 -1.1554 12.8035 14.0837
341 2 -1.14186 13.2981 15.1392
356 3 -6.06224 12.4594 14.3096
329 2 -5.71289 12.5616 9.32074
262 2 -0.495899 11.7208 15.6381
362 2 0.0082068 10.0093 16.4911
130 3 -0.240971 7.72978 16.5016
233 2 -5.68041 11.0736 10.4824
144 3 1.2396 8.80986 14.5811
343 2 -2.02469 13.2889 13.5504
85 1 -0.248914 11.1216 16.6605
265 2 0.442368 8.71542 8.76765
39 4 2.47449 9.30842 13.5068
129 3 2.56564 7.50013 16.5307
146 3 0.390681 11.2332 10.4268
266 2 1.75364 8.8134 10.1948
86 1 1.54954 8.55784 9.07014
31 4 1.16568 7.63949 15.6804
264 2 1.87822 7.48609 8.86723
327 1 -6.37194 13.4186 8.74413
258 2 3.27769 7.92636 9.8773
339 2 -4.21995 8.52426 17.1774
344 1 14.0586 1.17433 8.08111
304 4 6.71962 6.44175 3.76927
308 1 6.20844 5.95265 5.41093
311 3 6.07367 5.59814 2.51262
321 2 5.10951 6.12524 5.27242
80 1 6.12777 5.73219 8.3051
249 2 5.33268 6.48083 7.78278
323 2 6.55566 4.9043 5.43023
247 2 7.07869 5.59115 7.68988
169 3 9.64388 3.48772 8.60015
151 3 7.82168 2.79 4.73525
276 2 8.02825 4.41681 6.76533
43 4 11.617 1.73077 0.159486
273 2 11.5278 6.26713 2.28112
306 1 8.69124 6.57851 3.65646
150 3 8.48125 0.915254 2.90144
277 2 8.71535 5.68152 5.47541
274 2 10.6842 5.59514 3.79502
2 4 14.1356 2.14922 3.50939
42 4 9.00324 2.27879 3.61602
46 4 11.6342 2.39828 5.2972
50 4 10.3314 4.20902 1.60892
52 4 10.2473 4.39232 7.32218
89 1 11.3322 5.35338 2.90367
90 1 8.77629 5.25879 6.59424
149 3 13.552 0.864736 2.80786
153 3 11.8349 0.372596 1.05853
156 3 12.8944 2.85072 4.33911
157 3 10.4456 1.90669 4.37388
158 3 12.1057 1.13201 6.26222
165 3 9.16849 3.43576 2.57245
166 3 11.356 3.18356 0.927611
168 3 9.763 5.31852 0.63591
170 3 11.1246 3.62923 6.21042
275 2 8.82152 6.11326 7.4148
91 1 11.3085 5.80371 8.15007
211 2 12.9753 3.80283 8.49609
364 2 12.2438 4.71736 3.11771
315 2 9.2751 5.51063 3.84277
271 2 11.6224 6.52783 7.35304
270 2 12.297 5.16716 8.46344
346 2 14.1005 2.02755 7.43231
345 2 15.1546 0.663157 8.33901
309 3 5.93177 3.56539 0.383944
23 4 6.7825 2.21702 5.87085
214 2 13.0905 4.43278 5.41772
248 2 6.32911 5.89839 9.43017