ITEM: TIMESTEP
0
ITEM: NUMBER OF ATOMS
366
ITEM: BOX BOUNDS xy xz yz pp pp pp
-7.8259280126619677e+00 1.5672935023048570e+01 -7.7280764795282639e+00
7.2117441858929696e-02 1.3785263820778400e+01 -1.4891651008504350e-01
-7.1564794098771145e-02 1.7491961089980698e+01 -4.5718737362614184e-02
ITEM: ATOMS id type x y z
11 4 -0.732825 4.92457 7.13624
69 1 -2.09401 5.45902 5.85912
102 3 -0.944794 3.28769 2.42735
104 3 -0.569916 5.03577 0.198044
98 3 -0.271291 1.74308 4.53771
215 2 -2.14251 6.24355 5.09905
210 2 -1.61804 6.32451 2.22772
19 4 7.62067 0.154705 1.92034
105 3 0.0825244 3.7819 6.42518
216 2 -3.04315 5.52411 6.71063
70 1 0.404154 6.37697 7.53756
9 4 0.0929003 4.24794 1.51052
124 3 0.701873 5.40082 2.40821
5 4 0.768618 2.46961 5.61765
303 4 5.32993 4.56564 1.32418
29 4 4.74115 4.26926 7.81844
64 1 2.16569 3.30448 4.52133
76 1 5.49435 1.3339 4.83796
79 1 3.07613 5.07446 7.09156
99 3 1.61557 1.44527 6.7299
103 3 1.2829 3.31029 0.859104
115 3 6.52447 0.96823 1.06759
324 1 3.717 0.21638 2.81082
126 3 5.66291 3.27258 6.87741
199 2 1.72658 2.80334 3.54144
200 2 3.00595 2.71298 4.91253
201 2 2.51188 4.37945 4.37533
244 2 2.71112 4.35288 6.16734
245 2 3.26963 6.28302 6.88151
246 2 2.40426 4.90504 8.04698
305 1 4.24168 3.45174 2.47534
309 3 5.89245 3.54856 0.261825
310 3 4.10351 5.50902 0.861324
312 2 3.12337 3.84779 2.26533
313 2 4.62359 3.66948 3.55457
314 2 4.3022 2.31274 2.20333
355 3 1.98414 0.652988 0.508659
236 2 4.60184 1.99853 4.79239
235 2 6.10717 1.41051 3.85662
325 2 3.05097 1.117 3.2804
219 2 1.33351 6.45363 6.94086
4 4 2.45254 0.411168 7.71935
77 1 3.28952 6.19841 3.9386
239 2 2.96801 5.96255 5.06866
326 2 4.56091 0.514477 2.05786
238 2 3.63678 5.16118 3.44106
214 2 -2.25325 4.48152 5.22663
27 4 1.48601 6.7665 3.08092
237 2 5.15924 0.194994 5.02834
217 2 0.547039 5.97933 8.66068
68 1 -1.63301 4.30045 8.8186
106 3 -2.59528 6.26402 16.4552
332 2 -0.5329 3.95929 15.1581
212 2 -2.06433 5.22098 9.3594
331 1 -1.63385 3.57662 15.0455
213 2 -0.956547 3.73932 9.50212
252 2 -0.423666 6.0872 14.7098
202 2 -1.11225 2.30748 11.4073
65 1 -0.259899 1.62839 10.9633
100 3 -0.0474182 1.85826 16.419
254 2 1.01787 6.46357 11.7523
253 2 2.19389 5.47913 10.5786
32 4 3.59173 6.38451 12.1524
20 4 6.07218 1.94336 17.4188
255 2 1.58616 4.6288 12.3036
251 2 1.23669 5.80008 13.6981
207 2 0.242602 3.6827 13.2601
359 2 -1.99683 3.53012 13.8382
204 2 0.127608 1.95727 9.9856
206 2 0.885884 2.21527 14.2096
250 2 1.05998 5.03693 15.4801
125 3 4.24468 3.63817 9.29183
8 4 1.53159 1.77851 11.9585
22 4 3.93952 2.17138 9.93107
25 4 3.77847 1.82724 15.4146
328 2 0.686229 0.255631 9.73612
30 4 5.2225 4.20517 13.7742
66 1 1.12977 2.97747 13.4662
81 1 0.723117 5.92558 14.7779
82 1 1.86451 5.70868 11.709
101 3 1.65968 0.274676 12.4726
117 3 2.69779 2.40668 10.9494
119 3 3.29326 0.49222 14.7006
120 3 4.89963 1.34919 16.4721
121 3 2.48995 2.5835 16.2963
122 3 5.268 1.64831 10.6884
127 3 4.3837 2.97067 14.3178
131 3 4.34636 5.16685 12.9284
205 2 2.15749 3.41597 13.6239
10 4 -1.37289 6.42052 17.4725
3 4 1.32802 2.04624 17.2495
227 2 -1.07262 6.3726 13.0693
116 3 3.34927 1.2738 8.74874
221 2 -4.34196 8.30749 8.62796
208 2 -3.06518 7.3963 1.6101
263 2 -0.632726 11.2114 0.0840745
241 2 -0.588475 7.23246 3.96851
358 2 -3.60054 13.1431 3.70955
78 1 0.461031 7.47294 4.4775
1 4 -5.42099 13.2907 1.70859
209 2 -1.43549 8.15921 1.69236
14 4 -2.33794 9.55902 7.65865
15 4 -4.13416 11.8123 5.9934
34 4 -1.23484 11.5753 3.98234
72 1 -1.51239 8.62364 6.22255
84 1 -1.63149 9.93932 3.22904
107 3 -6.43701 12.7224 2.80684
108 3 -4.73433 11.7495 0.961868
109 3 -5.37458 11.4649 5.01956
110 3 -3.71927 10.4825 6.97949
111 3 -4.50534 13.0046 6.89936
134 3 -0.954829 12.5608 2.71765
135 3 -2.89826 12.1693 5.00858
223 2 -1.74702 7.44156 6.10574
225 2 -1.57401 9.12403 5.10523
261 2 -1.6914 10.2794 2.08099
224 2 -0.427808 8.82977 6.6371
259 2 -2.63147 9.36304 3.63817
289 2 -3.21573 8.36819 5.10001
290 2 -4.19703 9.07964 3.67467
338 2 -2.34064 9.26952 0.142908
361 2 -3.82212 9.50069 1.39795
67 1 -1.98321 7.18917 1.49885
260 2 -0.637118 9.36867 3.3406
220 2 -2.62496 7.38905 8.27225
95 1 -4.19658 8.28192 4.45615
132 3 1.80036 7.97927 2.04164
337 1 -3.44097 9.36618 0.28465
138 3 -1.32864 10.3287 8.67653
142 3 1.58285 9.95636 6.55247
218 2 -0.231463 7.35796 7.41817
141 3 -0.0785639 11.3787 5.10038
242 2 0.729351 8.62532 4.46181
243 2 0.472047 7.08019 5.61337
267 2 3.59031 7.52996 5.7486
228 2 -0.187935 7.93271 12.429
71 1 -3.17389 8.27846 8.86577
299 3 -5.87201 10.3478 16.3052
145 3 3.25009 7.79284 13.1208
139 3 -0.811642 12.8985 8.84394
147 3 1.88881 10.0599 12.4609
226 2 -1.60862 7.11021 11.3938
297 4 -4.53569 10.874 17.2294
222 2 -3.00814 8.26409 9.96273
300 2 -3.28933 12.9156 16.5409
302 2 -2.07664 11.5477 16.4612
301 2 -3.3772 11.6935 15.116
342 2 -1.23568 11.5499 14.2716
73 1 -1.15624 7.30622 12.4354
6 4 -5.19087 13.123 13.6473
16 4 -2.42511 8.49063 13.2931
18 4 -3.32929 11.1974 11.7592
37 4 -0.869584 11.521 9.68356
74 1 -1.51428 9.51928 14.626
75 1 -4.43957 10.984 10.2094
112 3 -3.30579 7.43204 14.1596
113 3 -3.11643 9.59605 12.2952
114 3 -4.11536 12.1338 12.8696
140 3 -1.96882 11.6617 11.0355
229 2 -2.10351 10.4058 15.2059
230 2 -0.701239 9.95505 13.9601
231 2 -1.066 8.76657 15.3979
232 2 -4.13902 11.8831 9.52898
234 2 -4.04472 9.90944 9.73193
298 1 -3.10022 11.8427 16.2261
340 1 -1.3019 12.7754 14.249
341 2 -1.2764 13.2905 15.2902
356 3 -6.25492 12.2269 14.4369
329 2 -5.80179 12.3499 9.46331
262 2 -0.414541 11.7627 15.8368
362 2 0.0345771 10.0461 16.4682
130 3 -0.285891 7.67069 16.7106
233 2 -5.58453 11.0079 10.5931
144 3 1.32891 8.74039 14.7404
343 2 -2.12529 13.2192 13.544
85 1 -0.0703726 11.0964 16.7714
265 2 0.429845 8.69145 8.73521
39 4 2.52165 9.2414 13.704
129 3 2.59521 7.08092 16.6638
146 3 0.559167 11.2149 10.3177
266 2 1.73933 8.98421 10.0956
86 1 1.51701 8.54963 9.09927
31 4 1.23753 7.46293 15.7354
264 2 1.82674 7.45144 8.93034
327 1 -6.53595 13.2081 8.93951
258 2 3.21776 7.68416 9.92259
339 2 -4.09574 8.43903 17.2777
344 1 14.1321 1.23115 8.29119
304 4 6.76471 6.54398 3.69786
308 1 6.17344 6.00518 5.35564
311 3 6.28735 5.5628 2.50641
321 2 5.05042 6.17142 5.39788
80 1 6.04287 5.58407 8.20569
249 2 5.48007 6.50132 7.93882
323 2 6.55938 4.89547 5.2959
247 2 7.00355 5.46025 7.48728
169 3 9.47768 3.38689 8.63554
151 3 7.99672 2.93737 4.97211
276 2 7.95486 4.49855 6.56407
43 4 11.5659 1.80507 0.129655
273 2 11.5875 6.46424 2.2805
306 1 8.71162 6.8338 3.66879
150 3 8.31072 1.2053 3.01488
277 2 8.83602 5.84744 5.42984
274 2 10.6809 5.53486 3.83141
2 4 14.0781 2.17144 3.45157
42 4 8.93597 2.39691 3.78861
46 4 11.6279 2.19901 5.35166
50 4 10.3795 4.28795 1.67347
52 4 10.0942 4.22073 7.36943
89 1 11.3893 5.42926 2.86998
90 1 8.79623 5.28251 6.53474
149 3 13.4934 0.891222 2.75652
153 3 11.5307 0.458364 1.21218
156 3 12.9456 2.87806 4.41266
157 3 10.317 1.80129 4.47073
158 3 12.1855 1.04459 6.40845
165 3 9.26503 3.64549 2.74687
166 3 11.389 3.19953 1.05701
168 3 9.94519 5.45971 0.654426
170 3 10.9791 3.3338 6.36023
275 2 8.72034 6.03676 7.45936
91 1 11.1864 5.73162 8.1015
211 2 13.1412 3.5961 8.43397
364 2 12.2855 4.77919 3.01506
315 2 9.32178 5.86748 3.80821
271 2 11.3194 6.49397 7.23481
270 2 12.2486 5.1976 8.39231
346 2 14.3494 2.16974 7.68203
345 2 15.1015 0.581679 8.49473
118 3 7.41765 1.10773 6.95812
23 4 6.64583 2.17902 6.03804
248 2 6.38499 5.6022 9.28683
26 4 6.61845 2.16174 11.4323
128 3 6.36336 3.58555 12.6975
174 3 6.00658 4.98125 14.863
54 4 6.42772 6.51945 15.4731
162 3 7.55022 1.9305 16.5057
285 2 5.96521 6.42803 10.9302
284 2 6.93405 5.01884 11.8482
93 1 7.0849 5.97219 11.1628
175 3 7.80765 6.37569 16.3662
256 2 4.79394 6.49548 9.63946
155 3 7.73588 2.56999 10.445
283 2 7.7221 5.78579 10.2142
365 2 10.7309 6.22299 10.7101
203 2 15.028 0.511313 10.9478
363 2 13.5925 1.55018 9.26402
279 2 10.78 6.29397 9.01835
280 2 13.3062 3.83377 10.7435
12 4 11.7588 6.41025 15.422
7 4 14.096 1.80744 15.7423
45 4 9.17905 2.20287 9.78042
48 4 8.82715 2.04938 15.6667
49 4 11.5251 2.38517 12.1037
51 4 9.3577 6.51934 17.1817
53 4 9.90685 4.34792 14.0119
88 1 12.9747 3.52165 11.8922
152 3 12.7755 1.71466 16.7769
159 3 14.036 0.867117 14.3494
160 3 8.7393 0.825031 14.5626
161 3 10.1646 1.90372 16.6885
163 3 10.5214 2.30083 10.7801
164 3 12.2657 0.92985 12.5806
171 3 8.88093 3.55184 14.9675
172 3 10.6498 3.22381 13.1672
173 3 11.1304 5.08278 14.984
177 3 9.37095 5.54269 12.9096
272 2 12.8823 4.32736 12.67
55 4 8.67916 6.72151 12.0394
154 3 9.13695 0.811522 9.05323
123 3 7.1772 1.11617 12.4997
333 2 13.2513 4.09185 15.7794
35 4 1.64299 11.7878 0.0543139
334 1 8.90859 9.90482 3.17289
44 4 5.14577 13.7307 7.45552
268 2 4.4826 9.07209 6.40987
278 2 11.4474 7.17844 3.98679
21 4 0.335509 13.6651 7.97989
41 4 4.9897 13.4053 1.99189
318 2 5.15403 8.29806 2.62988
291 2 9.73838 9.07709 7.01541
33 4 2.81868 9.24078 1.70024
240 2 4.16921 7.0142 3.87152
56 4 3.78792 11.231 4.05131
60 4 6.32448 11.3185 5.86479
87 1 3.82516 8.21284 6.7075
133 3 4.16315 8.49516 0.950075
96 1 9.35269 8.43697 7.87605
143 3 1.2184 12.5793 7.04637
178 3 3.33849 9.93942 3.21672
179 3 4.33166 12.2822 2.98699
180 3 2.59398 11.9383 4.87005
186 3 4.91239 10.8191 5.31568
187 3 6.96176 9.98741 6.51882
188 3 6.24093 12.6094 6.86047
269 2 4.19484 7.67505 7.59165
307 1 5.72995 8.32272 3.6251
319 2 6.59529 9.0955 3.6306
320 2 5.03457 8.48599 4.5059
357 3 6.13326 12.5422 1.01513
322 2 7.05895 7.00823 6.46195
351 1 6.87114 9.95066 0.617728
58 4 7.50795 8.6452 7.41423
185 3 7.42703 11.6693 4.69357
136 3 2.20607 10.4469 0.896023
352 2 7.5303 9.89506 1.57934
354 2 5.90323 9.4546 0.850146
182 3 3.41102 10.487 8.59686
137 3 0.934724 12.9849 1.01118
347 1 9.32879 8.11252 0.777764
316 2 9.01344 7.58517 4.51584
349 2 10.1239 7.92482 1.53506
317 2 8.90195 7.28425 2.57464
336 2 7.92931 9.31346 3.30844
13 4 8.82025 11.6151 3.99713
286 2 10.5489 8.42509 5.17723
350 2 8.27357 8.13425 1.19309
292 2 9.98346 7.38818 7.99491
335 2 9.04843 10.1993 2.06202
360 2 9.90295 9.32686 3.61371
36 4 2.59772 9.51302 7.67022
330 2 8.36576 12.8043 8.12175
28 4 4.09413 7.07473 -0.0039295
348 2 9.53959 9.06115 0.0602857
38 4 1.32563 11.6 5.85155
183 3 4.35585 13.0781 8.70998
176 3 5.21226 7.0035 16.5709
40 4 1.63749 11.4627 11.6153
257 2 4.87838 7.88099 10.9825
83 1 4.16822 7.13826 10.4272
47 4 5.33842 13.5428 13.5668
288 2 6.89797 7.61794 9.95823
17 4 8.66254 11.1292 15.3862
24 4 0.234691 13.7067 13.4301
59 4 3.97487 11.7082 9.66044
62 4 3.85496 11.5923 15.504
63 4 6.23945 11.1379 11.7016
191 3 7.90098 9.99187 14.479
148 3 0.892603 12.5223 12.595
184 3 3.00109 12.0359 10.8664
189 3 6.4656 7.73422 14.4871
192 3 3.40544 10.338 14.6438
193 3 5.12436 11.126 16.3483
194 3 4.32289 12.7305 14.4622
195 3 2.5002 12.1483 16.4574
196 3 5.4091 11.186 10.3176
197 3 6.12948 9.77417 12.5946
198 3 6.1268 12.5025 12.6444
61 4 7.11712 8.88756 13.6538
94 1 6.80156 8.60425 9.23107
97 1 8.08327 10.9499 11.0688
181 3 7.56867 11.8283 16.414
366 2 7.32184 9.50317 9.84033
295 2 8.01583 11.2525 9.90877
296 2 8.47656 9.88232 11.2762
190 3 8.16907 8.07158 12.6412
282 2 9.69819 7.48394 9.68022
92 1 10.0454 7.15822 10.7495
294 2 8.55873 11.7602 11.741
281 2 10.4686 7.99452 11.4208
57 4 6.30227 11.5786 17.3599
287 2 5.73658 8.86794 8.93941
293 2 9.29656 9.0692 8.85564
167 3 10.5466 7.21002 16.3123
353 2 7.28077 9.30745 17.4241
ITEM: TIMESTEP
100
ITEM: NUMBER OF ATOMS
366
ITEM: BOX BOUNDS xy xz yz pp pp pp
-7.8259280126619677e+00 1.5672935023048570e+01 -7.7280764795282639e+00
7.2117441858929696e-02 1.3785263820778400e+01 -1.4891651008504350e-01
-7.1564794098771145e-02 1.7491961089980698e+01 -4.5718737362614184e-02
ITEM: ATOMS id type x y z
11 4 -0.815709 4.81272 7.13737
69 1 -2.19486 5.52015 5.8492
102 3 -0.873952 3.2598 2.49459
104 3 -0.549815 4.95894 0.206617
98 3 -0.308575 1.69197 4.64227
215 2 -1.54544 6.10859 5.15426
210 2 -1.07583 6.57992 2.24399
19 4 7.6095 0.130718 1.95459
105 3 -0.066954 3.65475 6.40766
216 2 -2.96269 6.19849 6.38787
70 1 0.460441 6.27375 7.51535
9 4 0.110629 4.15609 1.50431
124 3 0.919699 5.2523 2.37088
5 4 0.735853 2.39081 5.55393
303 4 5.23823 4.71252 1.37321
29 4 4.93439 4.16171 7.82523
64 1 2.05459 3.16752 4.38282
76 1 5.47612 1.40102 4.85613
79 1 3.28881 4.7163 6.89758
99 3 1.55915 1.43897 6.64637
103 3 1.30813 3.12615 1.06427
115 3 6.52008 1.0338 1.14891
324 1 3.90142 0.323051 2.67134
126 3 5.7504 3.30634 6.83799
199 2 1.52233 2.75858 3.3962
200 2 2.93019 2.52581 4.74944
201 2 2.38547 4.31832 4.29272
244 2 2.86753 4.03179 6.0322
245 2 3.63364 5.65471 6.47373
246 2 2.55133 4.86139 7.7595
305 1 4.06333 3.52069 2.25304
217 2 0.497063 5.93535 8.67099
310 3 4.14949 5.83599 0.82956
312 2 2.99402 4.13738 2.08231
313 2 4.43223 3.55354 3.33863
314 2 3.99846 2.47676 1.81914
355 3 1.85647 0.632485 0.785213
236 2 4.61517 2.13404 5.04471
235 2 6.02716 1.62376 3.86561
325 2 3.31227 1.15898 3.0874
219 2 1.52777 6.1414 7.07821
4 4 2.39008 0.509898 7.69367
77 1 3.16099 6.13843 3.94006
239 2 2.94085 5.94455 4.9921
326 2 4.66395 0.665972 1.93938
238 2 3.47933 5.15729 3.32865
237 2 5.19502 0.329224 5.0192
27 4 1.4942 6.79067 3.05442
68 1 -1.62631 4.137 8.78481
106 3 -2.66589 6.25233 16.4617
332 2 -0.785118 3.87948 14.9801
212 2 -1.70955 5.02915 9.45409
331 1 -1.83915 3.45926 14.9041
213 2 -0.941422 3.30456 9.29317
252 2 -0.305346 5.78454 14.8879
202 2 -1.15181 2.38433 11.2272
65 1 -0.236121 1.78364 10.796
100 3 -0.138467 1.90562 16.5164
254 2 0.814285 6.67018 11.7992
253 2 2.00136 5.78409 10.5764
32 4 3.47687 6.581 12.1425
20 4 6.18852 1.939 17.4474
255 2 1.55768 4.89429 12.2935
251 2 1.17676 5.99819 13.6387
207 2 0.602663 4.08307 13.5151
116 3 3.32921 1.36922 8.78297
204 2 0.251452 2.2743 9.91365
206 2 1.08499 2.30678 14.2173
250 2 1.40373 5.06869 15.3001
125 3 4.44613 3.64242 9.28923
8 4 1.43399 1.89228 11.9832
22 4 3.98041 2.2819 10.0242
25 4 3.82443 1.88119 15.5465
328 2 0.746843 0.468352 9.60101
30 4 5.34867 4.18539 13.7344
66 1 1.3483 3.23039 13.4235
81 1 0.81208 5.88294 14.7585
82 1 1.68208 5.93267 11.6865
101 3 1.61348 0.380712 12.5491
117 3 2.68628 2.39513 11.0905
119 3 3.29059 0.701626 14.4863
120 3 5.05562 1.29731 16.5085
121 3 2.55377 2.33813 16.3962
122 3 5.26104 1.76423 10.783
127 3 4.58324 3.14607 14.6411
131 3 4.40542 5.28621 12.888
205 2 2.46684 3.52095 13.452
10 4 -1.39059 6.40615 17.4095
3 4 1.34793 1.92862 17.4608
227 2 -1.43049 6.29381 12.6322
221 2 -4.30014 8.54303 8.50799
208 2 -2.85159 7.02787 1.84999
263 2 -0.742585 11.4456 0.0764718
241 2 -0.602398 7.08656 3.92235
358 2 -3.44488 13.2277 3.44048
78 1 0.454363 7.36035 4.4647
1 4 -5.35228 13.2037 1.73122
209 2 -1.35695 8.22293 1.38506
14 4 -2.28621 9.66779 7.60952
15 4 -4.14589 11.7809 5.93624
34 4 -1.35543 11.7731 3.9931
72 1 -1.45651 8.70972 6.16683
84 1 -1.78026 10.0915 3.24227
107 3 -6.31515 12.5997 2.81899
108 3 -4.53603 11.9759 0.984328
109 3 -5.567 11.3407 5.30366
110 3 -3.4024 10.4615 6.83362
111 3 -4.48107 13.0069 6.90399
134 3 -0.963071 12.8678 2.92346
135 3 -2.90894 12.0967 4.89649
223 2 -1.73219 7.49331 6.09953
225 2 -1.56448 9.22467 5.06552
261 2 -2.06732 10.3316 2.16532
224 2 -0.437719 8.88216 6.54369
259 2 -2.64571 9.34598 3.69109
289 2 -3.12321 8.34838 5.00432
290 2 -4.1855 8.9019 3.52473
243 2 0.539777 6.95558 5.61264
361 2 -3.53983 9.25249 1.38503
67 1 -1.77899 7.14798 1.5206
260 2 -0.752761 9.60915 3.33972
220 2 -2.69635 7.55774 8.29141
95 1 -4.12517 8.16022 4.41358
132 3 1.77141 8.02883 2.08079
337 1 -3.62157 9.28252 0.249659
267 2 3.2845 7.8764 5.62318
142 3 1.62116 10.1054 6.53309
218 2 0.0696117 7.32913 7.48889
141 3 -0.0118846 11.4944 4.89587
242 2 0.558845 8.50988 4.41514
269 2 3.61338 7.27218 7.38733
38 4 1.30424 11.5191 5.8516
228 2 -0.293774 7.77458 13.2218
71 1 -3.22124 8.45515 8.76952
299 3 -5.80547 10.6243 16.494
145 3 3.16963 7.85569 13.1501
138 3 -1.40312 10.2956 8.72153
147 3 1.89659 9.98954 12.3392
226 2 -1.19582 7.83557 11.5084
297 4 -4.48763 10.9522 17.2896
222 2 -3.11439 8.42476 9.88849
300 2 -3.44925 12.9558 16.1128
302 2 -2.12129 11.6094 16.3824
301 2 -3.55963 11.452 15.0772
342 2 -1.30144 11.6047 14.3534
73 1 -1.1973 7.39963 12.5657
6 4 -5.22949 13.1588 13.6128
16 4 -2.36163 8.59035 13.398
18 4 -3.326 11.2551 11.5889
37 4 -0.931551 11.6085 9.7942
74 1 -1.36777 9.57574 14.7078
75 1 -4.48816 11.0889 10.1125
112 3 -3.46704 7.49448 14.3161
113 3 -2.9953 9.70809 12.2148
114 3 -4.0836 12.1513 12.7419
140 3 -1.98887 11.9139 10.9592
229 2 -2.11908 10.3829 15.1187
230 2 -0.527112 9.98927 14.1945
231 2 -1.04507 8.83813 15.5587
232 2 -4.28535 11.9254 9.42759
234 2 -4.0417 10.0675 9.68034
298 1 -3.2042 11.8444 16.05
340 1 -1.19814 12.815 14.2513
341 2 -1.26101 13.3359 15.2648
356 3 -6.10365 12.1846 14.4599
329 2 -5.85625 12.5219 9.50201
262 2 -0.447036 11.7324 15.7876
362 2 0.0327072 9.99673 16.7056
130 3 -0.199909 7.62052 16.6547
233 2 -5.64764 11.0202 10.4235
144 3 1.32313 8.71174 14.6088
343 2 -2.00984 13.1395 13.5715
85 1 -0.14424 11.1559 16.8454
265 2 0.515791 8.84903 9.00428
39 4 2.51468 9.2616 13.6618
129 3 2.57014 7.14463 16.5826
146 3 0.426032 11.1745 10.4545
266 2 1.91535 8.89025 10.1518
86 1 1.54809 8.52234 9.15197
31 4 1.14795 7.49003 15.7813
264 2 1.79512 7.45047 8.9515
327 1 -6.52897 13.3162 8.87826
258 2 3.19615 7.80067 9.98161
339 2 -4.36554 8.39388 17.2837
338 2 -2.77022 9.39724 17.3536
139 3 -0.861269 12.7916 8.75092
344 1 13.9771 1.04967 8.2672
304 4 6.7529 6.4943 3.74013
308 1 6.30979 5.9729 5.39936
311 3 6.21742 5.51048 2.58997
321 2 5.17909 5.96901 5.34266
80 1 6.03146 5.73162 8.25846
249 2 5.23697 6.45462 7.79232
323 2 6.79447 4.86904 5.29117
247 2 7.05494 5.5984 7.60474
169 3 9.55758 3.23735 8.58485
151 3 7.87891 2.77305 4.95982
276 2 8.0151 4.42947 6.76215
43 4 11.5668 1.68108 0.107436
273 2 11.3498 6.23346 2.34696
306 1 8.77596 6.71907 3.78406
150 3 8.49336 1.10781 2.86401
277 2 8.82172 5.80347 5.5915
274 2 10.7345 5.29683 4.03947
2 4 14.1092 2.06652 3.59241
42 4 8.97425 2.28797 3.69049
46 4 11.6893 2.23046 5.34222
50 4 10.395 4.16402 1.71619
52 4 10.1906 4.30185 7.40198
89 1 11.3535 5.23902 3.02033
90 1 8.82145 5.3074 6.68781
149 3 13.6367 0.799917 2.81018
153 3 11.7161 0.402294 1.07931
156 3 12.8712 2.80701 4.47309
157 3 10.3901 1.95405 4.37089
158 3 12.0358 0.906532 6.24009
165 3 9.25465 3.4817 2.71637
166 3 11.3727 3.09382 1.11174
168 3 9.72303 5.18902 0.596136
170 3 11.2048 3.69385 6.35491
275 2 8.76585 6.08785 7.56223
91 1 11.2842 5.78557 8.16629
309 3 5.94156 3.6331 0.548286
364 2 12.3642 4.76577 3.1231
315 2 9.34684 5.72983 3.87517
271 2 11.6086 6.46325 7.31942
270 2 12.2434 5.23555 8.51194
346 2 14.0368 1.97845 7.604
345 2 15.0617 0.565884 8.48113
118 3 7.40252 1.16584 7.07051
23 4 6.80598 2.15787 5.99631
214 2 13.0166 4.64239 5.33486
211 2 13.0334 3.69065 8.46678
248 2 6.19749 5.80593 9.40444
26 4 6.62187 2.28382 11.5359
128 3 6.15741 3.43286 12.5715
174 3 6.1022 5.10402 14.731
54 4 6.4046 6.58999 15.5187
162 3 7.45225 1.97008 16.6418
285 2 6.11455 6.51387 10.9877
284 2 6.99562 4.97337 11.7976
93 1 7.2134 5.93475 11.2451
175 3 7.749 6.56182 16.3576
256 2 4.89357 6.66651 9.60542
155 3 7.81216 2.90846 10.5887
283 2 7.96311 5.83969 10.258
365 2 10.7829 6.27125 10.7347
359 2 13.4609 3.5056 13.732
363 2 13.4226 1.24666 9.30246
279 2 10.7558 6.33749 9.14946
280 2 13.3049 3.77712 10.6871
12 4 11.6203 6.48563 15.4111
7 4 14.0111 1.80283 15.7476
45 4 9.13103 2.27208 9.77573
48 4 8.90763 1.89361 15.7157
49 4 11.5328 2.46853 12.0173
51 4 9.06967 6.58075 17.2428
53 4 9.97394 4.23658 14.1617
88 1 12.9578 3.62145 11.802
152 3 12.7492 1.78777 16.693
159 3 13.9559 0.590936 14.4127
160 3 8.75737 0.772243 14.531
161 3 10.0572 1.56782 16.742
163 3 10.5516 2.37836 10.7547
164 3 12.2434 1.075 12.4834
171 3 9.01458 3.44186 15.104
172 3 10.7261 3.19451 13.2478
173 3 11.2561 5.02281 14.8989
177 3 9.17678 5.52633 13.1467
272 2 12.8322 4.49076 12.51
55 4 8.7142 6.71442 12.1693
154 3 8.89079 0.743491 9.27612
123 3 7.30245 1.04375 12.4254
333 2 13.0037 3.95547 15.6007
176 3 5.27966 6.90343 16.6304
203 2 15.1168 0.640559 10.6867
35 4 1.67674 11.7407 -0.0198745
334 1 8.93553 9.79228 3.23631
44 4 5.08774 13.5517 7.31906
268 2 4.71558 8.62132 6.69086
278 2 11.519 7.05185 3.99983
21 4 0.346966 13.7058 8.04793
41 4 5.14934 13.365 1.96742
318 2 5.16728 8.27508 2.67266
291 2 9.62765 8.93009 6.9181
33 4 2.96571 9.22449 1.72675
330 2 8.39998 12.8154 8.13628
56 4 3.73722 11.2842 4.00267
60 4 6.32079 11.2307 5.70358
87 1 3.65226 8.17296 6.68544
133 3 4.32672 8.61679 1.0994
96 1 9.36442 8.29578 7.90257
143 3 1.20039 12.7253 7.00733
178 3 3.32008 9.81738 3.23283
179 3 4.38358 12.2969 2.93826
180 3 2.43152 11.8524 4.68217
186 3 4.93669 10.7633 5.08114
187 3 6.98161 9.99286 6.76296
188 3 6.12012 12.5209 6.60264
348 2 9.30483 8.9461 0.236498
307 1 5.74796 8.24366 3.61687
319 2 6.54294 9.13453 3.6564
320 2 5.08775 8.20113 4.51431
357 3 6.08953 12.5479 0.999585
322 2 7.00606 7.05935 6.49384
351 1 6.88357 9.8703 0.445988
58 4 7.45582 8.6257 7.57416
185 3 7.43558 11.5067 4.54396
136 3 2.28247 10.3437 0.880239
352 2 7.51292 9.93009 1.4477
354 2 5.82544 9.28603 0.680244
182 3 3.42971 10.3496 8.58996
137 3 0.994065 12.8652 0.941621
347 1 9.09346 8.08233 0.925719
316 2 8.96766 7.50651 4.57174
349 2 10.009 7.84272 1.64226
317 2 8.99038 7.1592 2.71597
336 2 7.89313 9.33567 3.27118
13 4 8.88138 11.4715 4.11958
286 2 10.6294 8.27248 5.07151
350 2 8.0704 8.07549 1.47636
292 2 10.0445 7.36617 8.02765
335 2 9.3575 10.1582 2.20288
360 2 9.732 9.05609 3.71219
36 4 2.60567 9.44412 7.66782
183 3 4.18458 12.9032 8.57119
240 2 4.04792 6.95097 3.8304
24 4 0.345054 13.645 13.38
40 4 1.61065 11.4301 11.5174
257 2 4.96725 7.99202 11.0638
83 1 4.2527 7.2233 10.5231
47 4 5.22432 13.5876 13.4401
288 2 7.10257 7.58388 10.0051
17 4 8.6299 11.2805 15.4483
353 2 7.23215 9.3881 17.1179
59 4 3.98533 11.6735 9.56895
62 4 3.72498 11.6623 15.3474
63 4 6.16858 11.1639 11.6742
191 3 7.7849 10.094 14.5412
148 3 1.19146 12.5402 12.6892
184 3 3.03278 11.885 10.7724
189 3 6.41823 7.81927 14.5396
192 3 3.49297 10.2706 14.548
193 3 5.00226 11.3054 16.4672
194 3 4.2023 12.774 14.2779
195 3 2.40638 12.06 16.2663
196 3 5.32894 11.0989 10.3318
197 3 6.0936 9.69907 12.5936
198 3 6.09297 12.5528 12.5317
61 4 7.04721 8.91555 13.6382
94 1 6.86712 8.53853 9.3312
97 1 7.96038 11.1235 10.8478
181 3 7.54094 11.9647 16.3494
366 2 7.25872 9.52008 9.89042
295 2 7.7767 11.1828 9.78718
296 2 8.41643 10.2074 11.2395
190 3 8.23213 8.15099 12.7589
282 2 9.78683 7.53606 9.74626
92 1 10.0791 7.16233 10.8273
294 2 8.41445 12.1123 11.2796
281 2 10.4495 8.01319 11.4895
57 4 6.3246 11.5466 17.3518
287 2 5.66206 8.6427 8.93893
293 2 9.34703 9.00724 8.88547
167 3 10.3419 7.10299 16.3112
28 4 3.90042 7.09281 17.4071
ITEM: TIMESTEP
200
ITEM: NUMBER OF ATOMS
366
ITEM: BOX BOUNDS xy xz yz pp pp pp
-7.8259280126619677e+00 1.5672935023048570e+01 -7.7280764795282639e+00
7.2117441858929696e-02 1.3785263820778400e+01 -1.4891651008504350e-01
-7.1564794098771145e-02 1.7491961089980698e+01 -4.5718737362614184e-02
ITEM: ATOMS id type x y z
11 4 -0.859413 4.81278 7.05811
69 1 -2.25861 5.56117 6.00133
102 3 -0.898477 3.30498 2.52593
104 3 -0.673926 4.82728 0.333804
98 3 -0.251633 1.65772 4.63475
215 2 -1.91473 6.26088 5.18527
210 2 -1.67766 6.03958 2.24874
303 4 5.16819 4.63622 1.39291
105 3 0.007601 3.68752 6.34926
216 2 -3.13181 5.92466 6.57253
70 1 0.450064 6.21321 7.46968
9 4 0.102581 4.08848 1.59614
124 3 0.773174 5.45649 2.5808
5 4 0.741397 2.33589 5.60133
27 4 1.51882 6.70724 3.15635
29 4 5.00785 4.17291 7.93165
64 1 2.09718 3.1188 4.45331
76 1 5.42725 1.57726 4.77115
79 1 3.29076 4.62935 7.04123
99 3 1.63733 1.46399 6.62249
103 3 1.24646 3.16223 0.992216
115 3 6.51507 1.02746 1.18778
324 1 3.74257 0.555031 2.83464
126 3 5.90767 3.20138 6.95476
199 2 1.81419 2.74732 3.41471
200 2 3.02623 2.55711 4.86405
201 2 2.21078 4.2596 4.46984
244 2 2.91378 4.12139 6.08228
245 2 3.41221 5.79798 6.74419
246 2 2.51 4.5167 7.89987
305 1 4.03433 3.60423 2.44723
217 2 0.278146 6.05114 8.63451
310 3 4.10564 5.66456 0.69051
312 2 2.97855 4.00918 2.24621
313 2 4.28105 3.6646 3.55485
314 2 4.14175 2.50473 2.02001
355 3 1.77915 0.530512 0.855177
236 2 4.61441 2.25654 5.14357
235 2 5.83286 1.81277 3.76488
325 2 3.03277 1.44377 3.30421
219 2 1.53001 5.73853 7.12683
4 4 2.56537 0.550601 7.66075
77 1 3.22778 6.30699 3.99732
239 2 2.85496 6.24373 5.14661
326 2 4.52644 0.963168 2.07778
238 2 3.52245 5.27955 3.49576
237 2 5.16493 0.427803 4.85444
118 3 7.2109 0.847823 6.76767
68 1 -1.64419 4.08106 8.76348
106 3 -2.74021 6.34789 16.5448
332 2 -0.397382 3.80762 15.0649
212 2 -1.81757 5.0373 9.41254
331 1 -1.47116 3.45095 14.8712
213 2 -0.953349 3.33429 9.39107
252 2 -0.0257398 5.50307 15.1113
202 2 -0.922465 2.52717 11.1859
65 1 -0.0864283 1.90377 10.754
100 3 -0.0740176 1.63456 16.5825
254 2 0.63271 6.5552 11.9838
253 2 1.89058 5.95994 10.6138
32 4 3.46055 6.59524 12.1385
227 2 -1.35892 6.60967 11.9034
255 2 1.62012 4.84196 12.221
251 2 1.30732 5.78916 13.7275
207 2 0.317412 3.74337 13.4857
116 3 3.46185 1.27131 8.82842
204 2 0.252532 2.31996 9.75798
206 2 1.16745 2.13982 14.1325
250 2 1.83622 5.21911 15.5035
125 3 4.34145 3.75194 9.35934
8 4 1.56351 1.97928 11.8892
22 4 4.11631 2.26892 9.99154
25 4 3.75737 1.91886 15.5098
328 2 0.89428 0.525775 9.56466
30 4 5.2381 4.33205 13.9074
66 1 1.24593 3.121 13.4381
81 1 1.02891 5.76475 14.8784
82 1 1.66947 5.9215 11.7591
101 3 1.62079 0.553378 12.489
117 3 2.79724 2.43785 11.0268
119 3 3.51476 0.653249 14.4688
120 3 4.92963 1.4756 16.6471
121 3 2.49152 2.26124 16.3503
122 3 5.45752 1.73273 10.7177
127 3 4.19185 3.37253 14.6301
131 3 4.31486 5.38806 12.8705
205 2 2.13007 3.78296 13.6833
10 4 -1.38866 6.29408 17.4131
3 4 1.2666 1.85607 17.4155
203 2 -0.427314 0.857503 10.7106
333 2 -2.17897 4.00485 15.5688
359 2 -1.85801 3.40806 13.6695
20 4 6.21694 1.94272 17.4544
221 2 -4.43441 8.3041 8.44849
208 2 -2.62335 7.64273 1.6101
263 2 -0.735348 11.1859 0.133334
241 2 -0.713393 7.325 3.94791
358 2 -3.55293 13.4759 3.61455
78 1 0.329175 7.50432 4.4384
1 4 -5.18625 13.1751 1.83979
209 2 -0.782721 7.7658 1.66976
14 4 -2.3411 9.71247 7.59001
15 4 -4.14764 11.77 6.04016
34 4 -1.43624 11.7456 4.05774
72 1 -1.37539 8.69966 6.19267
84 1 -1.60881 10.0557 3.25575
107 3 -6.00302 12.5507 3.0539
108 3 -4.37662 11.9309 0.898139
109 3 -5.49438 11.1661 5.31043
110 3 -3.44647 10.5839 6.94065
111 3 -4.37695 13.0193 7.00138
134 3 -0.91934 12.6471 2.84748
135 3 -3.02564 12.1525 4.84852
223 2 -1.66501 7.51911 6.21518
225 2 -1.48023 9.26925 5.13723
261 2 -1.7452 10.4359 2.1359
224 2 -0.299737 8.94659 6.61358
259 2 -2.53878 9.41162 3.6536
289 2 -2.99392 8.3535 4.97379
290 2 -4.12121 9.01893 3.59786
38 4 1.24179 11.6229 5.8567
361 2 -3.82847 9.38805 1.37679
67 1 -1.68545 7.00519 1.55757
260 2 -0.584613 9.5246 3.348
220 2 -2.6901 7.5071 8.08888
95 1 -4.00684 8.18892 4.30323
132 3 1.90477 8.01034 2.27072
337 1 -3.5833 9.31468 0.242345
338 2 -2.52234 9.4498 -0.0572249
142 3 1.57234 10.1195 6.73353
218 2 0.229396 7.25955 7.15132
141 3 -0.253507 11.5626 5.18726
242 2 0.602329 8.63137 4.52648
269 2 3.7728 7.10901 7.42008
330 2 -7.20787 12.928 8.07932
19 4 -0.123276 13.7187 1.95951
71 1 -3.30604 8.36056 8.65124
267 2 3.1544 7.88999 5.78443
138 3 -1.42256 10.4876 8.61984
243 2 0.436591 7.01712 5.60387
228 2 -0.449711 7.64762 13.244
139 3 -0.722546 12.8903 8.88442
299 3 -5.88862 10.551 16.506
145 3 3.22554 7.94619 12.9477
339 2 -4.26662 8.4161 17.3026
147 3 1.94719 9.98236 12.2604
226 2 -0.782652 8.39561 11.4689
297 4 -4.54177 10.9036 17.1914
222 2 -3.03149 8.35968 9.74376
300 2 -3.47006 12.9037 16.1819
302 2 -2.17533 11.5206 16.3053
301 2 -3.52477 11.4532 14.8721
342 2 -1.34796 11.5659 14.3537
73 1 -1.11383 7.64272 12.3131
6 4 -5.16107 13.3556 13.6047
16 4 -2.48553 8.57131 13.3259
18 4 -3.43474 11.3822 11.7166
37 4 -0.900763 11.6034 9.73006
74 1 -1.59645 9.4231 14.8048
75 1 -4.46278 10.9551 10.2033
112 3 -3.57471 7.67491 14.0894
113 3 -3.1197 9.81235 12.4576
114 3 -4.22795 12.4289 12.5741
140 3 -2.18142 11.8866 10.9198
229 2 -2.23719 10.246 15.1908
230 2 -0.739759 9.74937 14.0946
231 2 -1.28258 8.61536 15.5417
232 2 -4.16236 11.8716 9.48113
234 2 -4.09409 9.93453 9.65493
298 1 -3.25913 11.8124 15.9482
340 1 -1.12065 12.655 14.2306
341 2 -0.988959 13.1579 15.2982
356 3 -6.06737 12.3581 14.4492
329 2 -5.78721 12.5282 9.29332
262 2 -0.464789 11.5423 15.7726
362 2 -0.0244229 9.78805 16.6427
130 3 -0.219621 7.55352 16.5977
233 2 -5.59642 10.9809 10.5589
144 3 1.26043 8.66676 14.72
343 2 -1.9667 13.1984 13.7177
85 1 -0.223669 10.9481 16.7856
265 2 0.443827 8.65385 8.83348
39 4 2.45002 9.19785 13.6417
129 3 2.54878 7.33723 16.7068
146 3 0.375202 11.1035 10.5436
266 2 1.79114 8.7447 10.2364
86 1 1.55922 8.46328 9.13198
31 4 1.16931 7.49157 15.829
264 2 1.82814 7.38218 8.96276
327 1 -6.39919 13.3626 8.78521
258 2 3.32501 7.71602 9.91557
344 1 14.0481 1.07569 8.17485
304 4 6.69601 6.378 3.84495
308 1 6.21151 5.87431 5.49099
311 3 6.03053 5.54085 2.59332
321 2 5.10928 5.99358 5.37702
80 1 6.18044 5.56949 8.42685
249 2 5.40795 6.38759 7.98236
323 2 6.62053 4.80642 5.42963
247 2 7.12975 5.4564 7.78135
169 3 9.64491 3.44529 8.69899
151 3 7.84862 2.67621 4.80183
276 2 8.05107 4.30946 6.77014
43 4 11.6148 1.71448 0.127383
273 2 11.5511 6.23671 2.34297
306 1 8.65294 6.54361 3.72158
150 3 8.48091 0.925968 2.86216
277 2 8.74653 5.61025 5.50922
274 2 10.6777 5.53269 3.83772
2 4 14.1484 2.10757 3.54968
42 4 9.03134 2.2377 3.65699
46 4 11.6367 2.28759 5.37703
50 4 10.3024 4.18578 1.66403
52 4 10.2405 4.296 7.39388
89 1 11.3439 5.32563 2.8975
90 1 8.7833 5.17354 6.63631
149 3 13.5458 0.861416 2.80508
153 3 11.8416 0.34654 1.03755
156 3 12.8791 2.74844 4.42263
157 3 10.4754 1.79763 4.38516
158 3 12.0733 1.06825 6.35731
165 3 9.20443 3.45541 2.67165
166 3 11.3248 3.16097 0.952907
168 3 9.71158 5.28342 0.638026
170 3 11.1095 3.52329 6.30412
275 2 8.79328 6.02251 7.46324
91 1 11.306 5.71491 8.24588
309 3 5.97952 3.55853 0.414159
364 2 12.2248 4.65501 3.09059
315 2 9.29502 5.51203 3.81747
271 2 11.5539 6.47647 7.4375
270 2 12.2628 5.09893 8.53623
346 2 14.0938 1.94192 7.52362
345 2 15.098 0.589969 8.43474
211 2 13.0209 3.56464 8.44718
23 4 6.80813 2.15211 5.97134
214 2 13.0251 4.528 5.50254
248 2 6.33674 5.68146 9.55945