LAMMPS (2 Aug 2023 - Update 2)
  using 2 OpenMP thread(s) per MPI task
Reading data file ...
  triclinic box = (0 0 0) to (16.7222 13.589 17.3161) with tilt (-7.3464 -0.3071 -0.018)
WARNING: Triclinic box skew is large. LAMMPS will run inefficiently. (src/domain.cpp:220)
  2 by 2 by 2 MPI processor grid
  reading atoms ...
  386 atoms
Finding 1-2 1-3 1-4 neighbors ...
  special bond factors lj:    0        0        0       
  special bond factors coul:  0        0        0       
     0 = max # of 1-2 neighbors
     0 = max # of 1-3 neighbors
     0 = max # of 1-4 neighbors
     1 = max # of special neighbors
  special bonds CPU = 0.001 seconds
  read_data CPU = 0.008 seconds
WARNING: Van der Waals parameters for element SI indicate inner wall+shielding, but earlier atoms indicate a different van der Waals method. This may cause division-by-zero errors. Keeping van der Waals setting for earlier atoms. (src/REAXFF/reaxff_ffield.cpp:251)
*****Minimization starts.*****

CITE-CITE-CITE-CITE-CITE-CITE-CITE-CITE-CITE-CITE-CITE-CITE-CITE

Your simulation uses code contributions which should be cited:
- pair reaxff command: doi:10.1016/j.parco.2011.08.005
- fix qeq/reaxff command: doi:10.1016/j.parco.2011.08.005
The log file lists these citations in BibTeX format.

CITE-CITE-CITE-CITE-CITE-CITE-CITE-CITE-CITE-CITE-CITE-CITE-CITE

WARNING: Fix qeq/reaxff group is not charge neutral, net charge = -0.82 (src/REAXFF/fix_qeq_reaxff.cpp:392)
Neighbor list info ...
  update: every = 1 steps, delay = 0 steps, check = yes
  max neighbors/atom: 2000, page size: 100000
  master list distance cutoff = 12
  ghost atom cutoff = 12
  binsize = 6, bins = 5 3 3
  2 neighbor lists, perpetual/occasional/extra = 2 0 0
  (1) pair reaxff, perpetual
      attributes: half, newton off, ghost
      pair build: half/bin/newtoff/ghost
      stencil: full/ghost/bin/3d
      bin: standard
  (2) fix qeq/reaxff, perpetual, copy from (1)
      attributes: half, newton off
      pair build: copy
      stencil: none
      bin: none
Setting up cg style minimization ...
  Unit style    : real
  Current step  : 0
Per MPI rank memory allocation (min/avg/max) = 140.5 | 142.6 | 144.6 Mbytes
   Step          Temp          E_pair         E_mol          TotEng         Press     
         0   0             -35522.347      0             -35522.347      191465.71    
        55   0             -38066.763      0             -38066.763      13434.906    
Loop time of 10.12 on 16 procs for 55 steps with 386 atoms

97.4% CPU use with 8 MPI tasks x 2 OpenMP threads

Minimization stats:
  Stopping criterion = energy tolerance
  Energy initial, next-to-last, final = 
      -35522.347097132   -38066.762792423  -38066.7629049168
  Force two-norm initial, final = 4367.2495 397.44544
  Force max component initial, final = 823.44362 178.67619
  Final line search alpha, max atom move = 8.3608474e-07 0.00014938843
  Iterations, force evaluations = 55 215

MPI task timing breakdown:
Section |  min time  |  avg time  |  max time  |%varavg| %total
---------------------------------------------------------------
Pair    | 5.6361     | 6.7636     | 8.0417     |  41.7 | 66.83
Bond    | 5.6075e-05 | 9.7115e-05 | 0.00014652 |   0.0 |  0.00
Neigh   | 0          | 0          | 0          |   0.0 |  0.00
Comm    | 0.2229     | 1.5023     | 2.628      |  88.4 | 14.84
Output  | 0.010898   | 0.014642   | 0.016523   |   1.3 |  0.14
Modify  | 1.8247     | 1.8257     | 1.827      |   0.1 | 18.04
Other   |            | 0.01367    |            |       |  0.14

Nlocal:          48.25 ave          57 max          44 min
Histogram: 1 3 1 0 2 0 0 0 0 1
Nghost:        3458.88 ave        3503 max        3412 min
Histogram: 1 1 0 1 1 1 0 1 0 2
Neighs:          33089 ave       38843 max       30439 min
Histogram: 1 3 1 0 2 0 0 0 0 1

Total # of neighbors = 264712
Ave neighs/atom = 685.78238
Ave special neighs/atom = 0
Neighbor list builds = 0
Dangerous builds = 0
System init for write_data ...
WARNING: Van der Waals parameters for element SI indicate inner wall+shielding, but earlier atoms indicate a different van der Waals method. This may cause division-by-zero errors. Keeping van der Waals setting for earlier atoms. (src/REAXFF/reaxff_ffield.cpp:251)
WARNING: New thermo_style command, previous thermo_modify settings will be lost (src/output.cpp:903)
Neighbor list info ...
  update: every = 10 steps, delay = 0 steps, check = no
  max neighbors/atom: 2000, page size: 100000
  master list distance cutoff = 12
  ghost atom cutoff = 12
  binsize = 6, bins = 5 3 3
  2 neighbor lists, perpetual/occasional/extra = 2 0 0
  (1) pair reaxff, perpetual
      attributes: half, newton off, ghost
      pair build: half/bin/newtoff/ghost
      stencil: full/ghost/bin/3d
      bin: standard
  (2) fix qeq/reaxff, perpetual, copy from (1)
      attributes: half, newton off
      pair build: copy
      stencil: none
      bin: none
Setting up Verlet run ...
  Unit style    : real
  Current step  : 0
  Time step     : 0.5
Per MPI rank memory allocation (min/avg/max) = 134.2 | 136.4 | 138.4 Mbytes
   Step          Temp          PotEng         Press         Density         Volume    
         0   300           -38066.763      17434.595      1.7215889      3934.8755    
       100   211.15209     -37923.495      9610.1111      1.7215889      3934.8755    
       200   289.09279     -37950.001      15877.373      1.7215889      3934.8755    
       300   349.58213     -37966.539      1711.7929      1.7215889      3934.8755    
       400   347.23904     -38006.32       15345.718      1.7215889      3934.8755    
       500   306.3427      -38039.985      16229.175      1.7215889      3934.8755    
       600   300.32876     -38090.718      4998.7276      1.7215889      3934.8755    
       700   328.15037     -38172.253     -6512.6044      1.7215889      3934.8755    
       800   297.48962     -38185.547      6676.7404      1.7215889      3934.8755    
       900   303.28003     -38224.616      8382.9826      1.7215889      3934.8755    
      1000   318.92659     -38280.467      6925.6464      1.7215889      3934.8755    
      1100   336.21835     -38326.851      4863.4114      1.7215889      3934.8755    
      1200   312.65672     -38344.68       12976.413      1.7215889      3934.8755    
      1300   327.39661     -38397.808      4158.1916      1.7215889      3934.8755    
      1400   304.88981     -38410.917      6288.4474      1.7215889      3934.8755    
      1500   311.55736     -38456.231     -190.19542      1.7215889      3934.8755    
      1600   290.97718     -38462.866      5524.6618      1.7215889      3934.8755    
      1700   280.33641     -38463.724      6897.6814      1.7215889      3934.8755    
      1800   282.50852     -38461.616      6367.8003      1.7215889      3934.8755    
      1900   314.78923     -38470.644      10690.127      1.7215889      3934.8755    
      2000   303.97213     -38462.942      8096.8342      1.7215889      3934.8755    
      2100   288.29494     -38466.784      6731.1321      1.7215889      3934.8755    
      2200   284.76005     -38490.392      6977.8855      1.7215889      3934.8755    
      2300   275.16195     -38507.457     -4432.1027      1.7215889      3934.8755    
      2400   297.93937     -38504.301     -8822.1928      1.7215889      3934.8755    
      2500   291.66678     -38471.178      1913.0498      1.7215889      3934.8755    
      2600   289.2102      -38454.05       15267.825      1.7215889      3934.8755    
      2700   301.69809     -38448.147      5415.6571      1.7215889      3934.8755    
      2800   297.94874     -38438.289     -2267.2509      1.7215889      3934.8755    
      2900   300.72503     -38474.482     -8643.968       1.7215889      3934.8755    
      3000   317.50189     -38517.397     -4363.7663      1.7215889      3934.8755    
      3100   302.95926     -38519.025     -1974.6208      1.7215889      3934.8755    
      3200   312.89355     -38551.331      2023.0249      1.7215889      3934.8755    
      3300   290.97048     -38547.321      3359.6392      1.7215889      3934.8755    
      3400   286.522       -38550.977     -3325.908       1.7215889      3934.8755    
      3500   303.27038     -38571.216     -7483.407       1.7215889      3934.8755    
      3600   294.15785     -38556.965     -7504.9415      1.7215889      3934.8755    
      3700   314.40326     -38573.569     -7979.6056      1.7215889      3934.8755    
      3800   283.5882      -38537.011      1608.3993      1.7215889      3934.8755    
      3900   307.76862     -38552.345      8038.7131      1.7215889      3934.8755    
      4000   305.4531      -38525.686     -1175.9427      1.7215889      3934.8755    
      4100   317.58537     -38511.858     -672.6192       1.7215889      3934.8755    
      4200   325.88881     -38530.949      3815.0383      1.7215889      3934.8755    
      4300   287.89515     -38533.914     -1863.8402      1.7215889      3934.8755    
      4400   291.46186     -38553.852      6149.1819      1.7215889      3934.8755    
      4500   296.22398     -38567.761     -244.49488      1.7215889      3934.8755    
      4600   280.47748     -38541.375      3814.3064      1.7215889      3934.8755    
      4700   343.12271     -38582.428      8190.2207      1.7215889      3934.8755    
      4800   312.68069     -38560.908      4159.6928      1.7215889      3934.8755    
      4900   297.82269     -38565.365      670.01892      1.7215889      3934.8755    
      5000   286.54918     -38561.921      3902.3231      1.7215889      3934.8755    
Loop time of 233.782 on 16 procs for 5000 steps with 386 atoms

Performance: 0.924 ns/day, 25.976 hours/ns, 21.387 timesteps/s, 8.256 katom-step/s
99.5% CPU use with 8 MPI tasks x 2 OpenMP threads

MPI task timing breakdown:
Section |  min time  |  avg time  |  max time  |%varavg| %total
---------------------------------------------------------------
Pair    | 134.79     | 163.1      | 194.24     | 208.4 | 69.77
Bond    | 0.0012727  | 0.0015265  | 0.0019539  |   0.6 |  0.00
Neigh   | 11.401     | 13.759     | 16.466     |  62.0 |  5.89
Comm    | 3.9731     | 35.122     | 63.398     | 449.1 | 15.02
Output  | 0.016982   | 0.018738   | 0.020437   |   0.8 |  0.01
Modify  | 18.938     | 21.673     | 24.034     |  49.7 |  9.27
Other   |            | 0.106      |            |       |  0.05

Nlocal:          48.25 ave          57 max          43 min
Histogram: 2 0 1 3 0 0 1 0 0 1
Nghost:        3468.75 ave        3498 max        3449 min
Histogram: 3 0 0 1 1 0 1 1 0 1
Neighs:        33045.4 ave       38664 max       29729 min
Histogram: 2 0 1 3 0 0 1 0 0 1

Total # of neighbors = 264363
Ave neighs/atom = 684.87824
Ave special neighs/atom = 0
Neighbor list builds = 500
Dangerous builds not checked
System init for write_data ...
System init for write_restart ...
  using 2 OpenMP thread(s) per MPI task
Reading restart file ...
  restart file = 2 Aug 2023, LAMMPS = 2 Aug 2023
  restoring atom style full from restart
  triclinic box = (0 0 0) to (16.7222 13.589 17.3161) with tilt (-7.3464 -0.3071 -0.018)
WARNING: Triclinic box skew is large. LAMMPS will run inefficiently. (src/domain.cpp:220)
  2 by 2 by 2 MPI processor grid
  pair style reaxff stores no restart info
  386 atoms
Finding 1-2 1-3 1-4 neighbors ...
  special bond factors lj:    0        0        0       
  special bond factors coul:  0        0        0       
     0 = max # of 1-2 neighbors
     0 = max # of 1-3 neighbors
     0 = max # of 1-4 neighbors
     1 = max # of special neighbors
  special bonds CPU = 0.000 seconds
  read_restart CPU = 0.003 seconds
*****Positive-deform 1 starts.*****
WARNING: Van der Waals parameters for element SI indicate inner wall+shielding, but earlier atoms indicate a different van der Waals method. This may cause division-by-zero errors. Keeping van der Waals setting for earlier atoms. (src/REAXFF/reaxff_ffield.cpp:251)
Resetting global fix info from restart file:
  fix style: nvt, fix ID: fnvt
All restart file global fix info was re-assigned
Unused restart file peratom fix info:
  fix style: STORE/ATOM, fix ID: msd1_COMPUTE_STORE
Neighbor list info ...
  update: every = 10 steps, delay = 0 steps, check = no
  max neighbors/atom: 2000, page size: 100000
  master list distance cutoff = 12
  ghost atom cutoff = 12
  binsize = 6, bins = 5 3 3
  2 neighbor lists, perpetual/occasional/extra = 2 0 0
  (1) pair reaxff, perpetual
      attributes: half, newton off, ghost
      pair build: half/bin/newtoff/ghost
      stencil: full/ghost/bin/3d
      bin: standard
  (2) fix qeq/reaxff, perpetual, copy from (1)
      attributes: half, newton off
      pair build: copy
      stencil: none
      bin: none
Setting up Verlet run ...
  Unit style    : real
  Current step  : 0
  Time step     : 0.5
Per MPI rank memory allocation (min/avg/max) = 140 | 141.1 | 142.2 Mbytes
   Step          Temp          PotEng         Press          Volume           Lx             Ly             Lz      
         0   286.54918     -38561.921      3902.8493      3934.8755      16.7222        13.589         17.3161      
       100   311.55315     -38594.252     -449.06125      4013.573       17.056644      13.589         17.3161      
       200   365.91772     -38414.086     -7414.023       4092.2705      17.391088      13.589         17.3161      
       300   462.8943      -38399.011     -7020.5881      4170.968       17.725532      13.589         17.3161      
       400   500.20313     -38344.084     -3039.2394      4249.6656      18.059976      13.589         17.3161      
       500   503.31806     -38336.146     -5103.4574      4328.3631      18.39442       13.589         17.3161      
       600   434.14036     -38356.198     -11286.352      4407.0606      18.728864      13.589         17.3161      
       700   464.32783     -38359.379     -13394.413      4485.7581      19.063308      13.589         17.3161      
       800   458.86478     -38345.781     -12796.708      4564.4556      19.397752      13.589         17.3161      
       900   469.84333     -38415.715     -22419.401      4643.1531      19.732196      13.589         17.3161      
      1000   404.11994     -38326.017     -19188.891      4721.8506      20.06664       13.589         17.3161      
      1100   397.68559     -38343.3       -4236.5683      4800.5481      20.401084      13.589         17.3161      
      1200   411.11521     -38365.933     -24673.68       4879.2456      20.735528      13.589         17.3161      
      1300   389.07331     -38281.702     -29747.868      4957.9431      21.069972      13.589         17.3161      
      1400   443.49395     -38339.218     -34242.265      5036.6407      21.404416      13.589         17.3161      
      1500   425.37363     -38277.64      -28426.05       5115.3382      21.73886       13.589         17.3161      
      1600   468.16416     -38234.968     -31143.781      5194.0357      22.073304      13.589         17.3161      
      1700   485.56791     -38275.369     -16333.247      5272.7332      22.407748      13.589         17.3161      
      1800   403.11018     -38183.424     -31144.199      5351.4307      22.742192      13.589         17.3161      
      1900   422.6729      -38182.555     -22860.947      5430.1282      23.076636      13.589         17.3161      
      2000   366.3351      -38123.35      -20986.666      5508.8257      23.41108       13.589         17.3161      
      2100   371.69568     -38177.633     -31011.659      5587.5232      23.745524      13.589         17.3161      
      2200   414.28599     -38296.023     -17336.077      5666.2207      24.079968      13.589         17.3161      
      2300   349.82216     -38328.695     -14863.777      5744.9182      24.414412      13.589         17.3161      
      2400   337.21433     -38280.158     -19323.104      5823.6158      24.748856      13.589         17.3161      
      2500   368.2253      -38315.704     -11648.385      5902.3133      25.0833        13.589         17.3161      
      2600   368.60948     -38356.863     -6941.0629      5981.0108      25.417744      13.589         17.3161      
      2700   315.94718     -38352.341     -6481.0473      6059.7083      25.752188      13.589         17.3161      
      2800   313.635       -38407.082     -10415.912      6138.4058      26.086632      13.589         17.3161      
      2900   342.71424     -38411.048     -13297.574      6217.1033      26.421076      13.589         17.3161      
      3000   289.94041     -38343.643     -18420.593      6295.8008      26.75552       13.589         17.3161      
      3100   317.3186      -38319.093     -16761.614      6374.4983      27.089964      13.589         17.3161      
      3200   360.53836     -38326.576     -7968.5176      6453.1958      27.424408      13.589         17.3161      
      3300   333.85456     -38366.162     -9496.0504      6531.8934      27.758852      13.589         17.3161      
      3400   329.14509     -38362.138     -5554.3891      6610.5909      28.093296      13.589         17.3161      
      3500   312.91881     -38305.56      -12450.466      6689.2884      28.42774       13.589         17.3161      
      3600   383.01078     -38394.114     -11693.814      6767.9859      28.762184      13.589         17.3161      
      3700   268.43663     -38305.336     -13474.886      6846.6834      29.096628      13.589         17.3161      
      3800   363.56729     -38377.571     -11518.721      6925.3809      29.431072      13.589         17.3161      
      3900   274.29667     -38300.859     -11255.85       7004.0784      29.765516      13.589         17.3161      
      4000   285.60721     -38332.879     -11617.333      7082.7759      30.09996       13.589         17.3161      
      4100   283.40044     -38315.489     -13332.704      7161.4734      30.434404      13.589         17.3161      
      4200   295.99885     -38286.515     -16600.487      7240.1709      30.768848      13.589         17.3161      
      4300   251.09867     -38233.449     -14842.973      7318.8685      31.103292      13.589         17.3161      
      4400   304.08361     -38266.181     -17220.367      7397.566       31.437736      13.589         17.3161      
      4500   321.39522     -38266.984     -13046.684      7476.2635      31.77218       13.589         17.3161      
      4600   247.01211     -38186.176     -10376.566      7554.961       32.106624      13.589         17.3161      
      4700   252.30639     -38156.734     -10905.024      7633.6585      32.441068      13.589         17.3161      
      4800   413.78419     -38301.495     -10076.818      7712.356       32.775512      13.589         17.3161      
      4900   387.26106     -38348.244     -9135.635       7791.0535      33.109956      13.589         17.3161      
      5000   356.49662     -38353.331     -3588.6667      7869.751       33.4444        13.589         17.3161      
Loop time of 168.439 on 16 procs for 5000 steps with 386 atoms

Performance: 1.282 ns/day, 18.715 hours/ns, 29.684 timesteps/s, 11.458 katom-step/s
99.4% CPU use with 8 MPI tasks x 2 OpenMP threads

MPI task timing breakdown:
Section |  min time  |  avg time  |  max time  |%varavg| %total
---------------------------------------------------------------
Pair    | 95.182     | 111.54     | 137.81     | 175.8 | 66.22
Bond    | 0.001253   | 0.0014795  | 0.0018611  |   0.5 |  0.00
Neigh   | 7.4077     | 8.6405     | 10.703     |  52.4 |  5.13
Comm    | 2.6884     | 28.96      | 45.313     | 345.1 | 17.19
Output  | 0.016037   | 0.017684   | 0.018712   |   0.7 |  0.01
Modify  | 17.134     | 19.18      | 20.41      |  35.2 | 11.39
Other   |            | 0.1012     |            |       |  0.06

Nlocal:          48.25 ave          62 max          36 min
Histogram: 1 2 0 1 1 0 1 0 0 2
Nghost:         2530.5 ave        2676 max        2345 min
Histogram: 1 2 0 0 1 0 0 0 2 2
Neighs:        17178.5 ave       22726 max       12282 min
Histogram: 1 2 0 0 2 0 1 0 1 1

Total # of neighbors = 137428
Ave neighs/atom = 356.03109
Ave special neighs/atom = 0
Neighbor list builds = 500
Dangerous builds not checked
  using 2 OpenMP thread(s) per MPI task
Reading restart file ...
  restart file = 2 Aug 2023, LAMMPS = 2 Aug 2023
  restoring atom style full from restart
  triclinic box = (0 0 0) to (16.7222 13.589 17.3161) with tilt (-7.3464 -0.3071 -0.018)
WARNING: Triclinic box skew is large. LAMMPS will run inefficiently. (src/domain.cpp:220)
  2 by 2 by 2 MPI processor grid
  pair style reaxff stores no restart info
  386 atoms
Finding 1-2 1-3 1-4 neighbors ...
  special bond factors lj:    0        0        0       
  special bond factors coul:  0        0        0       
     0 = max # of 1-2 neighbors
     0 = max # of 1-3 neighbors
     0 = max # of 1-4 neighbors
     1 = max # of special neighbors
  special bonds CPU = 0.000 seconds
  read_restart CPU = 0.003 seconds
*****Positive-deform 2 starts.*****
WARNING: Van der Waals parameters for element SI indicate inner wall+shielding, but earlier atoms indicate a different van der Waals method. This may cause division-by-zero errors. Keeping van der Waals setting for earlier atoms. (src/REAXFF/reaxff_ffield.cpp:251)
Resetting global fix info from restart file:
  fix style: nvt, fix ID: fnvt
All restart file global fix info was re-assigned
Unused restart file peratom fix info:
  fix style: STORE/ATOM, fix ID: msd1_COMPUTE_STORE
Neighbor list info ...
  update: every = 10 steps, delay = 0 steps, check = no
  max neighbors/atom: 2000, page size: 100000
  master list distance cutoff = 12
  ghost atom cutoff = 12
  binsize = 6, bins = 5 3 3
  2 neighbor lists, perpetual/occasional/extra = 2 0 0
  (1) pair reaxff, perpetual
      attributes: half, newton off, ghost
      pair build: half/bin/newtoff/ghost
      stencil: full/ghost/bin/3d
      bin: standard
  (2) fix qeq/reaxff, perpetual, copy from (1)
      attributes: half, newton off
      pair build: copy
      stencil: none
      bin: none
Setting up Verlet run ...
  Unit style    : real
  Current step  : 0
  Time step     : 0.5
Per MPI rank memory allocation (min/avg/max) = 140 | 141.1 | 142.2 Mbytes
   Step          Temp          PotEng         Press          Volume           Lx             Ly             Lz      
         0   286.54918     -38561.921      3902.8493      3934.8755      16.7222        13.589         17.3161      
       100   310.10579     -38591.524      1093.8895      4013.573       16.7222        13.86078       17.3161      
       200   373.4252      -38445.231     -12589.229      4092.2705      16.7222        14.13256       17.3161      
       300   387.38215     -38305.759     -20311.577      4170.968       16.7222        14.40434       17.3161      
       400   439.61892     -38350.6       -8635.3055      4249.6656      16.7222        14.67612       17.3161      
       500   501.61458     -38457.633     -4982.3587      4328.3631      16.7222        14.9479        17.3161      
       600   392.32478     -38348.58      -10434.113      4407.0606      16.7222        15.21968       17.3161      
       700   398.57654     -38367.838     -22896.078      4485.7581      16.7222        15.49146       17.3161      
       800   363.1146      -38337.955     -27546.343      4564.4556      16.7222        15.76324       17.3161      
       900   410.81281     -38376.069     -25930.381      4643.1531      16.7222        16.03502       17.3161      
      1000   391.55061     -38360.772     -21493.899      4721.8506      16.7222        16.3068        17.3161      
      1100   339.68178     -38348.774     -22932.743      4800.5481      16.7222        16.57858       17.3161      
      1200   352.39527     -38372.728     -10540.599      4879.2456      16.7222        16.85036       17.3161      
      1300   349.25084     -38418.361     -23281.46       4957.9431      16.7222        17.12214       17.3161      
      1400   434.60461     -38550.097     -18570.576      5036.6407      16.7222        17.39392       17.3161      
      1500   365.80886     -38547.627     -7533.5785      5115.3382      16.7222        17.6657        17.3161      
      1600   338.6407      -38565.768     -6127.3638      5194.0357      16.7222        17.93748       17.3161      
      1700   369.72047     -38624.5       -8056.1139      5272.7332      16.7222        18.20926       17.3161      
      1800   343.4064      -38597.058     -5881.8244      5351.4307      16.7222        18.48104       17.3161      
      1900   241.3222      -38581.252     -13051.981      5430.1282      16.7222        18.75282       17.3161      
      2000   297.30926     -38615.929     -16244.805      5508.8257      16.7222        19.0246        17.3161      
      2100   328.94574     -38614.273     -8428.0567      5587.5232      16.7222        19.29638       17.3161      
      2200   301.65551     -38558.666     -9950.2925      5666.2207      16.7222        19.56816       17.3161      
      2300   306.88418     -38515.127     -12119.048      5744.9182      16.7222        19.83994       17.3161      
      2400   348.64827     -38563.318     -17195.133      5823.6158      16.7222        20.11172       17.3161      
      2500   300.23722     -38485.657     -9184.9951      5902.3133      16.7222        20.3835        17.3161      
      2600   314.92861     -38445.164     -10056.614      5981.0108      16.7222        20.65528       17.3161      
      2700   348.08231     -38444.318     -10183.893      6059.7083      16.7222        20.92706       17.3161      
      2800   356.16936     -38455.932     -11313.75       6138.4058      16.7222        21.19884       17.3161      
      2900   331.19932     -38417.715     -15533.051      6217.1033      16.7222        21.47062       17.3161      
      3000   334.23598     -38365.392     -12128.831      6295.8008      16.7222        21.7424        17.3161      
      3100   355.71146     -38395.47      -19096.305      6374.4983      16.7222        22.01418       17.3161      
      3200   323.52939     -38308.632     -12577.154      6453.1958      16.7222        22.28596       17.3161      
      3300   334.12565     -38328.07      -14468.965      6531.8934      16.7222        22.55774       17.3161      
      3400   334.70851     -38240.213     -14442.577      6610.5909      16.7222        22.82952       17.3161      
      3500   355.2792      -38269.102     -25798.17       6689.2884      16.7222        23.1013        17.3161      
      3600   351.28323     -38226.053     -19286.943      6767.9859      16.7222        23.37308       17.3161      
      3700   445.49594     -38376.39      -15583.302      6846.6834      16.7222        23.64486       17.3161      
      3800   459.45231     -38459.115     -590.03297      6925.3809      16.7222        23.91664       17.3161      
      3900   399.16757     -38502.587      2502.8699      7004.0784      16.7222        24.18842       17.3161      
      4000   336.50033     -38570.954     -3524.7346      7082.7759      16.7222        24.4602        17.3161      
      4100   348.80075     -38636.54      -117.89822      7161.4734      16.7222        24.73198       17.3161      
      4200   335.64773     -38635.967      1799.1518      7240.1709      16.7222        25.00376       17.3161      
      4300   280.16871     -38567.1        1803.0906      7318.8685      16.7222        25.27554       17.3161      
      4400   292.76968     -38619.068      4166.0243      7397.566       16.7222        25.54732       17.3161      
      4500   264.24322     -38669.983     -6031.0339      7476.2635      16.7222        25.8191        17.3161      
      4600   278.63317     -38635.852     -302.28701      7554.961       16.7222        26.09088       17.3161      
      4700   269.63182     -38562.486      4.3857668      7633.6585      16.7222        26.36266       17.3161      
      4800   351.08223     -38723.608      1004.6831      7712.356       16.7222        26.63444       17.3161      
      4900   337.30653     -38799.27       5159.7182      7791.0535      16.7222        26.90622       17.3161      
      5000   308.44014     -38827.646     -2954.2787      7869.751       16.7222        27.178         17.3161      
Loop time of 154.082 on 16 procs for 5000 steps with 386 atoms

Performance: 1.402 ns/day, 17.120 hours/ns, 32.450 timesteps/s, 12.526 katom-step/s
99.5% CPU use with 8 MPI tasks x 2 OpenMP threads

MPI task timing breakdown:
Section |  min time  |  avg time  |  max time  |%varavg| %total
---------------------------------------------------------------
Pair    | 85.45      | 100.27     | 123.9      | 162.5 | 65.07
Bond    | 0.0012536  | 0.0014307  | 0.0017196  |   0.4 |  0.00
Neigh   | 6.2471     | 7.7023     | 9.8395     |  51.0 |  5.00
Comm    | 4.0987     | 27.741     | 42.569     | 309.0 | 18.00
Output  | 0.015069   | 0.016734   | 0.017645   |   0.7 |  0.01
Modify  | 16.124     | 18.261     | 19.739     |  33.2 | 11.85
Other   |            | 0.09221    |            |       |  0.06

Nlocal:          48.25 ave          80 max          13 min
Histogram: 3 0 1 0 0 0 0 0 0 4
Nghost:        1961.88 ave        2408 max        1524 min
Histogram: 4 0 0 0 0 0 0 0 0 4
Neighs:        18707.9 ave       33024 max        3966 min
Histogram: 3 1 0 0 0 0 0 0 0 4

Total # of neighbors = 149663
Ave neighs/atom = 387.72798
Ave special neighs/atom = 0
Neighbor list builds = 500
Dangerous builds not checked
  using 2 OpenMP thread(s) per MPI task
Reading restart file ...
  restart file = 2 Aug 2023, LAMMPS = 2 Aug 2023
  restoring atom style full from restart
  triclinic box = (0 0 0) to (16.7222 13.589 17.3161) with tilt (-7.3464 -0.3071 -0.018)
WARNING: Triclinic box skew is large. LAMMPS will run inefficiently. (src/domain.cpp:220)
  2 by 2 by 2 MPI processor grid
  pair style reaxff stores no restart info
  386 atoms
Finding 1-2 1-3 1-4 neighbors ...
  special bond factors lj:    0        0        0       
  special bond factors coul:  0        0        0       
     0 = max # of 1-2 neighbors
     0 = max # of 1-3 neighbors
     0 = max # of 1-4 neighbors
     1 = max # of special neighbors
  special bonds CPU = 0.000 seconds
  read_restart CPU = 0.003 seconds
*****Positive-deform 3 starts.*****
WARNING: Van der Waals parameters for element SI indicate inner wall+shielding, but earlier atoms indicate a different van der Waals method. This may cause division-by-zero errors. Keeping van der Waals setting for earlier atoms. (src/REAXFF/reaxff_ffield.cpp:251)
Resetting global fix info from restart file:
  fix style: nvt, fix ID: fnvt
All restart file global fix info was re-assigned
Unused restart file peratom fix info:
  fix style: STORE/ATOM, fix ID: msd1_COMPUTE_STORE
Neighbor list info ...
  update: every = 10 steps, delay = 0 steps, check = no
  max neighbors/atom: 2000, page size: 100000
  master list distance cutoff = 12
  ghost atom cutoff = 12
  binsize = 6, bins = 5 3 3
  2 neighbor lists, perpetual/occasional/extra = 2 0 0
  (1) pair reaxff, perpetual
      attributes: half, newton off, ghost
      pair build: half/bin/newtoff/ghost
      stencil: full/ghost/bin/3d
      bin: standard
  (2) fix qeq/reaxff, perpetual, copy from (1)
      attributes: half, newton off
      pair build: copy
      stencil: none
      bin: none
Setting up Verlet run ...
  Unit style    : real
  Current step  : 0
  Time step     : 0.5
Per MPI rank memory allocation (min/avg/max) = 140 | 141.1 | 142.2 Mbytes
   Step          Temp          PotEng         Press          Volume           Lx             Ly             Lz      
         0   286.54918     -38561.921      3902.8493      3934.8755      16.7222        13.589         17.3161      
       100   311.62713     -38592.617      1700.9469      4013.573       16.7222        13.589         17.662422    
       200   415.9632      -38429.945      10301.131      4092.2705      16.7222        13.589         18.008744    
       300   468.62092     -38388.09      -1263.9814      4170.968       16.7222        13.589         18.355066    
       400   498.4048      -38315.195      457.73849      4249.6656      16.7222        13.589         18.701388    
       500   480.32552     -38358.861     -2163.1625      4328.3631      16.7222        13.589         19.04771     
       600   402.97757     -38302.762     -11477.337      4407.0606      16.7222        13.589         19.394032    
       700   464.27593     -38358.425     -21969.766      4485.7581      16.7222        13.589         19.740354    
       800   410.50713     -38318.251     -27333.721      4564.4556      16.7222        13.589         20.086676    
       900   377.77894     -38266.77      -21075.156      4643.1531      16.7222        13.589         20.432998    
      1000   393.81965     -38320.623     -27986.017      4721.8506      16.7222        13.589         20.77932     
      1100   285.19568     -38203.272     -26170.18       4800.5481      16.7222        13.589         21.125642    
      1200   291.14388     -38156.795     -38398.409      4879.2456      16.7222        13.589         21.471964    
      1300   400.04907     -38201.08      -35332.729      4957.9431      16.7222        13.589         21.818286    
      1400   399.04813     -38160.639     -22796.244      5036.6407      16.7222        13.589         22.164608    
      1500   315.38214     -38075.338     -31773.514      5115.3382      16.7222        13.589         22.51093     
      1600   345.86513     -38051.038     -32344.774      5194.0357      16.7222        13.589         22.857252    
      1700   347.48496     -38033.967     -29657.517      5272.7332      16.7222        13.589         23.203574    
      1800   357.56074     -37984.996     -33850.52       5351.4307      16.7222        13.589         23.549896    
      1900   373.23887     -38063.206     -32170.609      5430.1282      16.7222        13.589         23.896218    
      2000   413.60201     -38179.253     -22032.705      5508.8257      16.7222        13.589         24.24254     
      2100   342.48627     -38207.408     -23823.868      5587.5232      16.7222        13.589         24.588862    
      2200   354.5719      -38257.246     -23028.445      5666.2207      16.7222        13.589         24.935184    
      2300   327.53882     -38180.24      -25434.089      5744.9182      16.7222        13.589         25.281506    
      2400   323.43191     -38155.764     -25630.655      5823.6158      16.7222        13.589         25.627828    
      2500   314.46599     -38118.354     -22926.338      5902.3133      16.7222        13.589         25.97415     
      2600   321.40267     -38068.604     -29560.342      5981.0108      16.7222        13.589         26.320472    
      2700   404.3644      -38125.298     -23280.238      6059.7083      16.7222        13.589         26.666794    
      2800   423.62008     -38213.354     -23821.775      6138.4058      16.7222        13.589         27.013116    
      2900   371.92642     -38232.05      -20384.462      6217.1033      16.7222        13.589         27.359438    
      3000   399.01446     -38319.336     -13638.222      6295.8008      16.7222        13.589         27.70576     
      3100   295.98185     -38245.548     -16546.061      6374.4983      16.7222        13.589         28.052082    
      3200   356.40331     -38333.426     -8106.4218      6453.1958      16.7222        13.589         28.398404    
      3300   309.78407     -38283.996     -14380.542      6531.8934      16.7222        13.589         28.744726    
      3400   327.89799     -38341.451     -16656.178      6610.5909      16.7222        13.589         29.091048    
      3500   344.25995     -38372.696     -6105.7743      6689.2884      16.7222        13.589         29.43737     
      3600   328.39509     -38428.543     -7343.5836      6767.9859      16.7222        13.589         29.783692    
      3700   348.22589     -38570.143     -1097.9326      6846.6834      16.7222        13.589         30.130014    
      3800   302.67589     -38563.443     -3661.7512      6925.3809      16.7222        13.589         30.476336    
      3900   321.53206     -38631.648      672.90368      7004.0784      16.7222        13.589         30.822658    
      4000   267.43833     -38596.82      -3202.7802      7082.7759      16.7222        13.589         31.16898     
      4100   260.93011     -38600.803      163.83511      7161.4734      16.7222        13.589         31.515302    
      4200   254.70394     -38613.07      -7146.6774      7240.1709      16.7222        13.589         31.861624    
      4300   310.47494     -38574         -7652.8983      7318.8685      16.7222        13.589         32.207946    
      4400   310.89849     -38592.197     -7354.3039      7397.566       16.7222        13.589         32.554268    
      4500   272.00233     -38512.009     -4641.2488      7476.2635      16.7222        13.589         32.90059     
      4600   331.44218     -38609.879     -3321.3957      7554.961       16.7222        13.589         33.246912    
      4700   279.79678     -38567.54      -1740.49        7633.6585      16.7222        13.589         33.593234    
      4800   266.48552     -38555.57      -4656.69        7712.356       16.7222        13.589         33.939556    
      4900   274.97356     -38551.999     -5179.7623      7791.0535      16.7222        13.589         34.285878    
      5000   322.31869     -38587.49      -7595.2812      7869.751       16.7222        13.589         34.6322      
Loop time of 161.059 on 16 procs for 5000 steps with 386 atoms

Performance: 1.341 ns/day, 17.895 hours/ns, 31.045 timesteps/s, 11.983 katom-step/s
99.4% CPU use with 8 MPI tasks x 2 OpenMP threads

MPI task timing breakdown:
Section |  min time  |  avg time  |  max time  |%varavg| %total
---------------------------------------------------------------
Pair    | 91.835     | 105.35     | 133.14     | 157.8 | 65.41
Bond    | 0.0012929  | 0.0015055  | 0.001969   |   0.6 |  0.00
Neigh   | 6.4311     | 7.4765     | 9.4632     |  44.5 |  4.64
Comm    | 1.9793     | 29.811     | 43.316     | 296.8 | 18.51
Output  | 0.01553    | 0.017219   | 0.018359   |   0.7 |  0.01
Modify  | 16.35      | 18.307     | 19.358     |  28.3 | 11.37
Other   |            | 0.09955    |            |       |  0.06

Nlocal:          48.25 ave          69 max          23 min
Histogram: 1 0 2 0 1 0 1 0 1 2
Nghost:        2202.75 ave        2473 max        1917 min
Histogram: 3 1 0 0 0 0 0 0 2 2
Neighs:        19840.9 ave       30509 max        8257 min
Histogram: 1 1 2 0 0 0 0 2 0 2

Total # of neighbors = 158727
Ave neighs/atom = 411.20984
Ave special neighs/atom = 0
Neighbor list builds = 500
Dangerous builds not checked
  using 2 OpenMP thread(s) per MPI task
Reading restart file ...
  restart file = 2 Aug 2023, LAMMPS = 2 Aug 2023
  restoring atom style full from restart
  triclinic box = (0 0 0) to (16.7222 13.589 17.3161) with tilt (-7.3464 -0.3071 -0.018)
WARNING: Triclinic box skew is large. LAMMPS will run inefficiently. (src/domain.cpp:220)
  2 by 2 by 2 MPI processor grid
  pair style reaxff stores no restart info
  386 atoms
Finding 1-2 1-3 1-4 neighbors ...
  special bond factors lj:    0        0        0       
  special bond factors coul:  0        0        0       
     0 = max # of 1-2 neighbors
     0 = max # of 1-3 neighbors
     0 = max # of 1-4 neighbors
     1 = max # of special neighbors
  special bonds CPU = 0.000 seconds
  read_restart CPU = 0.003 seconds
*****Positive-deform 4 starts.*****
WARNING: Van der Waals parameters for element SI indicate inner wall+shielding, but earlier atoms indicate a different van der Waals method. This may cause division-by-zero errors. Keeping van der Waals setting for earlier atoms. (src/REAXFF/reaxff_ffield.cpp:251)
Resetting global fix info from restart file:
  fix style: nvt, fix ID: fnvt
All restart file global fix info was re-assigned
Unused restart file peratom fix info:
  fix style: STORE/ATOM, fix ID: msd1_COMPUTE_STORE
Neighbor list info ...
  update: every = 10 steps, delay = 0 steps, check = no
  max neighbors/atom: 2000, page size: 100000
  master list distance cutoff = 12
  ghost atom cutoff = 12
  binsize = 6, bins = 5 3 3
  2 neighbor lists, perpetual/occasional/extra = 2 0 0
  (1) pair reaxff, perpetual
      attributes: half, newton off, ghost
      pair build: half/bin/newtoff/ghost
      stencil: full/ghost/bin/3d
      bin: standard
  (2) fix qeq/reaxff, perpetual, copy from (1)
      attributes: half, newton off
      pair build: copy
      stencil: none
      bin: none
Setting up Verlet run ...
  Unit style    : real
  Current step  : 0
  Time step     : 0.5
Per MPI rank memory allocation (min/avg/max) = 140 | 141.1 | 142.2 Mbytes
   Step          Temp          PotEng         Press          Volume           Lx             Ly             Lz      
         0   286.54918     -38561.921      3902.8493      3934.8755      16.7222        13.589         17.3161      
       100   314.13751     -38591.399      1296.6069      3934.8755      16.7222        13.589         17.3161      
       200   384.47793     -38501.847      1571.1801      3934.8755      16.7222        13.589         17.3161      
       300   368.07612     -38453.531      7297.8336      3934.8755      16.7222        13.589         17.3161      
       400   418.56659     -38485.651     -6254.4336      3934.8755      16.7222        13.589         17.3161      
       500   506.84313     -38520.303      11792.263      3934.8755      16.7222        13.589         17.3161      
       600   415.82395     -38556.752     -1357.493       3934.8755      16.7222        13.589         17.3161      
       700   373.08327     -38491.059     -480.67095      3934.8755      16.7222        13.589         17.3161      
       800   417.62271     -38580.783     -10753.066      3934.8755      16.7222        13.589         17.3161      
       900   377.24151     -38600.777      11212.064      3934.8755      16.7222        13.589         17.3161      
      1000   304.13735     -38521.638     -173.61306      3934.8755      16.7222        13.589         17.3161      
      1100   387.68805     -38600.215      12146.849      3934.8755      16.7222        13.589         17.3161      
      1200   331.82522     -38531.02       526.0806       3934.8755      16.7222        13.589         17.3161      
      1300   362.6913      -38468.952      3591.4254      3934.8755      16.7222        13.589         17.3161      
      1400   303.65551     -38418.232     -7149.7587      3934.8755      16.7222        13.589         17.3161      
      1500   331.98862     -38426.193      2200.6851      3934.8755      16.7222        13.589         17.3161      
      1600   350.20114     -38427.851      1840.3423      3934.8755      16.7222        13.589         17.3161      
      1700   388.81256     -38339.82       11327.933      3934.8755      16.7222        13.589         17.3161      
      1800   360.84641     -38401.565      5955.3217      3934.8755      16.7222        13.589         17.3161      
      1900   321.08427     -38350.693     -2886.2923      3934.8755      16.7222        13.589         17.3161      
      2000   340.99253     -38354.521      1387.6017      3934.8755      16.7222        13.589         17.3161      
      2100   386.82226     -38402.464      2099.0067      3934.8755      16.7222        13.589         17.3161      
      2200   409.89068     -38383.846     -8831.2314      3934.8755      16.7222        13.589         17.3161      
      2300   321.32701     -38397.912      3433.1582      3934.8755      16.7222        13.589         17.3161      
      2400   424.45461     -38414.316      6549.1767      3934.8755      16.7222        13.589         17.3161      
      2500   402.08393     -38383.179      5320.1683      3934.8755      16.7222        13.589         17.3161      
      2600   371.38571     -38335.085     -6046.695       3934.8755      16.7222        13.589         17.3161      
      2700   358.9289      -38315.924     -961.67558      3934.8755      16.7222        13.589         17.3161      
      2800   379.65686     -38321.228     -7123.6686      3934.8755      16.7222        13.589         17.3161      
      2900   423.8645      -38475.872     -3846.0887      3934.8755      16.7222        13.589         17.3161      
      3000   312.46576     -38416.643      5726.0052      3934.8755      16.7222        13.589         17.3161      
      3100   327.20837     -38465.049     -4307.0759      3934.8755      16.7222        13.589         17.3161      
      3200   283.39401     -38450.683      6995.6788      3934.8755      16.7222        13.589         17.3161      
      3300   326.84643     -38470.133     -5328.4532      3934.8755      16.7222        13.589         17.3161      
      3400   298.62668     -38431.072     -4053.5416      3934.8755      16.7222        13.589         17.3161      
      3500   332.19026     -38515.89      -1361.5016      3934.8755      16.7222        13.589         17.3161      
      3600   307.53394     -38488.729     -8682.4977      3934.8755      16.7222        13.589         17.3161      
      3700   282.59141     -38429.178     -2553.7089      3934.8755      16.7222        13.589         17.3161      
      3800   307.61081     -38493.004     -7764.5375      3934.8755      16.7222        13.589         17.3161      
      3900   314.19005     -38491.981     -17620.638      3934.8755      16.7222        13.589         17.3161      
      4000   351.47414     -38498.773     -10277.649      3934.8755      16.7222        13.589         17.3161      
      4100   346.30546     -38502.008     -13918.022      3934.8755      16.7222        13.589         17.3161      
      4200   465.86217     -38427.043     -13798.987      3934.8755      16.7222        13.589         17.3161      
      4300   362.45453     -38354.076     -14218.018      3934.8755      16.7222        13.589         17.3161      
      4400   348.15143     -38316.165     -18270.331      3934.8755      16.7222        13.589         17.3161      
      4500   385.91379     -38401.33      -6011.3833      3934.8755      16.7222        13.589         17.3161      
      4600   337.66418     -38383.27      -10958.36       3934.8755      16.7222        13.589         17.3161      
      4700   305.93449     -38342.036     -16805.263      3934.8755      16.7222        13.589         17.3161      
      4800   299.98741     -38333.899     -18080.878      3934.8755      16.7222        13.589         17.3161      
      4900   379.29261     -38289.798     -21198.924      3934.8755      16.7222        13.589         17.3161      
      5000   404.62638     -38287.46      -11546.512      3934.8755      16.7222        13.589         17.3161      
Loop time of 265.538 on 16 procs for 5000 steps with 386 atoms

Performance: 0.813 ns/day, 29.504 hours/ns, 18.830 timesteps/s, 7.268 katom-step/s
99.5% CPU use with 8 MPI tasks x 2 OpenMP threads

MPI task timing breakdown:
Section |  min time  |  avg time  |  max time  |%varavg| %total
---------------------------------------------------------------
Pair    | 159.52     | 181.42     | 222.38     | 190.8 | 68.32
Bond    | 0.0012337  | 0.0015497  | 0.0018974  |   0.5 |  0.00
Neigh   | 13.516     | 15.544     | 19.424     |  61.2 |  5.85
Comm    | 2.9657     | 43.923     | 65.835     | 387.7 | 16.54
Output  | 0.014797   | 0.016556   | 0.017602   |   0.7 |  0.01
Modify  | 20.61      | 24.507     | 26.553     |  48.9 |  9.23
Other   |            | 0.1267     |            |       |  0.05

Nlocal:          48.25 ave          52 max          45 min
Histogram: 2 0 1 0 2 0 0 1 1 1
Nghost:        4798.62 ave        4823 max        4768 min
Histogram: 1 0 1 1 0 1 1 2 0 1
Neighs:          33079 ave       35423 max       30967 min
Histogram: 2 0 1 0 2 0 1 0 0 2

Total # of neighbors = 264632
Ave neighs/atom = 685.57513
Ave special neighs/atom = 0
Neighbor list builds = 500
Dangerous builds not checked
  using 2 OpenMP thread(s) per MPI task
Reading restart file ...
  restart file = 2 Aug 2023, LAMMPS = 2 Aug 2023
  restoring atom style full from restart
  triclinic box = (0 0 0) to (16.7222 13.589 17.3161) with tilt (-7.3464 -0.3071 -0.018)
WARNING: Triclinic box skew is large. LAMMPS will run inefficiently. (src/domain.cpp:220)
  2 by 2 by 2 MPI processor grid
  pair style reaxff stores no restart info
  386 atoms
Finding 1-2 1-3 1-4 neighbors ...
  special bond factors lj:    0        0        0       
  special bond factors coul:  0        0        0       
     0 = max # of 1-2 neighbors
     0 = max # of 1-3 neighbors
     0 = max # of 1-4 neighbors
     1 = max # of special neighbors
  special bonds CPU = 0.000 seconds
  read_restart CPU = 0.003 seconds
*****Positive-deform 5 starts.*****
WARNING: Van der Waals parameters for element SI indicate inner wall+shielding, but earlier atoms indicate a different van der Waals method. This may cause division-by-zero errors. Keeping van der Waals setting for earlier atoms. (src/REAXFF/reaxff_ffield.cpp:251)
Resetting global fix info from restart file:
  fix style: nvt, fix ID: fnvt
All restart file global fix info was re-assigned
Unused restart file peratom fix info:
  fix style: STORE/ATOM, fix ID: msd1_COMPUTE_STORE
Neighbor list info ...
  update: every = 10 steps, delay = 0 steps, check = no
  max neighbors/atom: 2000, page size: 100000
  master list distance cutoff = 12
  ghost atom cutoff = 12
  binsize = 6, bins = 5 3 3
  2 neighbor lists, perpetual/occasional/extra = 2 0 0
  (1) pair reaxff, perpetual
      attributes: half, newton off, ghost
      pair build: half/bin/newtoff/ghost
      stencil: full/ghost/bin/3d
      bin: standard
  (2) fix qeq/reaxff, perpetual, copy from (1)
      attributes: half, newton off
      pair build: copy
      stencil: none
      bin: none
Setting up Verlet run ...
  Unit style    : real
  Current step  : 0
  Time step     : 0.5
Per MPI rank memory allocation (min/avg/max) = 140 | 141.1 | 142.2 Mbytes
   Step          Temp          PotEng         Press          Volume           Lx             Ly             Lz      
         0   286.54918     -38561.921      3902.8493      3934.8755      16.7222        13.589         17.3161      
       100   312.48311     -38591.449      1423.399       3934.8755      16.7222        13.589         17.3161      
       200   396.98912     -38465.365      1861.0554      3934.8755      16.7222        13.589         17.3161      
       300   452.65477     -38468.92      -302.10713      3934.8755      16.7222        13.589         17.3161      
       400   425.98607     -38427.784     -7081.7367      3934.8755      16.7222        13.589         17.3161      
       500   384.01078     -38404.405     -7184.0491      3934.8755      16.7222        13.589         17.3161      
       600   350.68645     -38470.693      672.8542       3934.8755      16.7222        13.589         17.3161      
       700   356.97062     -38454.302     -8196.1701      3934.8755      16.7222        13.589         17.3161      
       800   337.6803      -38489.142      15275.205      3934.8755      16.7222        13.589         17.3161      
       900   358.47096     -38525.268      17764.917      3934.8755      16.7222        13.589         17.3161      
      1000   374.80734     -38523.709      11283.394      3934.8755      16.7222        13.589         17.3161      
      1100   368.31188     -38534.566     -1387.2801      3934.8755      16.7222        13.589         17.3161      
      1200   374.11484     -38568.72      -7984.7445      3934.8755      16.7222        13.589         17.3161      
      1300   321.92113     -38551.072      3209.7429      3934.8755      16.7222        13.589         17.3161      
      1400   287.64747     -38583.875      2998.2447      3934.8755      16.7222        13.589         17.3161      
      1500   316.56809     -38627.565      20537.351      3934.8755      16.7222        13.589         17.3161      
      1600   311.91553     -38660.401      18352.903      3934.8755      16.7222        13.589         17.3161      
      1700   319.35554     -38678.434      14674.631      3934.8755      16.7222        13.589         17.3161      
      1800   336.05839     -38633.874      14245.513      3934.8755      16.7222        13.589         17.3161      
      1900   304.45175     -38666.413      20375.696      3934.8755      16.7222        13.589         17.3161      
      2000   322.26383     -38680.837      9980.3846      3934.8755      16.7222        13.589         17.3161      
      2100   300.43484     -38665.65       17886.452      3934.8755      16.7222        13.589         17.3161      
      2200   277.18198     -38655.257      16462.924      3934.8755      16.7222        13.589         17.3161      
      2300   336.67984     -38663.548      23268.921      3934.8755      16.7222        13.589         17.3161      
      2400   298.35532     -38661.505      15537.188      3934.8755      16.7222        13.589         17.3161      
      2500   320.33207     -38695.852      13237.02       3934.8755      16.7222        13.589         17.3161      
      2600   351.92922     -38776.731      10398.816      3934.8755      16.7222        13.589         17.3161      
      2700   309.24428     -38755.323      21607.07       3934.8755      16.7222        13.589         17.3161      
      2800   320.7573      -38714.938      8720.6449      3934.8755      16.7222        13.589         17.3161      
      2900   368.31033     -38769.369      12522.527      3934.8755      16.7222        13.589         17.3161      
      3000   347.5671      -38827.143      31279.347      3934.8755      16.7222        13.589         17.3161      
      3100   324.64897     -38806.314      16212.561      3934.8755      16.7222        13.589         17.3161      
      3200   350.65544     -38874.888      13993.05       3934.8755      16.7222        13.589         17.3161      
      3300   311.33057     -38889.001      30968.417      3934.8755      16.7222        13.589         17.3161      
      3400   287.33928     -38896.526      9743.2604      3934.8755      16.7222        13.589         17.3161      
      3500   313.70399     -38893.663      16746.847      3934.8755      16.7222        13.589         17.3161      
      3600   310.04519     -38880.058      9750.8179      3934.8755      16.7222        13.589         17.3161      
      3700   336.66342     -38878.468      10045.043      3934.8755      16.7222        13.589         17.3161      
      3800   315.81243     -38851.709      15961.342      3934.8755      16.7222        13.589         17.3161      
      3900   291.05785     -38862.535      8636.8164      3934.8755      16.7222        13.589         17.3161      
      4000   306.13462     -38843.058      6945.0724      3934.8755      16.7222        13.589         17.3161      
      4100   301.44234     -38829.546      5913.6246      3934.8755      16.7222        13.589         17.3161      
      4200   333.69835     -38849.44       25023.268      3934.8755      16.7222        13.589         17.3161      
      4300   330.42509     -38880.302     -10320.208      3934.8755      16.7222        13.589         17.3161      
      4400   312.82493     -38888.544      11938.643      3934.8755      16.7222        13.589         17.3161      
      4500   342.8423      -38920.415      5567.3057      3934.8755      16.7222        13.589         17.3161      
      4600   302.67976     -38890.05       5778.071       3934.8755      16.7222        13.589         17.3161      
      4700   344.74599     -38871.9        6850.0865      3934.8755      16.7222        13.589         17.3161      
      4800   275.50653     -38782.62       8853.6901      3934.8755      16.7222        13.589         17.3161      
      4900   360.63375     -38797.07       10980.829      3934.8755      16.7222        13.589         17.3161      
      5000   378.50519     -38796.836      12695.878      3934.8755      16.7222        13.589         17.3161      
Loop time of 242.278 on 16 procs for 5000 steps with 386 atoms

Performance: 0.892 ns/day, 26.920 hours/ns, 20.637 timesteps/s, 7.966 katom-step/s
99.5% CPU use with 8 MPI tasks x 2 OpenMP threads

MPI task timing breakdown:
Section |  min time  |  avg time  |  max time  |%varavg| %total
---------------------------------------------------------------
Pair    | 146.01     | 159.33     | 203.02     | 156.8 | 65.76
Bond    | 0.0011534  | 0.0014331  | 0.0017886  |   0.6 |  0.00
Neigh   | 12.46      | 13.667     | 17.957     |  52.5 |  5.64
Comm    | 1.8019     | 45.519     | 58.812     | 293.5 | 18.79
Output  | 0.013378   | 0.015072   | 0.016255   |   0.7 |  0.01
Modify  | 19.347     | 23.633     | 24.866     |  39.8 |  9.75
Other   |            | 0.116      |            |       |  0.05

Nlocal:          48.25 ave          56 max          42 min
Histogram: 1 1 2 0 0 2 0 0 0 2
Nghost:        4035.38 ave        4075 max        4008 min
Histogram: 2 0 2 1 1 0 0 1 0 1
Neighs:        33054.8 ave       38051 max       28915 min
Histogram: 1 1 1 1 1 1 0 0 0 2

Total # of neighbors = 264438
Ave neighs/atom = 685.07254
Ave special neighs/atom = 0
Neighbor list builds = 500
Dangerous builds not checked
  using 2 OpenMP thread(s) per MPI task
Reading restart file ...
  restart file = 2 Aug 2023, LAMMPS = 2 Aug 2023
  restoring atom style full from restart
  triclinic box = (0 0 0) to (16.7222 13.589 17.3161) with tilt (-7.3464 -0.3071 -0.018)
WARNING: Triclinic box skew is large. LAMMPS will run inefficiently. (src/domain.cpp:220)
  2 by 2 by 2 MPI processor grid
  pair style reaxff stores no restart info
  386 atoms
Finding 1-2 1-3 1-4 neighbors ...
  special bond factors lj:    0        0        0       
  special bond factors coul:  0        0        0       
     0 = max # of 1-2 neighbors
     0 = max # of 1-3 neighbors
     0 = max # of 1-4 neighbors
     1 = max # of special neighbors
  special bonds CPU = 0.000 seconds
  read_restart CPU = 0.003 seconds
*****Positive-deform 6 starts.*****
WARNING: Van der Waals parameters for element SI indicate inner wall+shielding, but earlier atoms indicate a different van der Waals method. This may cause division-by-zero errors. Keeping van der Waals setting for earlier atoms. (src/REAXFF/reaxff_ffield.cpp:251)
Resetting global fix info from restart file:
  fix style: nvt, fix ID: fnvt
All restart file global fix info was re-assigned
Unused restart file peratom fix info:
  fix style: STORE/ATOM, fix ID: msd1_COMPUTE_STORE
Neighbor list info ...
  update: every = 10 steps, delay = 0 steps, check = no
  max neighbors/atom: 2000, page size: 100000
  master list distance cutoff = 12
  ghost atom cutoff = 12
  binsize = 6, bins = 5 3 3
  2 neighbor lists, perpetual/occasional/extra = 2 0 0
  (1) pair reaxff, perpetual
      attributes: half, newton off, ghost
      pair build: half/bin/newtoff/ghost
      stencil: full/ghost/bin/3d
      bin: standard
  (2) fix qeq/reaxff, perpetual, copy from (1)
      attributes: half, newton off
      pair build: copy
      stencil: none
      bin: none
Setting up Verlet run ...
  Unit style    : real
  Current step  : 0
  Time step     : 0.5
Per MPI rank memory allocation (min/avg/max) = 140 | 141.1 | 142.2 Mbytes
   Step          Temp          PotEng         Press          Volume           Lx             Ly             Lz      
         0   286.54918     -38561.921      3902.8493      3934.8755      16.7222        13.589         17.3161      
       100   311.88273     -38590.704      1710.629       3934.8755      16.7222        13.589         17.3161      
       200   391.49734     -38475.169     -5370.2389      3934.8755      16.7222        13.589         17.3161      
       300   478.69479     -38263.067     -8261.5323      3934.8755      16.7222        13.589         17.3161      
       400   507.90262     -38216.571     -13301.235      3934.8755      16.7222        13.589         17.3161      
       500   569.83228     -38263.559     -2431.2352      3934.8755      16.7222        13.589         17.3161      
       600   444.72766     -38264.835      3143.5338      3934.8755      16.7222        13.589         17.3161      
       700   434.86222     -38349.11       11865.289      3934.8755      16.7222        13.589         17.3161      
       800   436.25284     -38326.74      -1566.0832      3934.8755      16.7222        13.589         17.3161      
       900   383.38808     -38397.42       4150.2054      3934.8755      16.7222        13.589         17.3161      
      1000   309.99216     -38333.868     -10074.568      3934.8755      16.7222        13.589         17.3161      
      1100   375.4461      -38199.265      18804.265      3934.8755      16.7222        13.589         17.3161      
      1200   360.02195     -38270.694      4463.0739      3934.8755      16.7222        13.589         17.3161      
      1300   354.26312     -38338.915     -4531.097       3934.8755      16.7222        13.589         17.3161      
      1400   345.15661     -38339.282     -14844.549      3934.8755      16.7222        13.589         17.3161      
      1500   366.19623     -38367.816     -6866.3126      3934.8755      16.7222        13.589         17.3161      
      1600   368.16108     -38371.545      20532.457      3934.8755      16.7222        13.589         17.3161      
      1700   337.83524     -38406.797      15473.117      3934.8755      16.7222        13.589         17.3161      
      1800   362.13464     -38439.586      14759.157      3934.8755      16.7222        13.589         17.3161      
      1900   377.51783     -38258.857      10030.486      3934.8755      16.7222        13.589         17.3161      
      2000   351.46738     -38337.785      15081.961      3934.8755      16.7222        13.589         17.3161      
      2100   458.33594     -38402.973      5482.8372      3934.8755      16.7222        13.589         17.3161      
      2200   453.63949     -38355.483      19188.798      3934.8755      16.7222        13.589         17.3161      
      2300   412.42249     -38265.558      14610.296      3934.8755      16.7222        13.589         17.3161      
      2400   488.149       -38370.053      21982.684      3934.8755      16.7222        13.589         17.3161      
      2500   406.04617     -38412.93       13956.127      3934.8755      16.7222        13.589         17.3161      
      2600   413.68504     -38450.756      25138.615      3934.8755      16.7222        13.589         17.3161      
      2700   468.09663     -38355.581      17962.61       3934.8755      16.7222        13.589         17.3161      
      2800   425.98197     -38497.588      5487.3938      3934.8755      16.7222        13.589         17.3161      
      2900   399.44285     -38599.011      4934.768       3934.8755      16.7222        13.589         17.3161      
      3000   350.07175     -38626.789      11178.131      3934.8755      16.7222        13.589         17.3161      
      3100   361.37002     -38734.897     -9977.5595      3934.8755      16.7222        13.589         17.3161      
      3200   381.04977     -38772.374      15912.912      3934.8755      16.7222        13.589         17.3161      
      3300   376.2701      -38793.688      3117.0891      3934.8755      16.7222        13.589         17.3161      
      3400   335.50957     -38725.088      10589.677      3934.8755      16.7222        13.589         17.3161      
      3500   433.21271     -38770.793      18350.111      3934.8755      16.7222        13.589         17.3161      
      3600   335.41715     -38696.838      14131.791      3934.8755      16.7222        13.589         17.3161      
      3700   363.65106     -38766.776      17136.854      3934.8755      16.7222        13.589         17.3161      
      3800   376.67425     -38722.976      8080.1656      3934.8755      16.7222        13.589         17.3161      
      3900   328.89287     -38767.463      4750.9346      3934.8755      16.7222        13.589         17.3161      
      4000   328.94576     -38710.479      17719.716      3934.8755      16.7222        13.589         17.3161      
      4100   321.9198      -38678.112      2415.7417      3934.8755      16.7222        13.589         17.3161      
      4200   371.09376     -38689.284      11854.833      3934.8755      16.7222        13.589         17.3161      
      4300   369.53262     -38674.154      12839.088      3934.8755      16.7222        13.589         17.3161      
      4400   373.22191     -38707.294      11564.237      3934.8755      16.7222        13.589         17.3161      
      4500   323.19761     -38685.34       17624.917      3934.8755      16.7222        13.589         17.3161      
      4600   382.03797     -38748.281      19575.114      3934.8755      16.7222        13.589         17.3161      
      4700   382.31683     -38789.743      24110.766      3934.8755      16.7222        13.589         17.3161      
      4800   338.79823     -38808.559      22833.127      3934.8755      16.7222        13.589         17.3161      
      4900   331.2283      -38777.807      15008.736      3934.8755      16.7222        13.589         17.3161      
      5000   347.68434     -38718.232      29869.79       3934.8755      16.7222        13.589         17.3161      
Loop time of 168.805 on 16 procs for 5000 steps with 386 atoms

Performance: 1.280 ns/day, 18.756 hours/ns, 29.620 timesteps/s, 11.433 katom-step/s
99.6% CPU use with 8 MPI tasks x 2 OpenMP threads

MPI task timing breakdown:
Section |  min time  |  avg time  |  max time  |%varavg| %total
---------------------------------------------------------------
Pair    | 122.36     | 126.41     | 136.42     |  35.2 | 74.89
Bond    | 0.00098036 | 0.0012845  | 0.0016614  |   0.6 |  0.00
Neigh   | 11.63      | 11.827     | 12.769     |  10.6 |  7.01
Comm    | 2.8705     | 12.876     | 16.916     | 110.2 |  7.63
Output  | 0.010784   | 0.012341   | 0.013286   |   0.7 |  0.01
Modify  | 16.624     | 17.567     | 17.761     |   8.7 | 10.41
Other   |            | 0.108      |            |       |  0.06

Nlocal:          48.25 ave          55 max          38 min
Histogram: 1 0 0 0 0 4 0 1 1 1
Nghost:        3634.12 ave        3688 max        3592 min
Histogram: 2 0 1 0 1 2 1 0 0 1
Neighs:        32966.9 ave       37207 max       26407 min
Histogram: 1 0 0 0 0 3 1 1 1 1

Total # of neighbors = 263735
Ave neighs/atom = 683.2513
Ave special neighs/atom = 0
Neighbor list builds = 500
Dangerous builds not checked
Total wall time: 0:23:25
