LAMMPS (2 Aug 2023 - Update 2)
  using 2 OpenMP thread(s) per MPI task
Reading data file ...
  triclinic box = (0 0 0) to (15.4861 14.0699 16.771) with tilt (-7.3915 0.9919 1.0308)
WARNING: Triclinic box skew is large. LAMMPS will run inefficiently. (src/domain.cpp:220)
  2 by 2 by 2 MPI processor grid
  reading atoms ...
  274 atoms
Finding 1-2 1-3 1-4 neighbors ...
  special bond factors lj:    0        0        0       
  special bond factors coul:  0        0        0       
     0 = max # of 1-2 neighbors
     0 = max # of 1-3 neighbors
     0 = max # of 1-4 neighbors
     1 = max # of special neighbors
  special bonds CPU = 0.001 seconds
  read_data CPU = 0.006 seconds
*****Minimization starts.*****

CITE-CITE-CITE-CITE-CITE-CITE-CITE-CITE-CITE-CITE-CITE-CITE-CITE

Your simulation uses code contributions which should be cited:
- pair reaxff command: doi:10.1016/j.parco.2011.08.005
- fix qeq/reaxff command: doi:10.1016/j.parco.2011.08.005
The log file lists these citations in BibTeX format.

CITE-CITE-CITE-CITE-CITE-CITE-CITE-CITE-CITE-CITE-CITE-CITE-CITE

WARNING: Fix qeq/reaxff group is not charge neutral, net charge = -8.2 (src/REAXFF/fix_qeq_reaxff.cpp:392)
Neighbor list info ...
  update: every = 1 steps, delay = 0 steps, check = yes
  max neighbors/atom: 2000, page size: 100000
  master list distance cutoff = 12
  ghost atom cutoff = 12
  binsize = 6, bins = 4 3 3
  2 neighbor lists, perpetual/occasional/extra = 2 0 0
  (1) pair reaxff, perpetual
      attributes: half, newton off, ghost
      pair build: half/bin/newtoff/ghost
      stencil: full/ghost/bin/3d
      bin: standard
  (2) fix qeq/reaxff, perpetual, copy from (1)
      attributes: half, newton off
      pair build: copy
      stencil: none
      bin: none
Setting up cg style minimization ...
  Unit style    : real
  Current step  : 0
Per MPI rank memory allocation (min/avg/max) = 105.4 | 106 | 106.7 Mbytes
   Step          Temp          E_pair         E_mol          TotEng         Press     
         0   0             -29318.373      0             -29318.373      53002.06     
        66   0             -32073.984      0             -32073.984     -7984.4791    
Loop time of 5.12923 on 16 procs for 66 steps with 274 atoms

97.0% CPU use with 8 MPI tasks x 2 OpenMP threads

Minimization stats:
  Stopping criterion = energy tolerance
  Energy initial, next-to-last, final = 
     -29318.3732134684   -32073.952334451  -32073.9836226617
  Force two-norm initial, final = 1919.8576 86.923659
  Force max component initial, final = 252.2791 27.187631
  Final line search alpha, max atom move = 2.7456645e-05 0.00074648111
  Iterations, force evaluations = 66 156

MPI task timing breakdown:
Section |  min time  |  avg time  |  max time  |%varavg| %total
---------------------------------------------------------------
Pair    | 3.0014     | 3.6639     | 3.9161     |  18.0 | 71.43
Bond    | 6.6607e-05 | 7.49e-05   | 8.8164e-05 |   0.0 |  0.00
Neigh   | 0.016883   | 0.02252    | 0.024898   |   1.5 |  0.44
Comm    | 0.25758    | 0.50599    | 1.1682     |  48.5 |  9.86
Output  | 0          | 0          | 0          |   0.0 |  0.00
Modify  | 0.9232     | 0.92721    | 0.93457    |   0.3 | 18.08
Other   |            | 0.009483   |            |       |  0.18

Nlocal:          34.25 ave          41 max          28 min
Histogram: 1 0 1 2 1 1 0 0 0 2
Nghost:        2610.12 ave        2635 max        2589 min
Histogram: 2 0 1 1 1 0 1 0 1 1
Neighs:        18008.2 ave       21404 max       14861 min
Histogram: 1 0 1 1 2 1 0 0 0 2

Total # of neighbors = 144066
Ave neighs/atom = 525.78832
Ave special neighs/atom = 0
Neighbor list builds = 1
Dangerous builds = 0
System init for write_data ...
WARNING: New thermo_style command, previous thermo_modify settings will be lost (src/output.cpp:903)
Neighbor list info ...
  update: every = 10 steps, delay = 0 steps, check = no
  max neighbors/atom: 2000, page size: 100000
  master list distance cutoff = 12
  ghost atom cutoff = 12
  binsize = 6, bins = 4 3 3
  2 neighbor lists, perpetual/occasional/extra = 2 0 0
  (1) pair reaxff, perpetual
      attributes: half, newton off, ghost
      pair build: half/bin/newtoff/ghost
      stencil: full/ghost/bin/3d
      bin: standard
  (2) fix qeq/reaxff, perpetual, copy from (1)
      attributes: half, newton off
      pair build: copy
      stencil: none
      bin: none
Setting up Verlet run ...
  Unit style    : real
  Current step  : 0
  Time step     : 0.5
Per MPI rank memory allocation (min/avg/max) = 103.8 | 104.4 | 105.1 Mbytes
   Step          Temp          PotEng         Press         Density         Volume    
         0   300           -32073.984     -4930.4314      1.3867102      3654.1976    
       100   242.52512     -31996.601     -2922.133       1.3867102      3654.1976    
       200   302.76544     -32005.468     -3478.1954      1.3867102      3654.1976    
       300   357.60424     -32034.959      7350.4016      1.3867102      3654.1976    
       400   312.76353     -32045.654     -6322.677       1.3867102      3654.1976    
       500   299.54137     -32067.047      7269.6603      1.3867102      3654.1976    
       600   314.46835     -32103.241     -13788.719      1.3867102      3654.1976    
       700   323.5262      -32132.462     -18472.21       1.3867102      3654.1976    
       800   328.4083      -32162.392     -14514.91       1.3867102      3654.1976    
       900   284.84809     -32143.288     -9734.2697      1.3867102      3654.1976    
      1000   272.54566     -32131.265     -10475.058      1.3867102      3654.1976    
      1100   303.19759     -32131.252     -14158.245      1.3867102      3654.1976    
      1200   307.14252     -32133.834     -11064.63       1.3867102      3654.1976    
      1300   304.27677     -32150.229     -5408.7826      1.3867102      3654.1976    
      1400   304.51043     -32158.298     -15333.802      1.3867102      3654.1976    
      1500   287.1955      -32145.841     -6279.6649      1.3867102      3654.1976    
      1600   281.57553     -32130.414     -11695.946      1.3867102      3654.1976    
      1700   320.29593     -32131.544     -8895.1374      1.3867102      3654.1976    
      1800   332.56632     -32149.668     -4338.249       1.3867102      3654.1976    
      1900   326.63643     -32166.91      -16760.042      1.3867102      3654.1976    
      2000   293.73397     -32159.168     -18337.285      1.3867102      3654.1976    
      2100   296.15623     -32165.415     -8767.5551      1.3867102      3654.1976    
      2200   303.36412     -32165.3       -11727.677      1.3867102      3654.1976    
      2300   314.07946     -32147.636     -8039.9518      1.3867102      3654.1976    
      2400   326.06947     -32151.344     -3498.093       1.3867102      3654.1976    
      2500   309.008       -32177.257     -9490.3163      1.3867102      3654.1976    
      2600   309.05394     -32189.09      -6054.4891      1.3867102      3654.1976    
      2700   283.56429     -32175.87      -19116.613      1.3867102      3654.1976    
      2800   291.1842      -32186.254     -21907.788      1.3867102      3654.1976    
      2900   293.88752     -32186.328     -18885.694      1.3867102      3654.1976    
      3000   307.3555      -32172.271     -19995.496      1.3867102      3654.1976    
      3100   295.69578     -32152.546     -18115.053      1.3867102      3654.1976    
      3200   321.31279     -32169.553     -7888.4509      1.3867102      3654.1976    
      3300   292.21933     -32186.218     -14825.823      1.3867102      3654.1976    
      3400   275.51811     -32185.155     -5785.2436      1.3867102      3654.1976    
      3500   301.76202     -32194.497     -451.19227      1.3867102      3654.1976    
      3600   319.46525     -32189.791     -4984.8238      1.3867102      3654.1976    
      3700   298.34846     -32166.055     -10610.375      1.3867102      3654.1976    
      3800   316.79597     -32200.215     -11161.028      1.3867102      3654.1976    
      3900   307.33228     -32218.628     -14500.595      1.3867102      3654.1976    
      4000   305.31304     -32215.613     -19228.546      1.3867102      3654.1976    
      4100   305.31018     -32205.463     -16262.91       1.3867102      3654.1976    
      4200   319.43224     -32204.655     -20590.388      1.3867102      3654.1976    
      4300   336.92415     -32205.86      -20755.723      1.3867102      3654.1976    
      4400   304.83955     -32175.873     -22095.69       1.3867102      3654.1976    
      4500   293.11291     -32188.58      -3563.836       1.3867102      3654.1976    
      4600   288.68469     -32203.235     -4159.0242      1.3867102      3654.1976    
      4700   288.2783      -32200.523     -12956.397      1.3867102      3654.1976    
      4800   286.82049     -32180.622     -17673.163      1.3867102      3654.1976    
      4900   324.43785     -32187.665     -4676.2664      1.3867102      3654.1976    
      5000   313.78569     -32192.872     -10486.185      1.3867102      3654.1976    
Loop time of 179.882 on 16 procs for 5000 steps with 274 atoms

Performance: 1.201 ns/day, 19.987 hours/ns, 27.796 timesteps/s, 7.616 katom-step/s
99.4% CPU use with 8 MPI tasks x 2 OpenMP threads

MPI task timing breakdown:
Section |  min time  |  avg time  |  max time  |%varavg| %total
---------------------------------------------------------------
Pair    | 129.72     | 133.59     | 138.33     |  25.5 | 74.26
Bond    | 0.0015346  | 0.0018592  | 0.0021086  |   0.4 |  0.00
Neigh   | 10.66      | 11.05      | 11.322     |   5.6 |  6.14
Comm    | 12.305     | 17.167     | 21.078     |  71.7 |  9.54
Output  | 0.0030691  | 0.0037338  | 0.0082481  |   2.8 |  0.00
Modify  | 16.711     | 17.143     | 17.718     |   7.1 |  9.53
Other   |            | 0.9279     |            |       |  0.52

Nlocal:          34.25 ave          37 max          30 min
Histogram: 2 0 0 0 0 2 0 0 2 2
Nghost:        2602.88 ave        2645 max        2568 min
Histogram: 2 2 0 0 0 0 1 1 0 2
Neighs:        17965.8 ave       19340 max       15859 min
Histogram: 2 0 0 0 0 2 0 0 2 2

Total # of neighbors = 143726
Ave neighs/atom = 524.54745
Ave special neighs/atom = 0
Neighbor list builds = 500
Dangerous builds not checked
System init for write_data ...
System init for write_restart ...
  using 2 OpenMP thread(s) per MPI task
Reading restart file ...
  restart file = 2 Aug 2023, LAMMPS = 2 Aug 2023
  restoring atom style full from restart
  triclinic box = (0 0 0) to (15.4861 14.0699 16.771) with tilt (-7.3915 0.9919 1.0308)
WARNING: Triclinic box skew is large. LAMMPS will run inefficiently. (src/domain.cpp:220)
  2 by 2 by 2 MPI processor grid
  pair style reaxff stores no restart info
  274 atoms
Finding 1-2 1-3 1-4 neighbors ...
  special bond factors lj:    0        0        0       
  special bond factors coul:  0        0        0       
     0 = max # of 1-2 neighbors
     0 = max # of 1-3 neighbors
     0 = max # of 1-4 neighbors
     1 = max # of special neighbors
  special bonds CPU = 0.001 seconds
  read_restart CPU = 0.005 seconds
*****debug*****
xy = -7.3914999999999997371, deltaxy = 0.73915
xz = 0.99190000000000000391, deltaxz = -0.09919
yz = 1.0307999999999999385, deltayz = -0.10308
*****
*****Negative-deform 1 starts.*****
Resetting global fix info from restart file:
  fix style: nvt, fix ID: fnvt
All restart file global fix info was re-assigned
Neighbor list info ...
  update: every = 10 steps, delay = 0 steps, check = no
  max neighbors/atom: 2000, page size: 100000
  master list distance cutoff = 12
  ghost atom cutoff = 12
  binsize = 6, bins = 4 3 3
  2 neighbor lists, perpetual/occasional/extra = 2 0 0
  (1) pair reaxff, perpetual
      attributes: half, newton off, ghost
      pair build: half/bin/newtoff/ghost
      stencil: full/ghost/bin/3d
      bin: standard
  (2) fix qeq/reaxff, perpetual, copy from (1)
      attributes: half, newton off
      pair build: copy
      stencil: none
      bin: none
Setting up Verlet run ...
  Unit style    : real
  Current step  : 0
  Time step     : 0.5
Per MPI rank memory allocation (min/avg/max) = 102 | 103 | 104.3 Mbytes
   Step          Temp          PotEng         Press          Volume           Lx             Ly             Lz      
         0   313.78569     -32192.872     -10486.184      3654.1976      15.4861        14.0699        16.771       
       100   294.09077     -32212.903     -12317.167      3646.8892      15.455128      14.0699        16.771       
       200   311.94184     -32229.673     -390.20999      3639.5808      15.424156      14.0699        16.771       
       300   294.30432     -32215.919      1156.284       3632.2724      15.393183      14.0699        16.771       
       400   299.96937     -32213.879     -7916.0766      3624.964       15.362211      14.0699        16.771       
       500   307.56397     -32206.084      1184.7725      3617.6556      15.331239      14.0699        16.771       
       600   301.36982     -32194.571     -11366.476      3610.3472      15.300267      14.0699        16.771       
       700   321.64473     -32230.663     -7685.7158      3603.0388      15.269295      14.0699        16.771       
       800   289.82095     -32224.246     -121.56841      3595.7304      15.238322      14.0699        16.771       
       900   300.70057     -32238.735     -17644.413      3588.4221      15.20735       14.0699        16.771       
      1000   293.38743     -32229.856     -8395.4819      3581.1137      15.176378      14.0699        16.771       
      1100   291.28051     -32209.273     -2232.4037      3573.8053      15.145406      14.0699        16.771       
      1200   319.5905      -32196.91      -5858.7365      3566.4969      15.114434      14.0699        16.771       
      1300   306.78873     -32188.421     -11166.655      3559.1885      15.083461      14.0699        16.771       
      1400   315.37459     -32225.927     -4680.1078      3551.8801      15.052489      14.0699        16.771       
      1500   281.42431     -32213.004      1645.7405      3544.5717      15.021517      14.0699        16.771       
      1600   304.30659     -32233.285     -8440.2623      3537.2633      14.990545      14.0699        16.771       
      1700   308.68369     -32240.957      1066.2899      3529.9549      14.959573      14.0699        16.771       
      1800   290.15346     -32242.757      4651.4597      3522.6465      14.9286        14.0699        16.771       
      1900   284.25006     -32236.329     -10835.209      3515.3381      14.897628      14.0699        16.771       
      2000   285.77728     -32213.395     -16874.102      3508.0297      14.866656      14.0699        16.771       
      2100   324.9891      -32235.615     -12178.452      3500.7213      14.835684      14.0699        16.771       
      2200   304.86139     -32222.42      -7375.81        3493.4129      14.804712      14.0699        16.771       
      2300   312.64444     -32230.553     -484.9417       3486.1045      14.773739      14.0699        16.771       
      2400   302.54587     -32228.867     -1565.3735      3478.7961      14.742767      14.0699        16.771       
      2500   298.75912     -32241.159     -7021.7232      3471.4877      14.711795      14.0699        16.771       
      2600   291.84136     -32237.762      1021.2295      3464.1793      14.680823      14.0699        16.771       
      2700   282.54555     -32214.67      -4644.9388      3456.8709      14.649851      14.0699        16.771       
      2800   311.58416     -32231.413      7381.8354      3449.5625      14.618878      14.0699        16.771       
      2900   295.34902     -32227.88       5027.7014      3442.2541      14.587906      14.0699        16.771       
      3000   296.98744     -32239.568      7127.2214      3434.9458      14.556934      14.0699        16.771       
      3100   307.96723     -32248.032     -8798.3184      3427.6374      14.525962      14.0699        16.771       
      3200   313.77963     -32247.87       2460.9651      3420.329       14.49499       14.0699        16.771       
      3300   304.87808     -32238.81      -1032.9659      3413.0206      14.464017      14.0699        16.771       
      3400   312.15851     -32241.621      7373.692       3405.7122      14.433045      14.0699        16.771       
      3500   313.10008     -32235.91      -878.75505      3398.4038      14.402073      14.0699        16.771       
      3600   298.31623     -32245.354     -745.87078      3391.0954      14.371101      14.0699        16.771       
      3700   299.00853     -32259.434     -3749.912       3383.787       14.340129      14.0699        16.771       
      3800   291.10007     -32242.516      3527.636       3376.4786      14.309156      14.0699        16.771       
      3900   298.93627     -32228.318      4734.0139      3369.1702      14.278184      14.0699        16.771       
      4000   302.12114     -32213.896      4555.2802      3361.8618      14.247212      14.0699        16.771       
      4100   309.32324     -32217.379     -8258.8859      3354.5534      14.21624       14.0699        16.771       
      4200   302.94833     -32222.358     -97.882257      3347.245       14.185268      14.0699        16.771       
      4300   311.05472     -32240.004      124.67298      3339.9366      14.154295      14.0699        16.771       
      4400   294.34335     -32238.835      4073.7364      3332.6282      14.123323      14.0699        16.771       
      4500   299.79327     -32245.383     -4879.765       3325.3198      14.092351      14.0699        16.771       
      4600   315.05034     -32243.233     -4121.2774      3318.0114      14.061379      14.0699        16.771       
      4700   304.52657     -32250.282      7351.1049      3310.703       14.030407      14.0699        16.771       
      4800   289.97074     -32253.645      1262.9878      3303.3946      13.999434      14.0699        16.771       
      4900   288.13869     -32241.428     -2180.1514      3296.0862      13.968462      14.0699        16.771       
      5000   296.20671     -32225.19       15577.178      3288.7778      13.93749       14.0699        16.771       
Loop time of 194.031 on 16 procs for 5000 steps with 274 atoms

Performance: 1.113 ns/day, 21.559 hours/ns, 25.769 timesteps/s, 7.061 katom-step/s
99.3% CPU use with 8 MPI tasks x 2 OpenMP threads

MPI task timing breakdown:
Section |  min time  |  avg time  |  max time  |%varavg| %total
---------------------------------------------------------------
Pair    | 142.16     | 145.51     | 149.55     |  20.1 | 74.99
Bond    | 0.0015091  | 0.001884   | 0.0021422  |   0.4 |  0.00
Neigh   | 11.434     | 11.658     | 11.978     |   4.6 |  6.01
Comm    | 13.506     | 17.423     | 20.638     |  58.7 |  8.98
Output  | 0.030328   | 0.036277   | 0.041992   |   2.2 |  0.02
Modify  | 18.034     | 18.502     | 18.893     |   5.9 |  9.54
Other   |            | 0.9026     |            |       |  0.47

Nlocal:          34.25 ave          38 max          29 min
Histogram: 1 0 1 0 1 1 1 0 2 1
Nghost:        2793.88 ave        2829 max        2763 min
Histogram: 1 1 1 0 1 1 2 0 0 1
Neighs:        19986.9 ave       22114 max       17012 min
Histogram: 1 0 1 0 1 1 1 0 2 1

Total # of neighbors = 159895
Ave neighs/atom = 583.55839
Ave special neighs/atom = 0
Neighbor list builds = 500
Dangerous builds not checked
  using 2 OpenMP thread(s) per MPI task
Reading restart file ...
  restart file = 2 Aug 2023, LAMMPS = 2 Aug 2023
  restoring atom style full from restart
  triclinic box = (0 0 0) to (15.4861 14.0699 16.771) with tilt (-7.3915 0.9919 1.0308)
WARNING: Triclinic box skew is large. LAMMPS will run inefficiently. (src/domain.cpp:220)
  2 by 2 by 2 MPI processor grid
  pair style reaxff stores no restart info
  274 atoms
Finding 1-2 1-3 1-4 neighbors ...
  special bond factors lj:    0        0        0       
  special bond factors coul:  0        0        0       
     0 = max # of 1-2 neighbors
     0 = max # of 1-3 neighbors
     0 = max # of 1-4 neighbors
     1 = max # of special neighbors
  special bonds CPU = 0.000 seconds
  read_restart CPU = 0.003 seconds
*****Positive-deform 1 starts.*****
Resetting global fix info from restart file:
  fix style: nvt, fix ID: fnvt
All restart file global fix info was re-assigned
Neighbor list info ...
  update: every = 10 steps, delay = 0 steps, check = no
  max neighbors/atom: 2000, page size: 100000
  master list distance cutoff = 12
  ghost atom cutoff = 12
  binsize = 6, bins = 4 3 3
  2 neighbor lists, perpetual/occasional/extra = 2 0 0
  (1) pair reaxff, perpetual
      attributes: half, newton off, ghost
      pair build: half/bin/newtoff/ghost
      stencil: full/ghost/bin/3d
      bin: standard
  (2) fix qeq/reaxff, perpetual, copy from (1)
      attributes: half, newton off
      pair build: copy
      stencil: none
      bin: none
Setting up Verlet run ...
  Unit style    : real
  Current step  : 0
  Time step     : 0.5
Per MPI rank memory allocation (min/avg/max) = 102 | 103.1 | 104.3 Mbytes
   Step          Temp          PotEng         Press          Volume           Lx             Ly             Lz      
         0   313.78569     -32192.872     -10486.184      3654.1976      15.4861        14.0699        16.771       
       100   294.37328     -32213.355     -11975.714      3661.506       15.517072      14.0699        16.771       
       200   309.03917     -32224.905     -7887.0448      3668.8144      15.548044      14.0699        16.771       
       300   292.68903     -32207.933     -2772.8335      3676.1228      15.579017      14.0699        16.771       
       400   295.75856     -32201.928     -11671.121      3683.4312      15.609989      14.0699        16.771       
       500   305.52506     -32195.041     -6029.5855      3690.7396      15.640961      14.0699        16.771       
       600   324.55541     -32199.524     -8694.7036      3698.048       15.671933      14.0699        16.771       
       700   298.21068     -32192.718     -16532.67       3705.3564      15.702905      14.0699        16.771       
       800   296.19217     -32206.465     -8520.9742      3712.6648      15.733878      14.0699        16.771       
       900   298.84965     -32210.649     -13962.348      3719.9732      15.76485       14.0699        16.771       
      1000   305.31889     -32215.449     -17854.06       3727.2816      15.795822      14.0699        16.771       
      1100   328.1538      -32198.523     -16806.557      3734.59        15.826794      14.0699        16.771       
      1200   327.6931      -32174.042     -11223.373      3741.8984      15.857766      14.0699        16.771       
      1300   328.5942      -32180.854     -18751.572      3749.2067      15.888739      14.0699        16.771       
      1400   317.03058     -32187.759     -17133.997      3756.5151      15.919711      14.0699        16.771       
      1500   295.7113      -32178.628     -21752.616      3763.8235      15.950683      14.0699        16.771       
      1600   285.98407     -32172.421     -14988.59       3771.1319      15.981655      14.0699        16.771       
      1700   281.48769     -32170.571     -16124.84       3778.4403      16.012627      14.0699        16.771       
      1800   296.99967     -32180.383     -26873.437      3785.7487      16.0436        14.0699        16.771       
      1900   287.59705     -32180.346     -18963.15       3793.0571      16.074572      14.0699        16.771       
      2000   271.74864     -32178.162     -27444.123      3800.3655      16.105544      14.0699        16.771       
      2100   306.68037     -32180.625     -18225.836      3807.6739      16.136516      14.0699        16.771       
      2200   306.92677     -32155.003     -28685.779      3814.9823      16.167488      14.0699        16.771       
      2300   312.74864     -32158.742     -22569.466      3822.2907      16.198461      14.0699        16.771       
      2400   285.42005     -32148.662     -24667.175      3829.5991      16.229433      14.0699        16.771       
      2500   312.15132     -32172.025     -22188.766      3836.9075      16.260405      14.0699        16.771       
      2600   295.69404     -32150.058     -9184.7771      3844.2159      16.291377      14.0699        16.771       
      2700   310.06097     -32157.27      -27942.395      3851.5243      16.322349      14.0699        16.771       
      2800   282.70805     -32161.238     -15452.943      3858.8327      16.353322      14.0699        16.771       
      2900   279.84054     -32149.573     -28259.25       3866.1411      16.384294      14.0699        16.771       
      3000   332.05284     -32165.895     -22995.996      3873.4495      16.415266      14.0699        16.771       
      3100   312.23909     -32133.014     -20884.873      3880.7579      16.446238      14.0699        16.771       
      3200   307.11323     -32132.938     -28376.435      3888.0663      16.47721       14.0699        16.771       
      3300   278.8771      -32129.61      -32582.632      3895.3747      16.508183      14.0699        16.771       
      3400   291.59112     -32133.495     -26375.147      3902.683       16.539155      14.0699        16.771       
      3500   294.75459     -32114.278     -25561.129      3909.9914      16.570127      14.0699        16.771       
      3600   313.65775     -32094.818     -19639.826      3917.2998      16.601099      14.0699        16.771       
      3700   298.077       -32081.661     -20832.374      3924.6082      16.632071      14.0699        16.771       
      3800   279.08821     -32075.122     -28738.148      3931.9166      16.663044      14.0699        16.771       
      3900   317.47319     -32109.411     -27125.886      3939.225       16.694016      14.0699        16.771       
      4000   292.88752     -32089.91      -26329.117      3946.5334      16.724988      14.0699        16.771       
      4100   293.65264     -32103.708     -12577.659      3953.8418      16.75596       14.0699        16.771       
      4200   295.42393     -32128.877     -19249.079      3961.1502      16.786932      14.0699        16.771       
      4300   289.27574     -32115.053     -21926.782      3968.4586      16.817905      14.0699        16.771       
      4400   312.31379     -32111.959     -22053.92       3975.767       16.848877      14.0699        16.771       
      4500   325.5306      -32098.421     -14992.342      3983.0754      16.879849      14.0699        16.771       
      4600   320.6871      -32101.704     -21454.218      3990.3838      16.910821      14.0699        16.771       
      4700   310.37109     -32118.848     -11002.391      3997.6922      16.941793      14.0699        16.771       
      4800   284.10973     -32097.429     -25440.945      4005.0006      16.972766      14.0699        16.771       
      4900   292.13358     -32094.355     -17160.18       4012.309       17.003738      14.0699        16.771       
      5000   301.32081     -32078.267     -26249.365      4019.6174      17.03471       14.0699        16.771       
Loop time of 172.441 on 16 procs for 5000 steps with 274 atoms

Performance: 1.253 ns/day, 19.160 hours/ns, 28.995 timesteps/s, 7.945 katom-step/s
99.3% CPU use with 8 MPI tasks x 2 OpenMP threads

MPI task timing breakdown:
Section |  min time  |  avg time  |  max time  |%varavg| %total
---------------------------------------------------------------
Pair    | 124.27     | 127.37     | 130.6      |  17.8 | 73.86
Bond    | 0.0015432  | 0.0018861  | 0.002184   |   0.5 |  0.00
Neigh   | 8.8425     | 9.0487     | 9.2251     |   4.4 |  5.25
Comm    | 14.102     | 17.341     | 20.43      |  48.6 | 10.06
Output  | 0.032653   | 0.038759   | 0.04479    |   2.2 |  0.02
Modify  | 17.54      | 17.73      | 17.943     |   3.3 | 10.28
Other   |            | 0.9123     |            |       |  0.53

Nlocal:          34.25 ave          39 max          30 min
Histogram: 1 1 1 1 1 0 1 0 0 2
Nghost:         2453.5 ave        2497 max        2404 min
Histogram: 1 0 1 1 1 1 1 0 1 1
Neighs:        16326.9 ave       18491 max       14469 min
Histogram: 1 1 1 1 1 0 1 0 0 2

Total # of neighbors = 130615
Ave neighs/atom = 476.69708
Ave special neighs/atom = 0
Neighbor list builds = 500
Dangerous builds not checked
  using 2 OpenMP thread(s) per MPI task
Reading restart file ...
  restart file = 2 Aug 2023, LAMMPS = 2 Aug 2023
  restoring atom style full from restart
  triclinic box = (0 0 0) to (15.4861 14.0699 16.771) with tilt (-7.3915 0.9919 1.0308)
WARNING: Triclinic box skew is large. LAMMPS will run inefficiently. (src/domain.cpp:220)
  2 by 2 by 2 MPI processor grid
  pair style reaxff stores no restart info
  274 atoms
Finding 1-2 1-3 1-4 neighbors ...
  special bond factors lj:    0        0        0       
  special bond factors coul:  0        0        0       
     0 = max # of 1-2 neighbors
     0 = max # of 1-3 neighbors
     0 = max # of 1-4 neighbors
     1 = max # of special neighbors
  special bonds CPU = 0.000 seconds
  read_restart CPU = 0.003 seconds
*****debug*****
xy = -7.3914999999999997371, deltaxy = 0.73915
xz = 0.99190000000000000391, deltaxz = -0.09919
yz = 1.0307999999999999385, deltayz = -0.10308
*****
*****Negative-deform 2 starts.*****
Resetting global fix info from restart file:
  fix style: nvt, fix ID: fnvt
All restart file global fix info was re-assigned
Neighbor list info ...
  update: every = 10 steps, delay = 0 steps, check = no
  max neighbors/atom: 2000, page size: 100000
  master list distance cutoff = 12
  ghost atom cutoff = 12
  binsize = 6, bins = 4 3 3
  2 neighbor lists, perpetual/occasional/extra = 2 0 0
  (1) pair reaxff, perpetual
      attributes: half, newton off, ghost
      pair build: half/bin/newtoff/ghost
      stencil: full/ghost/bin/3d
      bin: standard
  (2) fix qeq/reaxff, perpetual, copy from (1)
      attributes: half, newton off
      pair build: copy
      stencil: none
      bin: none
Setting up Verlet run ...
  Unit style    : real
  Current step  : 0
  Time step     : 0.5
Per MPI rank memory allocation (min/avg/max) = 102 | 103 | 104.3 Mbytes
   Step          Temp          PotEng         Press          Volume           Lx             Ly             Lz      
         0   313.78569     -32192.872     -10486.184      3654.1976      15.4861        14.0699        16.771       
       100   294.37341     -32213.006     -12196.044      3646.8892      15.4861        14.04176       16.771       
       200   310.88899     -32227.275     -6606.9477      3639.5808      15.4861        14.01362       16.771       
       300   293.48836     -32216.311      1659.6266      3632.2724      15.4861        13.985481      16.771       
       400   297.00068     -32211.315     -16917.547      3624.964       15.4861        13.957341      16.771       
       500   300.77561     -32207.867     -7686.2553      3617.6556      15.4861        13.929201      16.771       
       600   294.86298     -32212.731     -13803.199      3610.3472      15.4861        13.901061      16.771       
       700   289.12913     -32223.077     -9655.5561      3603.0388      15.4861        13.872921      16.771       
       800   283.21552     -32212.228     -18785.433      3595.7304      15.4861        13.844782      16.771       
       900   322.83026     -32222.978     -6058.7774      3588.4221      15.4861        13.816642      16.771       
      1000   312.56795     -32183.61      -16186.409      3581.1137      15.4861        13.788502      16.771       
      1100   312.00257     -32198.959     -1854.1595      3573.8053      15.4861        13.760362      16.771       
      1200   284.59935     -32198.976      1139.2245      3566.4969      15.4861        13.732222      16.771       
      1300   321.90714     -32230.101      2935.3211      3559.1885      15.4861        13.704083      16.771       
      1400   292.87537     -32223.771      1170.8638      3551.8801      15.4861        13.675943      16.771       
      1500   288.86266     -32233.315     -6521.7477      3544.5717      15.4861        13.647803      16.771       
      1600   281.94296     -32225.352      4641.2435      3537.2633      15.4861        13.619663      16.771       
      1700   296.4742      -32214.797     -9131.419       3529.9549      15.4861        13.591523      16.771       
      1800   332.06394     -32211.578      7004.4131      3522.6465      15.4861        13.563384      16.771       
      1900   295.5162      -32196.837     -3869.9413      3515.3381      15.4861        13.535244      16.771       
      2000   303.02907     -32212.721     -7912.8112      3508.0297      15.4861        13.507104      16.771       
      2100   293.76892     -32216.446     -10552.66       3500.7213      15.4861        13.478964      16.771       
      2200   293.71761     -32228.639      960.03395      3493.4129      15.4861        13.450824      16.771       
      2300   293.38947     -32224.538     -16865.387      3486.1045      15.4861        13.422685      16.771       
      2400   318.3078      -32222.796     -9403.6873      3478.7961      15.4861        13.394545      16.771       
      2500   331.52052     -32221.475     -10801.155      3471.4877      15.4861        13.366405      16.771       
      2600   296.65187     -32208.582      695.95721      3464.1793      15.4861        13.338265      16.771       
      2700   328.75263     -32252.053      6264.9982      3456.8709      15.4861        13.310125      16.771       
      2800   315.20282     -32245.24      -3505.3696      3449.5625      15.4861        13.281986      16.771       
      2900   307.47872     -32239.816     -18151.478      3442.2541      15.4861        13.253846      16.771       
      3000   301.80145     -32237.395      1388.7185      3434.9458      15.4861        13.225706      16.771       
      3100   302.82393     -32229.226     -6410.6298      3427.6374      15.4861        13.197566      16.771       
      3200   317.88386     -32226.963      1199.8451      3420.329       15.4861        13.169426      16.771       
      3300   311.83142     -32218.725     -12870.818      3413.0206      15.4861        13.141287      16.771       
      3400   292.94428     -32220.693     -11098.323      3405.7122      15.4861        13.113147      16.771       
      3500   283.27978     -32229.033     -3223.472       3398.4038      15.4861        13.085007      16.771       
      3600   291.15591     -32232.841     -2129.3678      3391.0954      15.4861        13.056867      16.771       
      3700   304.08331     -32213.371      5824.317       3383.787       15.4861        13.028727      16.771       
      3800   309.32337     -32199.628      7974.9866      3376.4786      15.4861        13.000588      16.771       
      3900   316.61528     -32213.478      6786.2386      3369.1702      15.4861        12.972448      16.771       
      4000   313.21984     -32218.401      10061.662      3361.8618      15.4861        12.944308      16.771       
      4100   302.29576     -32207.81       3370.1518      3354.5534      15.4861        12.916168      16.771       
      4200   274.98828     -32205.957      3319.7886      3347.245       15.4861        12.888028      16.771       
      4300   309.24418     -32241.463      9594.7036      3339.9366      15.4861        12.859889      16.771       
      4400   292.3468      -32232.256     -8380.7144      3332.6282      15.4861        12.831749      16.771       
      4500   304.64628     -32246.089      5803.6282      3325.3198      15.4861        12.803609      16.771       
      4600   277.00734     -32228.269     -5784.5686      3318.0114      15.4861        12.775469      16.771       
      4700   293.27052     -32242.54      -4397.4018      3310.703       15.4861        12.747329      16.771       
      4800   306.27235     -32249.055     -9207.6019      3303.3946      15.4861        12.71919       16.771       
      4900   305.23186     -32246.371     -9402.2203      3296.0862      15.4861        12.69105       16.771       
      5000   292.57847     -32246.666      3876.2744      3288.7778      15.4861        12.66291       16.771       
Loop time of 196.339 on 16 procs for 5000 steps with 274 atoms

Performance: 1.100 ns/day, 21.815 hours/ns, 25.466 timesteps/s, 6.978 katom-step/s
99.3% CPU use with 8 MPI tasks x 2 OpenMP threads

MPI task timing breakdown:
Section |  min time  |  avg time  |  max time  |%varavg| %total
---------------------------------------------------------------
Pair    | 143.1      | 147.15     | 151.34     |  21.4 | 74.95
Bond    | 0.0014778  | 0.0018629  | 0.0021979  |   0.4 |  0.00
Neigh   | 11.656     | 11.838     | 12.108     |   4.4 |  6.03
Comm    | 13.816     | 18.138     | 22.28      |  62.0 |  9.24
Output  | 0.029655   | 0.035659   | 0.041662   |   2.2 |  0.02
Modify  | 17.974     | 18.273     | 18.538     |   4.7 |  9.31
Other   |            | 0.9022     |            |       |  0.46

Nlocal:          34.25 ave          37 max          32 min
Histogram: 2 0 2 0 1 0 0 0 1 2
Nghost:        2857.38 ave        2877 max        2846 min
Histogram: 1 2 1 2 0 0 1 0 0 1
Neighs:          20022 ave       21570 max       18749 min
Histogram: 2 1 1 0 1 0 0 0 1 2

Total # of neighbors = 160176
Ave neighs/atom = 584.58394
Ave special neighs/atom = 0
Neighbor list builds = 500
Dangerous builds not checked
  using 2 OpenMP thread(s) per MPI task
Reading restart file ...
  restart file = 2 Aug 2023, LAMMPS = 2 Aug 2023
  restoring atom style full from restart
  triclinic box = (0 0 0) to (15.4861 14.0699 16.771) with tilt (-7.3915 0.9919 1.0308)
WARNING: Triclinic box skew is large. LAMMPS will run inefficiently. (src/domain.cpp:220)
  2 by 2 by 2 MPI processor grid
  pair style reaxff stores no restart info
  274 atoms
Finding 1-2 1-3 1-4 neighbors ...
  special bond factors lj:    0        0        0       
  special bond factors coul:  0        0        0       
     0 = max # of 1-2 neighbors
     0 = max # of 1-3 neighbors
     0 = max # of 1-4 neighbors
     1 = max # of special neighbors
  special bonds CPU = 0.000 seconds
  read_restart CPU = 0.003 seconds
*****Positive-deform 2 starts.*****
Resetting global fix info from restart file:
  fix style: nvt, fix ID: fnvt
All restart file global fix info was re-assigned
Neighbor list info ...
  update: every = 10 steps, delay = 0 steps, check = no
  max neighbors/atom: 2000, page size: 100000
  master list distance cutoff = 12
  ghost atom cutoff = 12
  binsize = 6, bins = 4 3 3
  2 neighbor lists, perpetual/occasional/extra = 2 0 0
  (1) pair reaxff, perpetual
      attributes: half, newton off, ghost
      pair build: half/bin/newtoff/ghost
      stencil: full/ghost/bin/3d
      bin: standard
  (2) fix qeq/reaxff, perpetual, copy from (1)
      attributes: half, newton off
      pair build: copy
      stencil: none
      bin: none
Setting up Verlet run ...
  Unit style    : real
  Current step  : 0
  Time step     : 0.5
Per MPI rank memory allocation (min/avg/max) = 102 | 103.1 | 104.3 Mbytes
   Step          Temp          PotEng         Press          Volume           Lx             Ly             Lz      
         0   313.78569     -32192.872     -10486.184      3654.1976      15.4861        14.0699        16.771       
       100   294.31438     -32213.202     -12068.746      3661.506       15.4861        14.09804       16.771       
       200   309.55496     -32226.16      -2771.168       3668.8144      15.4861        14.12618       16.771       
       300   283.22729     -32201.982      158.48722      3676.1228      15.4861        14.154319      16.771       
       400   305.15063     -32207.848     -6754.7863      3683.4312      15.4861        14.182459      16.771       
       500   317.4647      -32202.584     -4014.6433      3690.7396      15.4861        14.210599      16.771       
       600   325.88503     -32197.093     -24890.385      3698.048       15.4861        14.238739      16.771       
       700   306.69327     -32188.7       -1907.8638      3705.3564      15.4861        14.266879      16.771       
       800   299.33165     -32205.76      -14006.284      3712.6648      15.4861        14.295018      16.771       
       900   285.79073     -32202.147      4005.0956      3719.9732      15.4861        14.323158      16.771       
      1000   311.03712     -32215.886     -14831.475      3727.2816      15.4861        14.351298      16.771       
      1100   274.69509     -32166.689     -10486.441      3734.59        15.4861        14.379438      16.771       
      1200   296.47384     -32147.532     -21164.005      3741.8984      15.4861        14.407578      16.771       
      1300   308.18629     -32164.778     -13919.434      3749.2067      15.4861        14.435717      16.771       
      1400   305.21717     -32177.727     -6901.078       3756.5151      15.4861        14.463857      16.771       
      1500   298.01969     -32187.849     -1103.1749      3763.8235      15.4861        14.491997      16.771       
      1600   288.07929     -32191.813     -18994.103      3771.1319      15.4861        14.520137      16.771       
      1700   281.14418     -32181.759     -18585.183      3778.4403      15.4861        14.548277      16.771       
      1800   291.60692     -32166.906     -10154.77       3785.7487      15.4861        14.576416      16.771       
      1900   322.94773     -32159.828     -28102.611      3793.0571      15.4861        14.604556      16.771       
      2000   317.78855     -32165.011     -18073.961      3800.3655      15.4861        14.632696      16.771       
      2100   307.9659      -32175.948     -17224.763      3807.6739      15.4861        14.660836      16.771       
      2200   294.83473     -32181.427     -15597.607      3814.9823      15.4861        14.688976      16.771       
      2300   287.03078     -32167.353     -6360.2275      3822.2907      15.4861        14.717115      16.771       
      2400   290.87773     -32157.283     -19346.677      3829.5991      15.4861        14.745255      16.771       
      2500   328.62539     -32155.755     -11409.552      3836.9075      15.4861        14.773395      16.771       
      2600   315.39389     -32148.022     -25945.592      3844.2159      15.4861        14.801535      16.771       
      2700   291.49275     -32148.82      -13496.459      3851.5243      15.4861        14.829675      16.771       
      2800   303.12998     -32157.807     -23433.289      3858.8327      15.4861        14.857814      16.771       
      2900   297.34323     -32151.746     -14191.835      3866.1411      15.4861        14.885954      16.771       
      3000   305.75346     -32154.89      -17335.815      3873.4495      15.4861        14.914094      16.771       
      3100   299.34786     -32147.484     -26091.882      3880.7579      15.4861        14.942234      16.771       
      3200   297.95747     -32156.136     -16698.56       3888.0663      15.4861        14.970374      16.771       
      3300   283.54132     -32160.699     -31032.255      3895.3747      15.4861        14.998513      16.771       
      3400   293.56499     -32146.295     -20128.312      3902.683       15.4861        15.026653      16.771       
      3500   302.79278     -32135.215     -26027.639      3909.9914      15.4861        15.054793      16.771       
      3600   310.80144     -32141.855     -22744.708      3917.2998      15.4861        15.082933      16.771       
      3700   302.3455      -32125.776     -11807.442      3924.6082      15.4861        15.111073      16.771       
      3800   298.47501     -32127.863     -13500.197      3931.9166      15.4861        15.139212      16.771       
      3900   282.80352     -32138.819     -16584.081      3939.225       15.4861        15.167352      16.771       
      4000   281.64102     -32136.042     -24372.208      3946.5334      15.4861        15.195492      16.771       
      4100   318.33429     -32153.831     -26481.014      3953.8418      15.4861        15.223632      16.771       
      4200   291.90611     -32114.888     -13201.123      3961.1502      15.4861        15.251772      16.771       
      4300   297.23146     -32101.745     -14466.841      3968.4586      15.4861        15.279911      16.771       
      4400   281.00515     -32105.306     -24833.384      3975.767       15.4861        15.308051      16.771       
      4500   303.72882     -32133.609     -21411.989      3983.0754      15.4861        15.336191      16.771       
      4600   285.69257     -32117.917     -18906.799      3990.3838      15.4861        15.364331      16.771       
      4700   308.22875     -32117.191     -23813.382      3997.6922      15.4861        15.392471      16.771       
      4800   341.78692     -32111.54      -17926.861      4005.0006      15.4861        15.42061       16.771       
      4900   322.03206     -32103.245     -21753.214      4012.309       15.4861        15.44875       16.771       
      5000   300.5361      -32097.829     -13619.701      4019.6174      15.4861        15.47689       16.771       
Loop time of 171.281 on 16 procs for 5000 steps with 274 atoms

Performance: 1.261 ns/day, 19.031 hours/ns, 29.192 timesteps/s, 7.999 katom-step/s
99.3% CPU use with 8 MPI tasks x 2 OpenMP threads

MPI task timing breakdown:
Section |  min time  |  avg time  |  max time  |%varavg| %total
---------------------------------------------------------------
Pair    | 123.75     | 125.99     | 129.29     |  17.5 | 73.56
Bond    | 0.0014685  | 0.0018577  | 0.0021343  |   0.5 |  0.00
Neigh   | 10.196     | 10.353     | 10.647     |   4.1 |  6.04
Comm    | 13.113     | 16.427     | 18.691     |  48.2 |  9.59
Output  | 0.031446   | 0.038426   | 0.046236   |   2.5 |  0.02
Modify  | 17.224     | 17.471     | 17.693     |   3.7 | 10.20
Other   |            | 1          |            |       |  0.58

Nlocal:          34.25 ave          39 max          26 min
Histogram: 1 0 0 1 0 2 0 1 0 3
Nghost:        2403.25 ave        2430 max        2381 min
Histogram: 1 1 1 1 0 1 1 1 0 1
Neighs:        16263.2 ave       18320 max       12521 min
Histogram: 1 0 0 1 0 2 0 1 0 3

Total # of neighbors = 130106
Ave neighs/atom = 474.83942
Ave special neighs/atom = 0
Neighbor list builds = 500
Dangerous builds not checked
  using 2 OpenMP thread(s) per MPI task
Reading restart file ...
  restart file = 2 Aug 2023, LAMMPS = 2 Aug 2023
  restoring atom style full from restart
  triclinic box = (0 0 0) to (15.4861 14.0699 16.771) with tilt (-7.3915 0.9919 1.0308)
WARNING: Triclinic box skew is large. LAMMPS will run inefficiently. (src/domain.cpp:220)
  2 by 2 by 2 MPI processor grid
  pair style reaxff stores no restart info
  274 atoms
Finding 1-2 1-3 1-4 neighbors ...
  special bond factors lj:    0        0        0       
  special bond factors coul:  0        0        0       
     0 = max # of 1-2 neighbors
     0 = max # of 1-3 neighbors
     0 = max # of 1-4 neighbors
     1 = max # of special neighbors
  special bonds CPU = 0.000 seconds
  read_restart CPU = 0.004 seconds
*****debug*****
xy = -7.3914999999999997371, deltaxy = 0.73915
xz = 0.99190000000000000391, deltaxz = -0.09919
yz = 1.0307999999999999385, deltayz = -0.10308
*****
*****Negative-deform 3 starts.*****
Resetting global fix info from restart file:
  fix style: nvt, fix ID: fnvt
All restart file global fix info was re-assigned
Neighbor list info ...
  update: every = 10 steps, delay = 0 steps, check = no
  max neighbors/atom: 2000, page size: 100000
  master list distance cutoff = 12
  ghost atom cutoff = 12
  binsize = 6, bins = 4 3 3
  2 neighbor lists, perpetual/occasional/extra = 2 0 0
  (1) pair reaxff, perpetual
      attributes: half, newton off, ghost
      pair build: half/bin/newtoff/ghost
      stencil: full/ghost/bin/3d
      bin: standard
  (2) fix qeq/reaxff, perpetual, copy from (1)
      attributes: half, newton off
      pair build: copy
      stencil: none
      bin: none
Setting up Verlet run ...
  Unit style    : real
  Current step  : 0
  Time step     : 0.5
Per MPI rank memory allocation (min/avg/max) = 102 | 103 | 104.3 Mbytes
   Step          Temp          PotEng         Press          Volume           Lx             Ly             Lz      
         0   313.78569     -32192.872     -10486.184      3654.1976      15.4861        14.0699        16.771       
       100   295.30868     -32213.487     -12156.339      3646.8892      15.4861        14.0699        16.737458    
       200   308.66343     -32225.778     -9818.6355      3639.5808      15.4861        14.0699        16.703916    
       300   290.48724     -32211.732     -2399.8953      3632.2724      15.4861        14.0699        16.670374    
       400   298.50757     -32206.519     -8255.5911      3624.964       15.4861        14.0699        16.636832    
       500   302.01717     -32209.089     -7830.2033      3617.6556      15.4861        14.0699        16.60329     
       600   292.06889     -32221.293     -22017.798      3610.3472      15.4861        14.0699        16.569748    
       700   303.9367      -32237.078     -10810.739      3603.0388      15.4861        14.0699        16.536206    
       800   292.78154     -32217.253     -10931.311      3595.7304      15.4861        14.0699        16.502664    
       900   351.78735     -32227.418     -3220.4001      3588.4221      15.4861        14.0699        16.469122    
      1000   313.70325     -32191.006     -13646.713      3581.1137      15.4861        14.0699        16.43558     
      1100   301.31313     -32207.338     -8736.2535      3573.8053      15.4861        14.0699        16.402038    
      1200   326.87524     -32226.708     -10091.275      3566.4969      15.4861        14.0699        16.368496    
      1300   302.3511      -32222.071      2012.4677      3559.1885      15.4861        14.0699        16.334954    
      1400   304.03203     -32232.944     -2076.02        3551.8801      15.4861        14.0699        16.301412    
      1500   291.95204     -32230.887     -8963.131       3544.5717      15.4861        14.0699        16.26787     
      1600   280.11695     -32219.666     -10184.676      3537.2633      15.4861        14.0699        16.234328    
      1700   307.69832     -32230.26      -9690.7384      3529.9549      15.4861        14.0699        16.200786    
      1800   308.53728     -32196.571      5315.2523      3522.6465      15.4861        14.0699        16.167244    
      1900   335.43724     -32203.562     -3215.1896      3515.3381      15.4861        14.0699        16.133702    
      2000   289.43843     -32192.429     -14469.376      3508.0297      15.4861        14.0699        16.10016     
      2100   312.59728     -32221.058     -12247.026      3500.7213      15.4861        14.0699        16.066618    
      2200   284.69996     -32214.011     -1958.5103      3493.4129      15.4861        14.0699        16.033076    
      2300   296.80633     -32231.295     -6958.9774      3486.1045      15.4861        14.0699        15.999534    
      2400   287.45668     -32219.414     -6631.2883      3478.7961      15.4861        14.0699        15.965992    
      2500   289.71692     -32206.873     -4712.0331      3471.4877      15.4861        14.0699        15.93245     
      2600   314.17128     -32213.014     -2760.8955      3464.1793      15.4861        14.0699        15.898908    
      2700   299.96129     -32219.947     -14163.948      3456.8709      15.4861        14.0699        15.865366    
      2800   293.94049     -32235.255     -1523.7059      3449.5625      15.4861        14.0699        15.831824    
      2900   301.07304     -32238.767     -3515.3097      3442.2541      15.4861        14.0699        15.798282    
      3000   294.3935      -32232.251     -6208.596       3434.9458      15.4861        14.0699        15.76474     
      3100   278.23725     -32197.219     -2606.1957      3427.6374      15.4861        14.0699        15.731198    
      3200   341.34155     -32223.256     -1777.1729      3420.329       15.4861        14.0699        15.697656    
      3300   323.82963     -32222.272      2584.026       3413.0206      15.4861        14.0699        15.664114    
      3400   300.85139     -32221.672      2225.6326      3405.7122      15.4861        14.0699        15.630572    
      3500   318.48494     -32232.414      7670.4394      3398.4038      15.4861        14.0699        15.59703     
      3600   309.51646     -32234.553      13701.661      3391.0954      15.4861        14.0699        15.563488    
      3700   290.06664     -32226.953      6313.1578      3383.787       15.4861        14.0699        15.529946    
      3800   285.1385      -32223.048      7649.6386      3376.4786      15.4861        14.0699        15.496404    
      3900   300.70538     -32230.274     -4800.3031      3369.1702      15.4861        14.0699        15.462862    
      4000   300.10432     -32223.062      182.19239      3361.8618      15.4861        14.0699        15.42932     
      4100   315.08028     -32238.65       6406.1398      3354.5534      15.4861        14.0699        15.395778    
      4200   311.47129     -32243.925      17543.282      3347.245       15.4861        14.0699        15.362236    
      4300   314.60323     -32244.303     -1057.9549      3339.9366      15.4861        14.0699        15.328694    
      4400   310.90065     -32234.188     -7109.9367      3332.6282      15.4861        14.0699        15.295152    
      4500   329.26249     -32246.423     -1251.5985      3325.3198      15.4861        14.0699        15.26161     
      4600   303.18319     -32239.655      2391.5355      3318.0114      15.4861        14.0699        15.228068    
      4700   318.92318     -32252.023     -13640.657      3310.703       15.4861        14.0699        15.194526    
      4800   324.85069     -32251.743     -5930.9196      3303.3946      15.4861        14.0699        15.160984    
      4900   276.66893     -32224.666      544.48587      3296.0862      15.4861        14.0699        15.127442    
      5000   273.25857     -32224.255     -2879.6899      3288.7778      15.4861        14.0699        15.0939      
Loop time of 193.447 on 16 procs for 5000 steps with 274 atoms

Performance: 1.117 ns/day, 21.494 hours/ns, 25.847 timesteps/s, 7.082 katom-step/s
99.3% CPU use with 8 MPI tasks x 2 OpenMP threads

MPI task timing breakdown:
Section |  min time  |  avg time  |  max time  |%varavg| %total
---------------------------------------------------------------
Pair    | 141.23     | 143.88     | 149.33     |  20.2 | 74.38
Bond    | 0.0015454  | 0.0018688  | 0.0021425  |   0.4 |  0.00
Neigh   | 11.399     | 11.571     | 11.748     |   3.2 |  5.98
Comm    | 13.014     | 18.399     | 21.071     |  55.8 |  9.51
Output  | 0.026447   | 0.030384   | 0.034733   |   1.8 |  0.02
Modify  | 18.334     | 18.537     | 18.709     |   2.9 |  9.58
Other   |            | 1.023      |            |       |  0.53

Nlocal:          34.25 ave          36 max          32 min
Histogram: 1 0 1 0 0 2 0 3 0 1
Nghost:           2795 ave        2831 max        2755 min
Histogram: 1 1 0 0 1 2 1 0 1 1
Neighs:        19997.2 ave       21086 max       18779 min
Histogram: 1 1 0 0 2 0 2 1 0 1

Total # of neighbors = 159978
Ave neighs/atom = 583.86131
Ave special neighs/atom = 0
Neighbor list builds = 500
Dangerous builds not checked
  using 2 OpenMP thread(s) per MPI task
Reading restart file ...
  restart file = 2 Aug 2023, LAMMPS = 2 Aug 2023
  restoring atom style full from restart
  triclinic box = (0 0 0) to (15.4861 14.0699 16.771) with tilt (-7.3915 0.9919 1.0308)
WARNING: Triclinic box skew is large. LAMMPS will run inefficiently. (src/domain.cpp:220)
  2 by 2 by 2 MPI processor grid
  pair style reaxff stores no restart info
  274 atoms
Finding 1-2 1-3 1-4 neighbors ...
  special bond factors lj:    0        0        0       
  special bond factors coul:  0        0        0       
     0 = max # of 1-2 neighbors
     0 = max # of 1-3 neighbors
     0 = max # of 1-4 neighbors
     1 = max # of special neighbors
  special bonds CPU = 0.000 seconds
  read_restart CPU = 0.004 seconds
*****Positive-deform 3 starts.*****
Resetting global fix info from restart file:
  fix style: nvt, fix ID: fnvt
All restart file global fix info was re-assigned
Neighbor list info ...
  update: every = 10 steps, delay = 0 steps, check = no
  max neighbors/atom: 2000, page size: 100000
  master list distance cutoff = 12
  ghost atom cutoff = 12
  binsize = 6, bins = 4 3 3
  2 neighbor lists, perpetual/occasional/extra = 2 0 0
  (1) pair reaxff, perpetual
      attributes: half, newton off, ghost
      pair build: half/bin/newtoff/ghost
      stencil: full/ghost/bin/3d
      bin: standard
  (2) fix qeq/reaxff, perpetual, copy from (1)
      attributes: half, newton off
      pair build: copy
      stencil: none
      bin: none
Setting up Verlet run ...
  Unit style    : real
  Current step  : 0
  Time step     : 0.5
Per MPI rank memory allocation (min/avg/max) = 102 | 103 | 104.3 Mbytes
   Step          Temp          PotEng         Press          Volume           Lx             Ly             Lz      
         0   313.78569     -32192.872     -10486.184      3654.1976      15.4861        14.0699        16.771       
       100   293.49053     -32212.996     -12150.963      3661.506       15.4861        14.0699        16.804542    
       200   313.83786     -32225.962     -5385.8296      3668.8144      15.4861        14.0699        16.838084    
       300   288.02599     -32209.668     -1702.4082      3676.1228      15.4861        14.0699        16.871626    
       400   286.91852     -32204.981     -11308.513      3683.4312      15.4861        14.0699        16.905168    
       500   290.05112     -32200.331     -8251.5596      3690.7396      15.4861        14.0699        16.93871     
       600   313.67409     -32184.946     -14829.077      3698.048       15.4861        14.0699        16.972252    
       700   301.44426     -32166.551     -17538.18       3705.3564      15.4861        14.0699        17.005794    
       800   320.87666     -32208.779     -3492.9351      3712.6648      15.4861        14.0699        17.039336    
       900   319.59152     -32214.376     -14055.938      3719.9732      15.4861        14.0699        17.072878    
      1000   286.14759     -32191.249     -13584.072      3727.2816      15.4861        14.0699        17.10642     
      1100   320.32065     -32218.315     -4879.8723      3734.59        15.4861        14.0699        17.139962    
      1200   283.84336     -32174.946     -14683.775      3741.8984      15.4861        14.0699        17.173504    
      1300   316.79682     -32179.947     -1207.3772      3749.2067      15.4861        14.0699        17.207046    
      1400   302.41581     -32163.726     -7498.3636      3756.5151      15.4861        14.0699        17.240588    
      1500   290.41744     -32175.28      -12047.52       3763.8235      15.4861        14.0699        17.27413     
      1600   300.60255     -32198.16      -7140.0615      3771.1319      15.4861        14.0699        17.307672    
      1700   314.20764     -32204.275     -16789.837      3778.4403      15.4861        14.0699        17.341214    
      1800   303.31998     -32175.094     -27760.25       3785.7487      15.4861        14.0699        17.374756    
      1900   325.93588     -32164.293     -8929.4316      3793.0571      15.4861        14.0699        17.408298    
      2000   327.80573     -32150.041     -16234.771      3800.3655      15.4861        14.0699        17.44184     
      2100   288.78874     -32142.363     -8243.0696      3807.6739      15.4861        14.0699        17.475382    
      2200   282.56967     -32153.822     -24630.576      3814.9823      15.4861        14.0699        17.508924    
      2300   299.08202     -32166.092     -19522.769      3822.2907      15.4861        14.0699        17.542466    
      2400   312.00465     -32181.163     -17797.414      3829.5991      15.4861        14.0699        17.576008    
      2500   305.13844     -32188.836     -15707.848      3836.9075      15.4861        14.0699        17.60955     
      2600   283.83973     -32178.012     -14661.883      3844.2159      15.4861        14.0699        17.643092    
      2700   297.19431     -32175.164     -20099.387      3851.5243      15.4861        14.0699        17.676634    
      2800   348.53715     -32167.223     -25534.172      3858.8327      15.4861        14.0699        17.710176    
      2900   313.38208     -32142.341     -23824.101      3866.1411      15.4861        14.0699        17.743718    
      3000   306.73528     -32157.434     -26149.784      3873.4495      15.4861        14.0699        17.77726     
      3100   281.12252     -32147.237     -14712.263      3880.7579      15.4861        14.0699        17.810802    
      3200   284.40434     -32146.703     -25758.285      3888.0663      15.4861        14.0699        17.844344    
      3300   290.37546     -32143.16      -14267.01       3895.3747      15.4861        14.0699        17.877886    
      3400   299.41947     -32156.415     -28799.847      3902.683       15.4861        14.0699        17.911428    
      3500   288.7894      -32152.603     -31360.183      3909.9914      15.4861        14.0699        17.94497     
      3600   271.67265     -32130.726     -22750.69       3917.2998      15.4861        14.0699        17.978512    
      3700   308.45589     -32151.598     -22899.737      3924.6082      15.4861        14.0699        18.012054    
      3800   316.23288     -32136.233     -26714.234      3931.9166      15.4861        14.0699        18.045596    
      3900   324.86313     -32121.511     -26235.777      3939.225       15.4861        14.0699        18.079138    
      4000   300.59902     -32116.059     -27655.602      3946.5334      15.4861        14.0699        18.11268     
      4100   291.3795      -32125.609     -26121.122      3953.8418      15.4861        14.0699        18.146222    
      4200   303.43289     -32124.657     -23912.49       3961.1502      15.4861        14.0699        18.179764    
      4300   295.95362     -32117.283     -35378.02       3968.4586      15.4861        14.0699        18.213306    
      4400   296.58659     -32118.126     -33742.443      3975.767       15.4861        14.0699        18.246848    
      4500   264.73295     -32114.014     -27500.567      3983.0754      15.4861        14.0699        18.28039     
      4600   282.91444     -32116.064     -26531.006      3990.3838      15.4861        14.0699        18.313932    
      4700   294.35812     -32100.531     -27158.313      3997.6922      15.4861        14.0699        18.347474    
      4800   308.18069     -32098.001     -27146.509      4005.0006      15.4861        14.0699        18.381016    
      4900   309.83708     -32106.457     -21912.265      4012.309       15.4861        14.0699        18.414558    
      5000   295.32956     -32102.658     -22005.905      4019.6174      15.4861        14.0699        18.4481      
Loop time of 174.374 on 16 procs for 5000 steps with 274 atoms

Performance: 1.239 ns/day, 19.375 hours/ns, 28.674 timesteps/s, 7.857 katom-step/s
99.3% CPU use with 8 MPI tasks x 2 OpenMP threads

MPI task timing breakdown:
Section |  min time  |  avg time  |  max time  |%varavg| %total
---------------------------------------------------------------
Pair    | 122.09     | 127.52     | 133.21     |  28.3 | 73.13
Bond    | 0.0015724  | 0.0018864  | 0.0021749  |   0.5 |  0.00
Neigh   | 9.7756     | 10.135     | 10.522     |   7.0 |  5.81
Comm    | 12.07      | 17.689     | 23.163     |  76.3 | 10.14
Output  | 0.032035   | 0.038123   | 0.044018   |   2.2 |  0.02
Modify  | 17.648     | 18.011     | 18.4       |   6.2 | 10.33
Other   |            | 0.9799     |            |       |  0.56

Nlocal:          34.25 ave          41 max          28 min
Histogram: 2 0 1 1 0 0 2 0 1 1
Nghost:        2426.12 ave        2499 max        2363 min
Histogram: 2 1 1 0 0 0 1 0 2 1
Neighs:        16284.1 ave       19467 max       13166 min
Histogram: 1 1 1 0 1 1 0 1 1 1

Total # of neighbors = 130273
Ave neighs/atom = 475.44891
Ave special neighs/atom = 0
Neighbor list builds = 500
Dangerous builds not checked
  using 2 OpenMP thread(s) per MPI task
Reading restart file ...
  restart file = 2 Aug 2023, LAMMPS = 2 Aug 2023
  restoring atom style full from restart
  triclinic box = (0 0 0) to (15.4861 14.0699 16.771) with tilt (-7.3915 0.9919 1.0308)
WARNING: Triclinic box skew is large. LAMMPS will run inefficiently. (src/domain.cpp:220)
  2 by 2 by 2 MPI processor grid
  pair style reaxff stores no restart info
  274 atoms
Finding 1-2 1-3 1-4 neighbors ...
  special bond factors lj:    0        0        0       
  special bond factors coul:  0        0        0       
     0 = max # of 1-2 neighbors
     0 = max # of 1-3 neighbors
     0 = max # of 1-4 neighbors
     1 = max # of special neighbors
  special bonds CPU = 0.000 seconds
  read_restart CPU = 0.003 seconds
*****debug*****
xy = -7.3914999999999997371, deltaxy = 0.73915
xz = 0.99190000000000000391, deltaxz = -0.09919
yz = 1.0307999999999999385, deltayz = -0.10308
*****
*****Negative-deform 4 starts.*****
Resetting global fix info from restart file:
  fix style: nvt, fix ID: fnvt
All restart file global fix info was re-assigned
Neighbor list info ...
  update: every = 10 steps, delay = 0 steps, check = no
  max neighbors/atom: 2000, page size: 100000
  master list distance cutoff = 12
  ghost atom cutoff = 12
  binsize = 6, bins = 4 3 3
  2 neighbor lists, perpetual/occasional/extra = 2 0 0
  (1) pair reaxff, perpetual
      attributes: half, newton off, ghost
      pair build: half/bin/newtoff/ghost
      stencil: full/ghost/bin/3d
      bin: standard
  (2) fix qeq/reaxff, perpetual, copy from (1)
      attributes: half, newton off
      pair build: copy
      stencil: none
      bin: none
Setting up Verlet run ...
  Unit style    : real
  Current step  : 0
  Time step     : 0.5
Per MPI rank memory allocation (min/avg/max) = 102 | 103 | 104.3 Mbytes
   Step          Temp          PotEng         Press          Volume           Lx             Ly             Lz      
         0   313.78569     -32192.872     -10486.184      3654.1976      15.4861        14.0699        16.771       
       100   294.90456     -32213.444     -12119.319      3654.1976      15.4861        14.0699        16.771       
       200   307.51148     -32226.33      -7369.7318      3654.1976      15.4861        14.0699        16.771       
       300   279.63037     -32201.046     -5245.1081      3654.1976      15.4861        14.0699        16.771       
       400   298.66596     -32201.282     -11237.868      3654.1976      15.4861        14.0699        16.771       
       500   311.50776     -32190.379     -1652.2996      3654.1976      15.4861        14.0699        16.771       
       600   306.46934     -32194.092     -12284.908      3654.1976      15.4861        14.0699        16.771       
       700   291.91984     -32211.576     -2150.315       3654.1976      15.4861        14.0699        16.771       
       800   292.23349     -32210.762     -7380.0925      3654.1976      15.4861        14.0699        16.771       
       900   305.4575      -32215.905     -8382.6693      3654.1976      15.4861        14.0699        16.771       
      1000   284.32519     -32194.102     -12639.519      3654.1976      15.4861        14.0699        16.771       
      1100   315.0478      -32195.046     -13683.992      3654.1976      15.4861        14.0699        16.771       
      1200   333.79901     -32195.202     -12076.076      3654.1976      15.4861        14.0699        16.771       
      1300   293.69667     -32172.002     -6248.3573      3654.1976      15.4861        14.0699        16.771       
      1400   319.47643     -32222.616     -1883.3389      3654.1976      15.4861        14.0699        16.771       
      1500   279.63859     -32204.011     -13493.683      3654.1976      15.4861        14.0699        16.771       
      1600   298.32065     -32216.338     -8254.7402      3654.1976      15.4861        14.0699        16.771       
      1700   305.4662      -32207.83      -7857.7201      3654.1976      15.4861        14.0699        16.771       
      1800   324.50375     -32198.818     -4711.4069      3654.1976      15.4861        14.0699        16.771       
      1900   306.88189     -32199.907     -18813.598      3654.1976      15.4861        14.0699        16.771       
      2000   308.66318     -32212.449     -14748.89       3654.1976      15.4861        14.0699        16.771       
      2100   287.5452      -32196.234     -6475.3419      3654.1976      15.4861        14.0699        16.771       
      2200   300.32025     -32198.63      -11945.813      3654.1976      15.4861        14.0699        16.771       
      2300   319.60561     -32210.175     -3720.0917      3654.1976      15.4861        14.0699        16.771       
      2400   296.91593     -32211.308     -8954.781       3654.1976      15.4861        14.0699        16.771       
      2500   259.98828     -32194.455     -696.08671      3654.1976      15.4861        14.0699        16.771       
      2600   290.35977     -32202.123     -4951.0949      3654.1976      15.4861        14.0699        16.771       
      2700   285.77141     -32187.062     -9766.1763      3654.1976      15.4861        14.0699        16.771       
      2800   307.0009      -32209.592     -17139.689      3654.1976      15.4861        14.0699        16.771       
      2900   277.37998     -32212.281     -13315.904      3654.1976      15.4861        14.0699        16.771       
      3000   283.09944     -32219.799     -10816.906      3654.1976      15.4861        14.0699        16.771       
      3100   295.45115     -32207.605     -6751.8899      3654.1976      15.4861        14.0699        16.771       
      3200   302.98664     -32193.633     -13784.816      3654.1976      15.4861        14.0699        16.771       
      3300   307.80058     -32194.265      1624.2279      3654.1976      15.4861        14.0699        16.771       
      3400   289.84904     -32183.807     -16615.183      3654.1976      15.4861        14.0699        16.771       
      3500   293.38052     -32206.649     -13288.897      3654.1976      15.4861        14.0699        16.771       
      3600   301.4113      -32211.691     -7019.5807      3654.1976      15.4861        14.0699        16.771       
      3700   295.04691     -32202.868     -6081.333       3654.1976      15.4861        14.0699        16.771       
      3800   300.49559     -32198.89      -1530.4375      3654.1976      15.4861        14.0699        16.771       
      3900   307.2574      -32191.157     -10036.231      3654.1976      15.4861        14.0699        16.771       
      4000   304.38834     -32181.393     -11869.457      3654.1976      15.4861        14.0699        16.771       
      4100   279.89209     -32181.374     -3574.876       3654.1976      15.4861        14.0699        16.771       
      4200   294.69389     -32204.336     -11407.693      3654.1976      15.4861        14.0699        16.771       
      4300   289.85203     -32203.969     -20433.736      3654.1976      15.4861        14.0699        16.771       
      4400   276.94393     -32208.971     -13890.836      3654.1976      15.4861        14.0699        16.771       
      4500   306.32717     -32228.822     -14316.1        3654.1976      15.4861        14.0699        16.771       
      4600   298.99338     -32192.992     -3476.6821      3654.1976      15.4861        14.0699        16.771       
      4700   315.71256     -32189.185     -12891.743      3654.1976      15.4861        14.0699        16.771       
      4800   319.86704     -32187.475     -11567.952      3654.1976      15.4861        14.0699        16.771       
      4900   308.27321     -32200.387     -11126.913      3654.1976      15.4861        14.0699        16.771       
      5000   295.01304     -32197.965     -4867.1163      3654.1976      15.4861        14.0699        16.771       
Loop time of 182.269 on 16 procs for 5000 steps with 274 atoms

Performance: 1.185 ns/day, 20.252 hours/ns, 27.432 timesteps/s, 7.516 katom-step/s
99.3% CPU use with 8 MPI tasks x 2 OpenMP threads

MPI task timing breakdown:
Section |  min time  |  avg time  |  max time  |%varavg| %total
---------------------------------------------------------------
Pair    | 132.49     | 134.64     | 138.95     |  16.5 | 73.87
Bond    | 0.0014833  | 0.0018502  | 0.0021772  |   0.5 |  0.00
Neigh   | 10.501     | 10.772     | 11.023     |   5.8 |  5.91
Comm    | 13.338     | 17.773     | 19.978     |  46.5 |  9.75
Output  | 0.027528   | 0.030891   | 0.034466   |   1.5 |  0.02
Modify  | 17.685     | 18.052     | 18.432     |   6.4 |  9.90
Other   |            | 1.001      |            |       |  0.55

Nlocal:          34.25 ave          39 max          29 min
Histogram: 2 0 0 0 2 0 0 0 3 1
Nghost:         2612.5 ave        2637 max        2591 min
Histogram: 3 1 0 0 0 1 0 0 0 3
Neighs:        17927.8 ave       20320 max       15153 min
Histogram: 2 0 0 0 2 0 0 1 2 1

Total # of neighbors = 143422
Ave neighs/atom = 523.43796
Ave special neighs/atom = 0
Neighbor list builds = 500
Dangerous builds not checked
  using 2 OpenMP thread(s) per MPI task
Reading restart file ...
  restart file = 2 Aug 2023, LAMMPS = 2 Aug 2023
  restoring atom style full from restart
  triclinic box = (0 0 0) to (15.4861 14.0699 16.771) with tilt (-7.3915 0.9919 1.0308)
WARNING: Triclinic box skew is large. LAMMPS will run inefficiently. (src/domain.cpp:220)
  2 by 2 by 2 MPI processor grid
  pair style reaxff stores no restart info
  274 atoms
Finding 1-2 1-3 1-4 neighbors ...
  special bond factors lj:    0        0        0       
  special bond factors coul:  0        0        0       
     0 = max # of 1-2 neighbors
     0 = max # of 1-3 neighbors
     0 = max # of 1-4 neighbors
     1 = max # of special neighbors
  special bonds CPU = 0.000 seconds
  read_restart CPU = 0.004 seconds
*****Positive-deform 4 starts.*****
Resetting global fix info from restart file:
  fix style: nvt, fix ID: fnvt
All restart file global fix info was re-assigned
Neighbor list info ...
  update: every = 10 steps, delay = 0 steps, check = no
  max neighbors/atom: 2000, page size: 100000
  master list distance cutoff = 12
  ghost atom cutoff = 12
  binsize = 6, bins = 4 3 3
  2 neighbor lists, perpetual/occasional/extra = 2 0 0
  (1) pair reaxff, perpetual
      attributes: half, newton off, ghost
      pair build: half/bin/newtoff/ghost
      stencil: full/ghost/bin/3d
      bin: standard
  (2) fix qeq/reaxff, perpetual, copy from (1)
      attributes: half, newton off
      pair build: copy
      stencil: none
      bin: none
Setting up Verlet run ...
  Unit style    : real
  Current step  : 0
  Time step     : 0.5
Per MPI rank memory allocation (min/avg/max) = 102 | 103.1 | 104.3 Mbytes
   Step          Temp          PotEng         Press          Volume           Lx             Ly             Lz      
         0   313.78569     -32192.872     -10486.184      3654.1976      15.4861        14.0699        16.771       
       100   293.85323     -32212.881     -12186.334      3654.1976      15.4861        14.0699        16.771       
       200   308.8896      -32226.529     -1411.2711      3654.1976      15.4861        14.0699        16.771       
       300   282.6933      -32205.182     -5452.3495      3654.1976      15.4861        14.0699        16.771       
       400   305.45213     -32213.859     -14103.43       3654.1976      15.4861        14.0699        16.771       
       500   306.31997     -32197.062     -6281.1045      3654.1976      15.4861        14.0699        16.771       
       600   307.18676     -32189.776     -15145.418      3654.1976      15.4861        14.0699        16.771       
       700   292.46376     -32196.587     -5168.2531      3654.1976      15.4861        14.0699        16.771       
       800   294.22059     -32220.502     -10769.187      3654.1976      15.4861        14.0699        16.771       
       900   306.25477     -32237.322     -2674.6714      3654.1976      15.4861        14.0699        16.771       
      1000   317.94946     -32234.229     -6154.8729      3654.1976      15.4861        14.0699        16.771       
      1100   315.65724     -32207.91      -20024.87       3654.1976      15.4861        14.0699        16.771       
      1200   333.5082      -32189.444      700.29638      3654.1976      15.4861        14.0699        16.771       
      1300   354.70467     -32191.286     -3051.3355      3654.1976      15.4861        14.0699        16.771       
      1400   297.92645     -32187.914     -14694.863      3654.1976      15.4861        14.0699        16.771       
      1500   303.66714     -32216.576     -1115.2149      3654.1976      15.4861        14.0699        16.771       
      1600   288.62823     -32219.5       -7984.9578      3654.1976      15.4861        14.0699        16.771       
      1700   283.80141     -32218.369     -5835.4356      3654.1976      15.4861        14.0699        16.771       
      1800   283.98276     -32209.291     -20999.653      3654.1976      15.4861        14.0699        16.771       
      1900   308.90175     -32217.053     -20620.323      3654.1976      15.4861        14.0699        16.771       
      2000   324.82633     -32212.36      -2936.3419      3654.1976      15.4861        14.0699        16.771       
      2100   309.24735     -32194.19      -9860.6179      3654.1976      15.4861        14.0699        16.771       
      2200   302.89156     -32213.094     -11853.838      3654.1976      15.4861        14.0699        16.771       
      2300   270.52609     -32201.758     -18048.309      3654.1976      15.4861        14.0699        16.771       
      2400   299.20623     -32220.952     -9891.4031      3654.1976      15.4861        14.0699        16.771       
      2500   294.42199     -32202.679     -7713.4586      3654.1976      15.4861        14.0699        16.771       
      2600   333.97094     -32207.197     -16808.379      3654.1976      15.4861        14.0699        16.771       
      2700   316.27598     -32183.165     -10881.475      3654.1976      15.4861        14.0699        16.771       
      2800   299.0889      -32200.941     -1211.6622      3654.1976      15.4861        14.0699        16.771       
      2900   291.30291     -32205.699     -4713.2319      3654.1976      15.4861        14.0699        16.771       
      3000   286.43206     -32202.37      -13030.379      3654.1976      15.4861        14.0699        16.771       
      3100   303.89329     -32214.832      1752.3479      3654.1976      15.4861        14.0699        16.771       
      3200   289.84856     -32194.13      -16672.247      3654.1976      15.4861        14.0699        16.771       
      3300   292.91714     -32185.451     -7974.2091      3654.1976      15.4861        14.0699        16.771       
      3400   336.87048     -32197.655     -2134.8334      3654.1976      15.4861        14.0699        16.771       
      3500   326.48011     -32199         -11983.672      3654.1976      15.4861        14.0699        16.771       
      3600   295.65721     -32203.646     -12381.347      3654.1976      15.4861        14.0699        16.771       
      3700   278.39484     -32192.072     -7054.8836      3654.1976      15.4861        14.0699        16.771       
[...]
      4600   332.97963     -32200.199     -6789.771       3654.1976      15.4861        14.0699        16.771       
      4700   318.53391     -32208.682     -13667.098      3654.1976      15.4861        14.0699        16.771       
      4800   301.86739     -32205.069     -12111.678      3654.1976      15.4861        14.0699        16.771       
      4900   295.18345     -32206.1       -12227.353      3654.1976      15.4861        14.0699        16.771       
      5000   300.4279      -32202.082     -11952.919      3654.1976      15.4861        14.0699        16.771       
Loop time of 178.893 on 16 procs for 5000 steps with 274 atoms

Performance: 1.207 ns/day, 19.877 hours/ns, 27.950 timesteps/s, 7.658 katom-step/s
99.3% CPU use with 8 MPI tasks x 2 OpenMP threads

MPI task timing breakdown:
Section |  min time  |  avg time  |  max time  |%varavg| %total
---------------------------------------------------------------
Pair    | 129.22     | 133.62     | 136.43     |  18.6 | 74.69
Bond    | 0.0015208  | 0.0018488  | 0.0021089  |   0.4 |  0.00
Neigh   | 9.5226     | 9.6674     | 9.7752     |   3.4 |  5.40
Comm    | 14.192     | 16.969     | 21.457     |  52.7 |  9.49
Output  | 0.028212   | 0.033761   | 0.038786   |   2.0 |  0.02
Modify  | 17.543     | 17.693     | 17.882     |   2.8 |  9.89
Other   |            | 0.9129     |            |       |  0.51

Nlocal:          34.25 ave          42 max          30 min
Histogram: 2 1 1 0 2 1 0 0 0 1
Nghost:        2607.38 ave        2634 max        2576 min
Histogram: 2 0 1 1 0 0 0 0 1 3
Neighs:        17923.6 ave       21838 max       15738 min
Histogram: 2 1 1 0 2 0 1 0 0 1

Total # of neighbors = 143389
Ave neighs/atom = 523.31752
Ave special neighs/atom = 0
Neighbor list builds = 500
Dangerous builds not checked
  using 2 OpenMP thread(s) per MPI task
Reading restart file ...
  restart file = 2 Aug 2023, LAMMPS = 2 Aug 2023
  restoring atom style full from restart
  triclinic box = (0 0 0) to (15.4861 14.0699 16.771) with tilt (-7.3915 0.9919 1.0308)
WARNING: Triclinic box skew is large. LAMMPS will run inefficiently. (src/domain.cpp:220)
  2 by 2 by 2 MPI processor grid
  pair style reaxff stores no restart info
  274 atoms
Finding 1-2 1-3 1-4 neighbors ...
  special bond factors lj:    0        0        0       
  special bond factors coul:  0        0        0       
     0 = max # of 1-2 neighbors
     0 = max # of 1-3 neighbors
     0 = max # of 1-4 neighbors
     1 = max # of special neighbors
  special bonds CPU = 0.002 seconds
  read_restart CPU = 0.007 seconds
*****debug*****
xy = -7.3914999999999997371, deltaxy = 0.73915
xz = 0.99190000000000000391, deltaxz = -0.09919
yz = 1.0307999999999999385, deltayz = -0.10308
*****
*****Negative-deform 6 starts.*****
Resetting global fix info from restart file:
  fix style: nvt, fix ID: fnvt
All restart file global fix info was re-assigned
Neighbor list info ...
  update: every = 10 steps, delay = 0 steps, check = no
  max neighbors/atom: 2000, page size: 100000
  master list distance cutoff = 12
  ghost atom cutoff = 12
  binsize = 6, bins = 4 3 3
  2 neighbor lists, perpetual/occasional/extra = 2 0 0
  (1) pair reaxff, perpetual
      attributes: half, newton off, ghost
      pair build: half/bin/newtoff/ghost
      stencil: full/ghost/bin/3d
      bin: standard
  (2) fix qeq/reaxff, perpetual, copy from (1)
      attributes: half, newton off
      pair build: copy
      stencil: none
      bin: none
Setting up Verlet run ...
  Unit style    : real
  Current step  : 0
  Time step     : 0.5
Per MPI rank memory allocation (min/avg/max) = 102 | 103 | 104.3 Mbytes
   Step          Temp          PotEng         Press          Volume           Lx             Ly             Lz      
         0   313.78569     -32192.872     -10486.184      3654.1976      15.4861        14.0699        16.771       
       100   294.58696     -32213.224     -12102.288      3654.1976      15.4861        14.0699        16.771       
       200   307.23244     -32226.573     -4807.0308      3654.1976      15.4861        14.0699        16.771       
       300   288.35361     -32205.864     -403.42603      3654.1976      15.4861        14.0699        16.771       
       400   311.63329     -32211.039     -14711.711      3654.1976      15.4861        14.0699        16.771       
       500   328.13526     -32206.861     -10902.491      3654.1976      15.4861        14.0699        16.771       
       600   299.11086     -32190.828     -15134.022      3654.1976      15.4861        14.0699        16.771       
       700   273.79528     -32195.044     -4830.5055      3654.1976      15.4861        14.0699        16.771       
       800   291.03934     -32214.48      -3668.4627      3654.1976      15.4861        14.0699        16.771       
       900   310.92225     -32234.144     -14899.727      3654.1976      15.4861        14.0699        16.771       
      1000   289.79076     -32214.14      -22168.138      3654.1976      15.4861        14.0699        16.771       
      1100   294.08773     -32180.935     -10791.673      3654.1976      15.4861        14.0699        16.771       
      1200   291.85014     -32168.765     -9681.3891      3654.1976      15.4861        14.0699        16.771       
      1300   318.26197     -32202.856     -7356.0936      3654.1976      15.4861        14.0699        16.771       
      1400   303.32395     -32211.624     -2941.5801      3654.1976      15.4861        14.0699        16.771       
      1500   284.29371     -32201.097     -1802.2345      3654.1976      15.4861        14.0699        16.771       
      1600   295.38348     -32203.854     -10202.914      3654.1976      15.4861        14.0699        16.771       
      1700   289.56983     -32175.228     -4912.705       3654.1976      15.4861        14.0699        16.771       
      1800   314.65661     -32177.43      -6796.4026      3654.1976      15.4861        14.0699        16.771       
      1900   316.2144      -32197.458     -7408.9565      3654.1976      15.4861        14.0699        16.771       
      2000   317.80363     -32223.204     -22151.26       3654.1976      15.4861        14.0699        16.771       
      2100   305.41032     -32217.856     -9033.2424      3654.1976      15.4861        14.0699        16.771       
      2200   286.87514     -32213.464     -3635.4346      3654.1976      15.4861        14.0699        16.771       
      2300   290.95493     -32219.558     -8624.498       3654.1976      15.4861        14.0699        16.771       
      2400   318.60887     -32209.181     -16256.749      3654.1976      15.4861        14.0699        16.771       
      2500   301.27941     -32178.63      -534.12878      3654.1976      15.4861        14.0699        16.771       
      2600   309.11911     -32197.845     -4819.2245      3654.1976      15.4861        14.0699        16.771       
      2700   296.25376     -32198.636     -8921.9292      3654.1976      15.4861        14.0699        16.771       
      2800   297.31163     -32204.919     -18191.99       3654.1976      15.4861        14.0699        16.771       
      2900   286.94172     -32194.358     -8123.6679      3654.1976      15.4861        14.0699        16.771       
      3000   312.54648     -32194.593     -7807.1014      3654.1976      15.4861        14.0699        16.771       
      3100   327.79921     -32183.398     -6265.151       3654.1976      15.4861        14.0699        16.771       
      3200   296.61143     -32171.259     -21259.986      3654.1976      15.4861        14.0699        16.771       
      3300   300.08289     -32202.198     -11180.383      3654.1976      15.4861        14.0699        16.771       
      3400   284.28579     -32192.817     -13153.906      3654.1976      15.4861        14.0699        16.771       
      3500   311.24422     -32214.171     -14227.16       3654.1976      15.4861        14.0699        16.771       
      3600   273.58047     -32194.237     -21094.722      3654.1976      15.4861        14.0699        16.771       
      3700   305.06201     -32228.588     -17169.478      3654.1976      15.4861        14.0699        16.771       
      3800   288.16383     -32208.699     -8577.5556      3654.1976      15.4861        14.0699        16.771       
      3900   322.65905     -32202         -7911.5618      3654.1976      15.4861        14.0699        16.771       
      4000   314.68071     -32179.808     -10663.959      3654.1976      15.4861        14.0699        16.771       
      4100   289.79975     -32178.64      -11087.982      3654.1976      15.4861        14.0699        16.771       
      4200   311.39333     -32204.573     -6192.1667      3654.1976      15.4861        14.0699        16.771       
      4300   291.1586      -32188.582     -10761.995      3654.1976      15.4861        14.0699        16.771       
      4400   289.36052     -32194.171     -17321.075      3654.1976      15.4861        14.0699        16.771       
      4500   277.62416     -32190.693     -8644.9468      3654.1976      15.4861        14.0699        16.771       
      4600   291.97429     -32209.7       -5669.9554      3654.1976      15.4861        14.0699        16.771       
      4700   274.46418     -32195.2       -16580.737      3654.1976      15.4861        14.0699        16.771       
      4800   305.74733     -32197.011     -3099.7734      3654.1976      15.4861        14.0699        16.771       
      4900   310.52725     -32184.07      -7482.1371      3654.1976      15.4861        14.0699        16.771       
      5000   294.27744     -32189.399     -8603.6929      3654.1976      15.4861        14.0699        16.771       
Loop time of 185.24 on 16 procs for 5000 steps with 274 atoms

Performance: 1.166 ns/day, 20.582 hours/ns, 26.992 timesteps/s, 7.396 katom-step/s
99.3% CPU use with 8 MPI tasks x 2 OpenMP threads

MPI task timing breakdown:
Section |  min time  |  avg time  |  max time  |%varavg| %total
---------------------------------------------------------------
Pair    | 135.92     | 139.13     | 144.55     |  21.5 | 75.11
Bond    | 0.0015104  | 0.0018713  | 0.0021879  |   0.5 |  0.00
Neigh   | 9.9472     | 10.065     | 10.236     |   3.4 |  5.43
Comm    | 11.884     | 17.359     | 20.64      |  61.7 |  9.37
Output  | 0.029105   | 0.034281   | 0.039406   |   2.0 |  0.02
Modify  | 17.507     | 17.705     | 17.908     |   2.8 |  9.56
Other   |            | 0.9425     |            |       |  0.51

Nlocal:          34.25 ave          40 max          27 min
Histogram: 1 0 1 1 0 0 2 1 0 2
Nghost:         2734.5 ave        2777 max        2699 min
Histogram: 1 0 2 1 1 1 0 0 1 1
Neighs:        17988.5 ave       20882 max       14344 min
Histogram: 1 0 1 1 0 0 2 1 0 2

Total # of neighbors = 143908
Ave neighs/atom = 525.21168
Ave special neighs/atom = 0
Neighbor list builds = 500
Dangerous builds not checked
  using 2 OpenMP thread(s) per MPI task
Reading restart file ...
  restart file = 2 Aug 2023, LAMMPS = 2 Aug 2023
  restoring atom style full from restart
  triclinic box = (0 0 0) to (15.4861 14.0699 16.771) with tilt (-7.3915 0.9919 1.0308)
WARNING: Triclinic box skew is large. LAMMPS will run inefficiently. (src/domain.cpp:220)
  2 by 2 by 2 MPI processor grid
  pair style reaxff stores no restart info
  274 atoms
Finding 1-2 1-3 1-4 neighbors ...
  special bond factors lj:    0        0        0       
  special bond factors coul:  0        0        0       
     0 = max # of 1-2 neighbors
     0 = max # of 1-3 neighbors
     0 = max # of 1-4 neighbors
     1 = max # of special neighbors
  special bonds CPU = 0.000 seconds
  read_restart CPU = 0.003 seconds
*****Positive-deform 6 starts.*****
Resetting global fix info from restart file:
  fix style: nvt, fix ID: fnvt
All restart file global fix info was re-assigned
Neighbor list info ...
  update: every = 10 steps, delay = 0 steps, check = no
  max neighbors/atom: 2000, page size: 100000
  master list distance cutoff = 12
  ghost atom cutoff = 12
  binsize = 6, bins = 4 3 3
  2 neighbor lists, perpetual/occasional/extra = 2 0 0
  (1) pair reaxff, perpetual
      attributes: half, newton off, ghost
      pair build: half/bin/newtoff/ghost
      stencil: full/ghost/bin/3d
      bin: standard
  (2) fix qeq/reaxff, perpetual, copy from (1)
      attributes: half, newton off
      pair build: copy
      stencil: none
      bin: none
Setting up Verlet run ...
  Unit style    : real
  Current step  : 0
  Time step     : 0.5
Per MPI rank memory allocation (min/avg/max) = 102 | 103.1 | 104.3 Mbytes
   Step          Temp          PotEng         Press          Volume           Lx             Ly             Lz      
         0   313.78569     -32192.872     -10486.184      3654.1976      15.4861        14.0699        16.771       
       100   293.83532     -32212.91      -12199.932      3654.1976      15.4861        14.0699        16.771       
       200   311.48809     -32227.788     -3308.4541      3654.1976      15.4861        14.0699        16.771       
       300   286.58519     -32206.637     -2953.7771      3654.1976      15.4861        14.0699        16.771       
       400   305.85024     -32208.235     -10796.048      3654.1976      15.4861        14.0699        16.771       
       500   316.75977     -32200.056     -2857.0224      3654.1976      15.4861        14.0699        16.771       
       600   305.17503     -32196.226     -17981.41       3654.1976      15.4861        14.0699        16.771       
       700   288.75383     -32212.131     -11758.662      3654.1976      15.4861        14.0699        16.771       
       800   280.71664     -32207.592     -5267.269       3654.1976      15.4861        14.0699        16.771       
       900   310.55427     -32223.674     -7005.589       3654.1976      15.4861        14.0699        16.771       
      1000   293.92956     -32207.397     -14728.911      3654.1976      15.4861        14.0699        16.771       
      1100   298.36161     -32224.118     -13621.412      3654.1976      15.4861        14.0699        16.771       
      1200   260.24571     -32201.615     -8700.4047      3654.1976      15.4861        14.0699        16.771       
      1300   316.0752      -32219.444     -10157.282      3654.1976      15.4861        14.0699        16.771       
      1400   315.64209     -32199.703     -11712.14       3654.1976      15.4861        14.0699        16.771       
      1500   319.36449     -32218.182     -1301.9028      3654.1976      15.4861        14.0699        16.771       
      1600   293.88277     -32208.775     -13697.674      3654.1976      15.4861        14.0699        16.771       
      1700   297.72886     -32215.575      1229.9775      3654.1976      15.4861        14.0699        16.771       
      1800   289.32473     -32208.018     -4749.6724      3654.1976      15.4861        14.0699        16.771       
      1900   289.06561     -32204.524      1355.5895      3654.1976      15.4861        14.0699        16.771       
      2000   320.80831     -32234.555     -22233.082      3654.1976      15.4861        14.0699        16.771       
      2100   286.48698     -32222.752     -19236.645      3654.1976      15.4861        14.0699        16.771       
      2200   287.69162     -32224.125     -11912.709      3654.1976      15.4861        14.0699        16.771       
      2300   305.70654     -32216.653     -19397.383      3654.1976      15.4861        14.0699        16.771       
      2400   334.31521     -32215.301     -12563.442      3654.1976      15.4861        14.0699        16.771       
      2500   297.77122     -32193.146     -10345.941      3654.1976      15.4861        14.0699        16.771       
      2600   298.9841      -32208.148     -9097.5083      3654.1976      15.4861        14.0699        16.771       
      2700   284.43779     -32194.464     -10476.572      3654.1976      15.4861        14.0699        16.771       
      2800   293.78206     -32203.515     -1955.7064      3654.1976      15.4861        14.0699        16.771       
      2900   270.29342     -32206.302     -1612.287       3654.1976      15.4861        14.0699        16.771       
      3000   298.09929     -32231.124     -5753.7878      3654.1976      15.4861        14.0699        16.771       
      3100   314.89462     -32235.246     -13762.8        3654.1976      15.4861        14.0699        16.771       
      3200   313.97132     -32222.454     -1386.3444      3654.1976      15.4861        14.0699        16.771       
      3300   313.79635     -32208.781     -12457.947      3654.1976      15.4861        14.0699        16.771       
      3400   303.40282     -32195.168     -13456.877      3654.1976      15.4861        14.0699        16.771       
      3500   289.2407      -32186.899     -5103.8242      3654.1976      15.4861        14.0699        16.771       
      3600   300.91177     -32216.221     -6564.3491      3654.1976      15.4861        14.0699        16.771       
      3700   266.45949     -32196.84      -5666.0623      3654.1976      15.4861        14.0699        16.771       
      3800   296.15325     -32208.332      1775.8632      3654.1976      15.4861        14.0699        16.771       
      3900   297.4731      -32174.137     -5782.602       3654.1976      15.4861        14.0699        16.771       
      4000   317.28553     -32177.203     -3290.9955      3654.1976      15.4861        14.0699        16.771       
      4100   305.28314     -32188.47      -16024.843      3654.1976      15.4861        14.0699        16.771       
      4200   309.05953     -32207.79       2421.094       3654.1976      15.4861        14.0699        16.771       
      4300   316.95704     -32219.806     -14098.141      3654.1976      15.4861        14.0699        16.771       
      4400   308.77528     -32220.479     -11016.641      3654.1976      15.4861        14.0699        16.771       
      4500   275.75299     -32213.799     -11095.347      3654.1976      15.4861        14.0699        16.771       
      4600   266.5144      -32220.908     -3001.08        3654.1976      15.4861        14.0699        16.771       
      4700   295.29877     -32223.555     -5718.6218      3654.1976      15.4861        14.0699        16.771       
      4800   303.42047     -32195.419     -15353.881      3654.1976      15.4861        14.0699        16.771       
      4900   300.56043     -32185.977     -19326.628      3654.1976      15.4861        14.0699        16.771       
      5000   296.67931     -32189.69      -16685.626      3654.1976      15.4861        14.0699        16.771       
Loop time of 178.922 on 16 procs for 5000 steps with 274 atoms

Performance: 1.207 ns/day, 19.880 hours/ns, 27.945 timesteps/s, 7.657 katom-step/s
99.3% CPU use with 8 MPI tasks x 2 OpenMP threads

MPI task timing breakdown:
Section |  min time  |  avg time  |  max time  |%varavg| %total
---------------------------------------------------------------
Pair    | 129.98     | 132.75     | 137.27     |  19.6 | 74.19
Bond    | 0.0014774  | 0.0018939  | 0.0022097  |   0.5 |  0.00
Neigh   | 10.367     | 10.629     | 10.829     |   4.3 |  5.94
Comm    | 12.285     | 16.799     | 19.484     |  54.9 |  9.39
Output  | 0.027117   | 0.032027   | 0.037378   |   2.0 |  0.02
Modify  | 17.475     | 17.794     | 18.103     |   4.7 |  9.94
Other   |            | 0.9177     |            |       |  0.51

Nlocal:          34.25 ave          39 max          28 min
Histogram: 2 0 0 1 1 0 0 0 1 3
Nghost:        2487.88 ave        2506 max        2473 min
Histogram: 2 1 1 0 1 0 0 1 0 2
Neighs:        17959.9 ave       20327 max       14692 min
Histogram: 2 0 0 1 1 0 0 0 1 3

Total # of neighbors = 143679
Ave neighs/atom = 524.37591
Ave special neighs/atom = 0
Neighbor list builds = 500
Dangerous builds not checked
Total wall time: 0:39:37
