LAMMPS (2 Aug 2023 - Update 2)
  using 1 OpenMP thread(s) per MPI task
Reading data file ...
  triclinic box = (0 0 0) to (15.724 13.9031 17.2465) with tilt (-7.584 0.1778 0.4371)
WARNING: Triclinic box skew is large. LAMMPS will run inefficiently. (src/domain.cpp:220)
  2 by 2 by 2 MPI processor grid
  reading atoms ...
  366 atoms
  reading velocities ...
  366 velocities
Finding 1-2 1-3 1-4 neighbors ...
  special bond factors lj:    0        0        0       
  special bond factors coul:  0        0        0       
     0 = max # of 1-2 neighbors
     0 = max # of 1-3 neighbors
     0 = max # of 1-4 neighbors
     1 = max # of special neighbors
  special bonds CPU = 0.001 seconds
  read_data CPU = 0.008 seconds
WARNING: Van der Waals parameters for element SI indicate inner wall+shielding, but earlier atoms indicate a different van der Waals method. This may cause division-by-zero errors. Keeping van der Waals setting for earlier atoms. (src/REAXFF/reaxff_ffield.cpp:251)
System init for write_restart ...
Neighbor list info ...
  update: every = 1 steps, delay = 0 steps, check = yes
  max neighbors/atom: 2000, page size: 100000
  master list distance cutoff = 12
  ghost atom cutoff = 12
  binsize = 6, bins = 4 3 3
  2 neighbor lists, perpetual/occasional/extra = 2 0 0
  (1) pair reaxff, perpetual
      attributes: half, newton off, ghost
      pair build: half/bin/newtoff/ghost
      stencil: full/ghost/bin/3d
      bin: standard
  (2) fix qeq/reaxff, perpetual, copy from (1)
      attributes: half, newton off
      pair build: copy
      stencil: none
      bin: none
  using 1 OpenMP thread(s) per MPI task
Reading restart file ...
  restart file = 2 Aug 2023, LAMMPS = 2 Aug 2023
  restoring atom style full from restart
  triclinic box = (0 0 0) to (15.724 13.9031 17.2465) with tilt (-7.584 0.1778 0.4371)
WARNING: Triclinic box skew is large. LAMMPS will run inefficiently. (src/domain.cpp:220)
  2 by 2 by 2 MPI processor grid
  pair style reaxff stores no restart info
  366 atoms
Finding 1-2 1-3 1-4 neighbors ...
  special bond factors lj:    0        0        0       
  special bond factors coul:  0        0        0       
     0 = max # of 1-2 neighbors
     0 = max # of 1-3 neighbors
     0 = max # of 1-4 neighbors
     1 = max # of special neighbors
  special bonds CPU = 0.000 seconds
  read_restart CPU = 0.004 seconds
*****debug*****
xy = -7.5839999999999996305, deltaxy = 0.07584
xz = 0.17780000000000001359, deltaxz = -0.001778
yz = 0.43709999999999998854, deltayz = -0.004371
*****
*****Negative-deform 1 starts.*****
WARNING: Van der Waals parameters for element SI indicate inner wall+shielding, but earlier atoms indicate a different van der Waals method. This may cause division-by-zero errors. Keeping van der Waals setting for earlier atoms. (src/REAXFF/reaxff_ffield.cpp:251)

CITE-CITE-CITE-CITE-CITE-CITE-CITE-CITE-CITE-CITE-CITE-CITE-CITE

Your simulation uses code contributions which should be cited:
- pair reaxff command: doi:10.1016/j.parco.2011.08.005
- fix qeq/reaxff command: doi:10.1016/j.parco.2011.08.005
The log file lists these citations in BibTeX format.

CITE-CITE-CITE-CITE-CITE-CITE-CITE-CITE-CITE-CITE-CITE-CITE-CITE

Neighbor list info ...
  update: every = 10 steps, delay = 0 steps, check = yes
  max neighbors/atom: 2000, page size: 100000
  master list distance cutoff = 12
  ghost atom cutoff = 12
  binsize = 6, bins = 4 3 3
  2 neighbor lists, perpetual/occasional/extra = 2 0 0
  (1) pair reaxff, perpetual
      attributes: half, newton off, ghost
      pair build: half/bin/newtoff/ghost
      stencil: full/ghost/bin/3d
      bin: standard
  (2) fix qeq/reaxff, perpetual, copy from (1)
      attributes: half, newton off
      pair build: copy
      stencil: none
      bin: none
Setting up Verlet run ...
  Unit style    : real
  Current step  : 0
  Time step     : 0.5
Per MPI rank memory allocation (min/avg/max) = 132.8 | 134.4 | 136.7 Mbytes
   Step          Temp          PotEng         Press          Volume    
         0   300           -41133.599      5538.1926      3770.2978    
       100   287.03918     -41121.883     -10052.108      3769.9208    
       200   278.65596     -41125.139     -3517.3857      3769.5437    
       300   296.29453     -41157.854     -5993.7052      3769.1667    
       400   279.79267     -41138.711     -6342.9928      3768.7897    
       500   282.26802     -41109.639     -10415.257      3768.4126    
       600   320.21377     -41132.419     -15266.357      3768.0356    
       700   304.25798     -41116.005     -7064.3834      3767.6586    
       800   298.53956     -41130.004      4322.7458      3767.2816    
       900   278.42963     -41125.709      2189.0728      3766.9045    
      1000   286.20041     -41128.634      1222.2781      3766.5275    
      1100   301.6593      -41138.395      4817.5904      3766.1505    
      1200   293.8281      -41132.72      -4612.1228      3765.7734    
      1300   296.46178     -41146.069     -7105.3393      3765.3964    
      1400   288.82786     -41134.124     -6409.4475      3765.0194    
      1500   318.74137     -41140.107      746.47529      3764.6424    
      1600   294.13508     -41113.746     -12678.9        3764.2653    
      1700   290.36413     -41132.248     -2459.5107      3763.8883    
      1800   269.06957     -41137.965     -2605.771       3763.5113    
      1900   302.74191     -41162.73      -6737.6055      3763.1342    
      2000   282.15964     -41130.121      2040.2128      3762.7572    
      2100   302.76367     -41133.474      7539.3695      3762.3802    
      2200   319.33068     -41138.946     -3561.1334      3762.0031    
      2300   290.58784     -41117.827      4597.4218      3761.6261    
      2400   289.68773     -41153.119      4611.064       3761.2491    
      2500   304.41073     -41175.514     -8575.2193      3760.8721    
      2600   287.7826      -41140.01      -8074.3534      3760.495     
      2700   306.94818     -41140.307     -5885.1304      3760.118     
      2800   299.41731     -41125.699     -4188.6474      3759.741     
      2900   301.31452     -41131.371     -2037.5246      3759.3639    
      3000   298.05435     -41154.26      -5867.8678      3758.9869    
      3100   272.74242     -41146.705     -1284.8013      3758.6099    
      3200   304.77201     -41158.927      26.059248      3758.2328    
      3300   310.13088     -41152.167     -17401.559      3757.8558    
      3400   312.19152     -41159.109     -9295.5172      3757.4788    
      3500   298.52014     -41156.019      9646.8503      3757.1018    
      3600   292.84146     -41153.684      3083.5343      3756.7247    
      3700   298.69818     -41132.599      211.96318      3756.3477    
      3800   288.45811     -41104.024     -17320.136      3755.9707    
      3900   303.78409     -41121.729      1112.0191      3755.5936    
      4000   296.09991     -41140.92       9427.0974      3755.2166    
      4100   276.74656     -41144.568     -2810.9223      3754.8396    
      4200   283.01636     -41143.119     -14144.478      3754.4625    
      4300   302.10131     -41142.483     -7199.3505      3754.0855    
      4400   308.58279     -41138.903      5721.979       3753.7085    
      4500   288.6338      -41113.15      -2424.0786      3753.3315    
      4600   315.98919     -41136.575     -4093.292       3752.9544    
      4700   306.66249     -41143.142      3337.142       3752.5774    
      4800   283.6252      -41145.883     -7439.8279      3752.2004    
      4900   288.27734     -41152.265     -4219.5052      3751.8233    
      5000   288.70463     -41126.785      5865.0166      3751.4463    
      5100   312.90308     -41135.375      8650.5127      3751.0693    
      5200   312.35022     -41137.305      1456.2135      3750.6922    
      5300   301.24948     -41128.964     -2460.8679      3750.3152    
      5400   307.54393     -41136.155     -9224.2354      3749.9382    
      5500   302.96639     -41156.402      5852.6099      3749.5612    
      5600   294.97322     -41170.075      7842.8695      3749.1841    
      5700   292.59152     -41152.319      4363.1237      3748.8071    
      5800   306.07798     -41139.43      -4501.6979      3748.4301    
      5900   311.2992      -41136.684     -5549.9124      3748.053     
      6000   285.49647     -41109.226      3533.9731      3747.676     
      6100   307.38928     -41139.02      -1341.9835      3747.299     
      6200   296.69211     -41161.24      -5447.4691      3746.922     
      6300   278.70468     -41155.315     -4483.9678      3746.5449    
      6400   281.21041     -41134.531     -973.29511      3746.1679    
      6500   326.03907     -41163.714     -3928.0533      3745.7909    
      6600   304.45129     -41138.514     -6309.7681      3745.4138    
      6700   294.08733     -41132.1       -12145.43       3745.0368    
      6800   288.49794     -41131.955      1474.1007      3744.6598    
      6900   301.99579     -41156.86       13382.707      3744.2827    
      7000   284.69832     -41138.933      7589.8677      3743.9057    
      7100   304.13239     -41143.402      13228.584      3743.5287    
      7200   309.97765     -41126.307      2103.1722      3743.1517    
      7300   309.21337     -41135.655     -10806.264      3742.7746    
      7400   295.62179     -41154.216     -4960.1563      3742.3976    
      7500   277.12622     -41138.87      -263.7009       3742.0206    
      7600   294.18643     -41142.585      349.07855      3741.6435    
      7700   304.95605     -41143.543     -5542.6262      3741.2665    
      7800   308.16284     -41143.939     -10490.694      3740.8895    
      7900   297.42472     -41146.529     -1585.2279      3740.5124    
      8000   294.49669     -41165.825      1651.8746      3740.1354    
      8100   286.36908     -41155.604      501.73754      3739.7584    
      8200   293.605       -41129.61       8285.6246      3739.3814    
      8300   305.03547     -41130.704     -2520.1088      3739.0043    
      8400   326.8065      -41159.644     -9540.5158      3738.6273    
      8500   293.6855      -41147.113     -6653.9088      3738.2503    
      8600   297.39531     -41158.406      1567.6292      3737.8732    
      8700   307.33579     -41141.729      480.98313      3737.4962    
      8800   340.0669      -41144.055     -9502.02        3737.1192    
      8900   305.4398      -41122.628      13613.067      3736.7421    
      9000   287.39483     -41126.454      2250.117       3736.3651    
      9100   288.52751     -41138.08      -4962.1487      3735.9881    
      9200   296.4212      -41138.757     -8439.2002      3735.6111    
      9300   312.32862     -41133.184      5872.6611      3735.234     
      9400   321.11552     -41104.561      841.96684      3734.857     
      9500   334.67427     -41135.513      2155.1338      3734.48      
      9600   308.64036     -41137.917     -8076.7959      3734.1029    
      9700   313.30625     -41156.523      1311.3119      3733.7259    
      9800   288.73933     -41136.279     -2741.1577      3733.3489    
      9900   288.8315      -41148.339      2954.391       3732.9718    
     10000   275.20203     -41140.106      1282.5426      3732.5948    
Loop time of 494.306 on 8 procs for 10000 steps with 366 atoms

Performance: 0.874 ns/day, 27.461 hours/ns, 20.230 timesteps/s, 7.404 katom-step/s
98.9% CPU use with 8 MPI tasks x 1 OpenMP threads

MPI task timing breakdown:
Section |  min time  |  avg time  |  max time  |%varavg| %total
---------------------------------------------------------------
Pair    | 325.66     | 416.74     | 441.77     | 180.5 | 84.31
Bond    | 0.027727   | 0.029579   | 0.03175    |   0.8 |  0.01
Neigh   | 3.4711     | 4.1979     | 4.4382     |  14.6 |  0.85
Comm    | 7.1615     | 32.162     | 123.28     | 650.2 |  6.51
Output  | 0.032713   | 0.087878   | 0.19995    |  20.0 |  0.02
Modify  | 40.577     | 40.803     | 41.558     |   4.8 |  8.25
Other   |            | 0.2809     |            |       |  0.06

Nlocal:          45.75 ave          51 max          42 min
Histogram: 1 2 0 1 0 2 1 0 0 1
Nghost:        3455.38 ave        3524 max        3392 min
Histogram: 1 1 0 2 0 2 0 0 1 1
Neighs:        31424.4 ave       34865 max       28835 min
Histogram: 1 2 0 1 0 2 1 0 0 1

Total # of neighbors = 251395
Ave neighs/atom = 686.87158
Ave special neighs/atom = 0
Neighbor list builds = 117
Dangerous builds = 0
  using 1 OpenMP thread(s) per MPI task
Reading restart file ...
  restart file = 2 Aug 2023, LAMMPS = 2 Aug 2023
  restoring atom style full from restart
  triclinic box = (0 0 0) to (15.724 13.9031 17.2465) with tilt (-7.584 0.1778 0.4371)
WARNING: Triclinic box skew is large. LAMMPS will run inefficiently. (src/domain.cpp:220)
  2 by 2 by 2 MPI processor grid
  pair style reaxff stores no restart info
  366 atoms
Finding 1-2 1-3 1-4 neighbors ...
  special bond factors lj:    0        0        0       
  special bond factors coul:  0        0        0       
     0 = max # of 1-2 neighbors
     0 = max # of 1-3 neighbors
     0 = max # of 1-4 neighbors
     1 = max # of special neighbors
  special bonds CPU = 0.000 seconds
  read_restart CPU = 0.003 seconds
*****Positive-deform 1 starts.*****
WARNING: Van der Waals parameters for element SI indicate inner wall+shielding, but earlier atoms indicate a different van der Waals method. This may cause division-by-zero errors. Keeping van der Waals setting for earlier atoms. (src/REAXFF/reaxff_ffield.cpp:251)
Neighbor list info ...
  update: every = 10 steps, delay = 0 steps, check = yes
  max neighbors/atom: 2000, page size: 100000
  master list distance cutoff = 12
  ghost atom cutoff = 12
  binsize = 6, bins = 4 3 3
  2 neighbor lists, perpetual/occasional/extra = 2 0 0
  (1) pair reaxff, perpetual
      attributes: half, newton off, ghost
      pair build: half/bin/newtoff/ghost
      stencil: full/ghost/bin/3d
      bin: standard
  (2) fix qeq/reaxff, perpetual, copy from (1)
      attributes: half, newton off
      pair build: copy
      stencil: none
      bin: none
Setting up Verlet run ...
  Unit style    : real
  Current step  : 0
  Time step     : 0.5
Per MPI rank memory allocation (min/avg/max) = 132.8 | 134.4 | 136.7 Mbytes
   Step          Temp          PotEng         Press          Volume    
         0   300           -41133.599      5538.1926      3770.2978    
       100   287.03848     -41121.888     -10046.363      3770.6748    
       200   278.87363     -41125.368     -3507.5213      3771.0519    
       300   296.3479      -41157.475     -5879.4446      3771.4289    
       400   279.60635     -41138.233     -4178.8302      3771.8059    
       500   285.83707     -41113.231     -12550.168      3772.1829    
       600   318.40946     -41128.583     -11282.09       3772.56      
       700   306.51943     -41116.498     -5695.3044      3772.937     
       800   295.01356     -41128.454      4647.2333      3773.314     
       900   283.80672     -41122.906     -9293.7193      3773.6911    
      1000   295.44299     -41125.205     -7956.3858      3774.0681    
      1100   297.37677     -41129.407     -3435.739       3774.4451    
      1200   291.85275     -41141.164     -2733.6879      3774.8222    
      1300   276.04385     -41153.981     -14885.691      3775.1992    
      1400   283.89016     -41147.716     -10908.241      3775.5762    
      1500   302.20607     -41139.065     -10222.804      3775.9532    
      1600   287.5294      -41116.534     -13111.107      3776.3303    
      1700   312.01823     -41132.15      -5429.9386      3776.7073    
      1800   305.47276     -41110.997     -7008.9939      3777.0843    
      1900   324.63962     -41110.122     -6775.0952      3777.4614    
      2000   291.0623      -41088.05      -8405.5369      3777.8384    
      2100   284.97248     -41115.856     -4813.652       3778.2154    
      2200   312.51866     -41156.701     -3765.219       3778.5925    
      2300   300.54663     -41141.711     -6459.4869      3778.9695    
      2400   299.69704     -41115.706     -7844.1872      3779.3465    
      2500   321.68287     -41111.017     -15015.586      3779.7235    
      2600   309.31851     -41107.587     -8617.3636      3780.1006    
      2700   308.0567      -41131.404     -7631.046       3780.4776    
      2800   273.62122     -41104.464     -3163.1597      3780.8546    
      2900   307.0929      -41138.393     -2175.1881      3781.2317    
      3000   308.92198     -41133.866     -7619.0542      3781.6087    
      3100   296.08789     -41102.321     -4289.9283      3781.9857    
      3200   294.99824     -41084.574     -10107.285      3782.3628    
      3300   305.74376     -41106.44       2784.2367      3782.7398    
      3400   318.76546     -41157.892     -9269.2619      3783.1168    
      3500   301.67433     -41149.37      -3203.502       3783.4938    
      3600   286.14998     -41117.999     -2205.9023      3783.8709    
      3700   325.81758     -41138.956     -9426.7732      3784.2479    
      3800   305.83121     -41119.567     -6453.8457      3784.6249    
      3900   300.38163     -41125.624     -12468.453      3785.002     
      4000   291.15319     -41123.999     -4006.6859      3785.379     
      4100   278.02679     -41104.628     -7112.7692      3785.756     
      4200   319.987       -41099.477     -4336.1537      3786.133     
      4300   338.21881     -41121.324     -2928.0063      3786.5101    
      4400   304.13645     -41119.617     -2026.309       3786.8871    
      4500   302.854       -41137.685     -10664.75       3787.2641    
      4600   301.5978      -41148.902     -7779.285       3787.6412    
      4700   296.88653     -41153.215     -7662.8593      3788.0182    
      4800   285.85817     -41123.914     -382.56124      3788.3952    
      4900   313.73189     -41125.06      -3946.2788      3788.7723    
      5000   306.42608     -41121.691     -17331.258      3789.1493    
      5100   294.20684     -41135.595     -9323.2883      3789.5263    
      5200   299.32579     -41148.267     -5693.8857      3789.9033    
      5300   291.94759     -41133.387     -6318.5251      3790.2804    
      5400   305.8556      -41140.022     -488.71269      3790.6574    
      5500   281.80784     -41113.071     -11987.939      3791.0344    
      5600   294.7276      -41122.646     -7049.431       3791.4115    
      5700   328.40919     -41140.518     -1286.346       3791.7885    
      5800   331.74548     -41133.548     -5694.0867      3792.1655    
      5900   304.19179     -41134.506     -4894.7137      3792.5426    
      6000   301.21679     -41145.654     -3174.1726      3792.9196    
      6100   275.2231      -41114.438      3171.803       3793.2966    
      6200   299.66516     -41116.67      -9067.168       3793.6736    
      6300   298.7479      -41104.063     -16059.633      3794.0507    
      6400   322.12299     -41138.485     -13624.237      3794.4277    
      6500   318.3668      -41156.189     -13049.886      3794.8047    
      6600   291.30694     -41144.861      1249.7833      3795.1818    
      6700   293.70676     -41143.726     -5804.7011      3795.5588    
      6800   291.51256     -41125.574     -8640.4309      3795.9358    
      6900   301.65845     -41131.91       5868.3937      3796.3129    
      7000   318.55378     -41141.945     -8640.7194      3796.6899    
      7100   294.55107     -41118.651     -15406.043      3797.0669    
      7200   310.1594      -41149.475     -8008.6954      3797.4439    
      7300   293.03991     -41158.499     -125.65079      3797.821     
      7400   278.76632     -41143.688     -4187.297       3798.198     
      7500   288.14594     -41123.661     -5245.9756      3798.575     
      7600   324.41235     -41147.802     -2232.1921      3798.9521    
      7700   301.00484     -41126.792      3744.9955      3799.3291    
      7800   293.04884     -41124.82      -13318.859      3799.7061    
      7900   281.5109      -41129.303     -3579.2166      3800.0832    
      8000   282.30576     -41148.643     -5431.6534      3800.4602    
      8100   282.27747     -41136.685     -7510.7711      3800.8372    
      8200   313.95916     -41141.278     -9106.8443      3801.2142    
      8300   296.54384     -41110.424     -8559.9229      3801.5913    
      8400   316.25895     -41128.592      2923.6669      3801.9683    
      8500   299.6129      -41138.032      1059.0127      3802.3453    
      8600   275.68603     -41138.37      -7991.4435      3802.7224    
      8700   298.70543     -41151.316      2617.339       3803.0994    
      8800   307.42601     -41135.498      1677.1047      3803.4764    
      8900   293.90013     -41107.919      2074.9616      3803.8534    
      9000   333.73429     -41150.644     -5122.1746      3804.2305    
      9100   305.68804     -41138.25      -4376.5612      3804.6075    
      9200   281.97972     -41123.4       -13355.569      3804.9845    
      9300   306.77334     -41105.721      4274.9287      3805.3616    
      9400   321.77982     -41110.07      -2570.5736      3805.7386    
      9500   284.68316     -41101.252     -63.738838      3806.1156    
      9600   307.84338     -41138.746     -9721.7927      3806.4927    
      9700   288.49318     -41129.189     -8636.1679      3806.8697    
      9800   296.99669     -41157.403     -164.06923      3807.2467    
      9900   272.22957     -41134.913     -8236.4755      3807.6237    
     10000   293.70483     -41123.879     -11634.856      3808.0008    
Loop time of 490.24 on 8 procs for 10000 steps with 366 atoms

Performance: 0.881 ns/day, 27.236 hours/ns, 20.398 timesteps/s, 7.466 katom-step/s
98.9% CPU use with 8 MPI tasks x 1 OpenMP threads

MPI task timing breakdown:
Section |  min time  |  avg time  |  max time  |%varavg| %total
---------------------------------------------------------------
Pair    | 409.85     | 430.34     | 437.84     |  41.2 | 87.78
Bond    | 0.02773    | 0.029933   | 0.032998   |   0.9 |  0.01
Neigh   | 4.3823     | 4.5965     | 4.8358     |   5.6 |  0.94
Comm    | 6.77       | 14.257     | 34.835     | 226.9 |  2.91
Output  | 0.03188    | 0.087809   | 0.20273    |  20.4 |  0.02
Modify  | 40.397     | 40.637     | 40.826     |   1.8 |  8.29
Other   |            | 0.2916     |            |       |  0.06

Nlocal:          45.75 ave          50 max          41 min
Histogram: 1 0 0 2 1 2 0 0 0 2
Nghost:        3423.12 ave        3460 max        3384 min
Histogram: 1 0 1 1 1 1 1 0 1 1
Neighs:        30747.5 ave       33461 max       27609 min
Histogram: 1 0 0 2 1 2 0 0 0 2

Total # of neighbors = 245980
Ave neighs/atom = 672.0765
Ave special neighs/atom = 0
Neighbor list builds = 124
Dangerous builds = 0
  using 1 OpenMP thread(s) per MPI task
Reading restart file ...
  restart file = 2 Aug 2023, LAMMPS = 2 Aug 2023
  restoring atom style full from restart
  triclinic box = (0 0 0) to (15.724 13.9031 17.2465) with tilt (-7.584 0.1778 0.4371)
WARNING: Triclinic box skew is large. LAMMPS will run inefficiently. (src/domain.cpp:220)
  2 by 2 by 2 MPI processor grid
  pair style reaxff stores no restart info
  366 atoms
Finding 1-2 1-3 1-4 neighbors ...
  special bond factors lj:    0        0        0       
  special bond factors coul:  0        0        0       
     0 = max # of 1-2 neighbors
     0 = max # of 1-3 neighbors
     0 = max # of 1-4 neighbors
     1 = max # of special neighbors
  special bonds CPU = 0.000 seconds
  read_restart CPU = 0.003 seconds
*****debug*****
xy = -7.5839999999999996305, deltaxy = 0.07584
xz = 0.17780000000000001359, deltaxz = -0.001778
yz = 0.43709999999999998854, deltayz = -0.004371
*****
*****Negative-deform 2 starts.*****
WARNING: Van der Waals parameters for element SI indicate inner wall+shielding, but earlier atoms indicate a different van der Waals method. This may cause division-by-zero errors. Keeping van der Waals setting for earlier atoms. (src/REAXFF/reaxff_ffield.cpp:251)
Neighbor list info ...
  update: every = 10 steps, delay = 0 steps, check = yes
  max neighbors/atom: 2000, page size: 100000
  master list distance cutoff = 12
  ghost atom cutoff = 12
  binsize = 6, bins = 4 3 3
  2 neighbor lists, perpetual/occasional/extra = 2 0 0
  (1) pair reaxff, perpetual
      attributes: half, newton off, ghost
      pair build: half/bin/newtoff/ghost
      stencil: full/ghost/bin/3d
      bin: standard
  (2) fix qeq/reaxff, perpetual, copy from (1)
      attributes: half, newton off
      pair build: copy
      stencil: none
      bin: none
Setting up Verlet run ...
  Unit style    : real
  Current step  : 0
  Time step     : 0.5
Per MPI rank memory allocation (min/avg/max) = 132.8 | 134.4 | 136.7 Mbytes
   Step          Temp          PotEng         Press          Volume    
         0   300           -41133.599      5538.1926      3770.2978    
       100   287.03575     -41121.872     -10047.014      3769.9208    
       200   278.6346      -41125.207     -3433.5979      3769.5437    
       300   295.92741     -41157.248     -5829.7557      3769.1667    
       400   279.9492      -41138.426     -7065.0778      3768.7897    
       500   283.27964     -41110.841     -12635.856      3768.4126    
       600   316.58473     -41128.213     -14361.827      3768.0356    
       700   304.37009     -41116.724     -14279.825      3767.6586    
       800   296.329       -41127.989      2074.7659      3767.2816    
       900   290.34795     -41133.091     -3936.179       3766.9045    
      1000   307.25887     -41144.853     -7467.5539      3766.5275    
      1100   296.34058     -41127.572      8559.1054      3766.1505    
      1200   300.4628      -41125.027     -1893.36        3765.7734    
      1300   308.74514     -41130.292     -5089.9887      3765.3964    
      1400   291.03264     -41125.899     -3042.8714      3765.0194    
      1500   291.33751     -41141.312     -11737.321      3764.6424    
      1600   304.96727     -41155.581     -1234.9924      3764.2653    
      1700   298.32429     -41117.881     -1772.894       3763.8883    
      1800   320.7694      -41122.402     -5969.6205      3763.5113    
      1900   293.06214     -41102.497     -9716.4994      3763.1342    
      2000   292.29242     -41117.029     -11508.709      3762.7572    
      2100   308.79115     -41143.604      6662.0799      3762.3802    
      2200   306.59902     -41150.958     -1551.9726      3762.0031    
      2300   294.11543     -41141.219     -4493.0549      3761.6261    
      2400   301.52613     -41143.161     -8186.4246      3761.2491    
      2500   306.17934     -41129.804     -6359.429       3760.8721    
      2600   307.98458     -41121.216     -20.159325      3760.495     
      2700   313.81957     -41133.873      5556.5454      3760.118     
      2800   296.96757     -41151.518     -3513.1683      3759.741     
      2900   307.04481     -41167.691     -5856.652       3759.3639    
      3000   297.99436     -41143.243      1187.6277      3758.9869    
      3100   315.64859     -41132.347      2462.0267      3758.6099    
      3200   311.27744     -41125.227     -4476.2662      3758.2328    
      3300   300.8423      -41128.242      3128.6992      3757.8558    
      3400   299.60228     -41148.007      5481.3057      3757.4788    
      3500   283.45099     -41138.589     -951.52433      3757.1018    
      3600   282.6561      -41127.845      8745.3119      3756.7247    
      3700   307.81721     -41146.509      183.43341      3756.3477    
      3800   294.32164     -41129.976      5671.905       3755.9707    
      3900   295.39731     -41126.406     -8936.2093      3755.5936    
      4000   317.0917      -41121.354     -1784.3304      3755.2166    
      4100   321.09479     -41114.234      3182.0741      3754.8396    
      4200   286.21057     -41104.447     -2470.6186      3754.4625    
      4300   312.69553     -41144.08      -3925.8944      3754.0855    
      4400   300.24814     -41131.867     -1122.2953      3753.7085    
      4500   307.69353     -41134.385     -7601.7602      3753.3315    
      4600   310.60979     -41133.81      -531.17479      3752.9544    
      4700   309.24124     -41132.058     -2258.4704      3752.5774    
      4800   295.35411     -41136.365     -2129.6328      3752.2004    
      4900   292.96331     -41154.969      406.87062      3751.8233    
      5000   286.45472     -41147.247      2282.2421      3751.4463    
      5100   308.02669     -41134.832     -4275.0031      3751.0693    
      5200   330.6052      -41143.772     -3614.2993      3750.6922    
      5300   301.30598     -41126.103     -4728.2313      3750.3152    
      5400   298.44888     -41140.947      2421.0092      3749.9382    
      5500   290.16626     -41137.858     -5973.5549      3749.5612    
      5600   313.21836     -41140.236     -5427.1561      3749.1841    
      5700   326.0527      -41126.393     -8707.3995      3748.8071    
      5800   308.46855     -41118.223     -4913.1237      3748.4301    
      5900   296.89806     -41133.692     -7650.3752      3748.053     
      6000   315.69693     -41157.167     -4620.59        3747.676     
      6100   300.51575     -41141.675     -5343.755       3747.299     
      6200   323.6347      -41168.709     -3567.24        3746.922     
      6300   286.20405     -41146.594     -2837.6099      3746.5449    
      6400   293.08185     -41170.997     -6019.2264      3746.1679    
      6500   298.45901     -41165.725      10261.937      3745.7909    
      6600   291.01947     -41127.099     -4603.0578      3745.4138    
      6700   302.30275     -41127.687      7103.4097      3745.0368    
      6800   296.26578     -41117.258     -6537.7724      3744.6598    
      6900   317.4381      -41153.71      -7606.8652      3744.2827    
      7000   280.87371     -41142.239     -5022.8855      3743.9057    
      7100   288.7661      -41143.459      7760.564       3743.5287    
      7200   295.08184     -41136.585     -648.30292      3743.1517    
      7300   304.69545     -41128.955     -4405.9539      3742.7746    
      7400   301.64596     -41126.621     -280.88314      3742.3976    
      7500   303.91446     -41169.521      6596.1562      3742.0206    
      7600   286.19578     -41158.236      4906.7323      3741.6435    
      7700   290.59337     -41143.061     -7477.1433      3741.2665    
      7800   294.83035     -41130.482      3391.0383      3740.8895    
      7900   307.38924     -41132.016      558.89018      3740.5124    
      8000   294.26039     -41117.767     -4752.8073      3740.1354    
      8100   307.70193     -41142.206     -5332.7201      3739.7584    
      8200   287.20308     -41127.633      6609.2275      3739.3814    
      8300   309.68381     -41151.314      1005.3134      3739.0043    
      8400   299.49959     -41133.356     -969.25503      3738.6273    
      8500   322.95232     -41151.745      3165.1462      3738.2503    
      8600   288.67862     -41136.492      7854.7421      3737.8732    
      8700   294.3327      -41164.986      14291.572      3737.4962    
      8800   292.25664     -41154.954      3253.6929      3737.1192    
      8900   290.03129     -41116.726     -1553.8104      3736.7421    
      9000   306.97804     -41133.79       5984.8528      3736.3651    
      9100   311.26475     -41145.809      6570.1955      3735.9881    
      9200   314.23782     -41163.186     -11958.241      3735.6111    
      9300   297.83294     -41173.188      14166.841      3735.234     
      9400   284.43892     -41162.91      -3165.8644      3734.857     
      9500   296.25986     -41133.94       1021.0923      3734.48      
      9600   309.30115     -41133.085     -3757.2051      3734.1029    
      9700   304.27263     -41141.814     -570.91519      3733.7259    
      9800   281.31484     -41140.807      1614.211       3733.3489    
      9900   296.98658     -41169.745     -1885.0843      3732.9718    
     10000   306.94171     -41161.619      3684.0401      3732.5948    
Loop time of 497.198 on 8 procs for 10000 steps with 366 atoms

Performance: 0.869 ns/day, 27.622 hours/ns, 20.113 timesteps/s, 7.361 katom-step/s
98.9% CPU use with 8 MPI tasks x 1 OpenMP threads

MPI task timing breakdown:
Section |  min time  |  avg time  |  max time  |%varavg| %total
---------------------------------------------------------------
Pair    | 386.55     | 426.95     | 443.18     |  91.8 | 85.87
Bond    | 0.02797    | 0.029457   | 0.032227   |   0.7 |  0.01
Neigh   | 3.9953     | 4.4915     | 4.8074     |  11.4 |  0.90
Comm    | 8.4285     | 24.667     | 65.028     | 381.2 |  4.96
Output  | 0.031381   | 0.083572   | 0.19058    |  19.5 |  0.02
Modify  | 40.358     | 40.696     | 41.215     |   4.0 |  8.18
Other   |            | 0.2817     |            |       |  0.06

Nlocal:          45.75 ave          48 max          39 min
Histogram: 1 0 0 0 0 0 1 2 2 2
Nghost:        3472.12 ave        3537 max        3411 min
Histogram: 1 0 2 0 1 1 1 1 0 1
Neighs:        31402.4 ave       32824 max       26878 min
Histogram: 1 0 0 0 0 0 1 2 0 4

Total # of neighbors = 251219
Ave neighs/atom = 686.39071
Ave special neighs/atom = 0
Neighbor list builds = 122
Dangerous builds = 0
  using 1 OpenMP thread(s) per MPI task
Reading restart file ...
  restart file = 2 Aug 2023, LAMMPS = 2 Aug 2023
  restoring atom style full from restart
  triclinic box = (0 0 0) to (15.724 13.9031 17.2465) with tilt (-7.584 0.1778 0.4371)
WARNING: Triclinic box skew is large. LAMMPS will run inefficiently. (src/domain.cpp:220)
  2 by 2 by 2 MPI processor grid
  pair style reaxff stores no restart info
  366 atoms
Finding 1-2 1-3 1-4 neighbors ...
  special bond factors lj:    0        0        0       
  special bond factors coul:  0        0        0       
     0 = max # of 1-2 neighbors
     0 = max # of 1-3 neighbors
     0 = max # of 1-4 neighbors
     1 = max # of special neighbors
  special bonds CPU = 0.000 seconds
  read_restart CPU = 0.003 seconds
*****Positive-deform 2 starts.*****
WARNING: Van der Waals parameters for element SI indicate inner wall+shielding, but earlier atoms indicate a different van der Waals method. This may cause division-by-zero errors. Keeping van der Waals setting for earlier atoms. (src/REAXFF/reaxff_ffield.cpp:251)
Neighbor list info ...
  update: every = 10 steps, delay = 0 steps, check = yes
  max neighbors/atom: 2000, page size: 100000
  master list distance cutoff = 12
  ghost atom cutoff = 12
  binsize = 6, bins = 4 3 3
  2 neighbor lists, perpetual/occasional/extra = 2 0 0
  (1) pair reaxff, perpetual
      attributes: half, newton off, ghost
      pair build: half/bin/newtoff/ghost
      stencil: full/ghost/bin/3d
      bin: standard
  (2) fix qeq/reaxff, perpetual, copy from (1)
      attributes: half, newton off
      pair build: copy
      stencil: none
      bin: none
Setting up Verlet run ...
  Unit style    : real
  Current step  : 0
  Time step     : 0.5
Per MPI rank memory allocation (min/avg/max) = 132.8 | 134.4 | 136.7 Mbytes
   Step          Temp          PotEng         Press          Volume    
         0   300           -41133.599      5538.1926      3770.2978    
       100   287.0418      -41121.899     -10051.964      3770.6748    
       200   279.17458     -41125.52      -3645.3971      3771.0519    
       300   296.84277     -41158.241     -5906.8285      3771.4289    
       400   278.81653     -41137.759     -5917.7304      3771.8059    
       500   283.81692     -41111.383     -12541.511      3772.1829    
       600   314.8882      -41125.983     -9662.4918      3772.56      
       700   308.67534     -41119.967     -7904.844       3772.937     
       800   298.58515     -41131.12       6252.8372      3773.314     
       900   283.11847     -41124.265     -3340.2348      3773.6911    
      1000   278.2752      -41109.886      3136.4675      3774.0681    
      1100   305.93802     -41131.879     -3058.4194      3774.4451    
      1200   281.69065     -41117.986     -10074.587      3774.8222    
      1300   278.90022     -41147.216     -5451.8757      3775.1992    
      1400   275.96233     -41150.69      -11259.462      3775.5762    
      1500   312.97105     -41163.033     -8589.988       3775.9532    
      1600   285.27948     -41120.828     -3689.2211      3776.3303    
      1700   306.51388     -41130.047      6555.2583      3776.7073    
      1800   307.07883     -41120.631     -11575.125      3777.0843    
      1900   296.91685     -41101.709     -12905.942      3777.4614    
      2000   293.27144     -41089.659     -4351.6303      3777.8384    
      2100   307.26648     -41117.974     -10913.728      3778.2154    
      2200   299.08387     -41137.772     -4334.8228      3778.5925    
      2300   290.78114     -41137.222      3559.4884      3778.9695    
      2400   301.49806     -41136.53      -9440.0752      3779.3465    
      2500   317.50806     -41118.493     -874.74394      3779.7235    
      2600   319.1454      -41107.78      -1413.5129      3780.1006    
      2700   317.09809     -41123.902     -6097.5333      3780.4776    
      2800   294.73677     -41116.257     -13391.601      3780.8546    
      2900   318.39072     -41149.601     -9084.7468      3781.2317    
      3000   306.38382     -41149.567     -5943.5836      3781.6087    
      3100   280.13437     -41148.341     -2920.5135      3781.9857    
      3200   287.65875     -41157.191     -8777.6326      3782.3628    
      3300   296.89616     -41129.74      -4968.6578      3782.7398    
      3400   295.78268     -41120.217     -7263.4769      3783.1168    
      3500   303.18472     -41130.446     -4924.3838      3783.4938    
      3600   306.28141     -41132.111      34.881006      3783.8709    
      3700   301.75529     -41120.794     -6335.2359      3784.2479    
      3800   308.40107     -41119.999     -6048.3717      3784.6249    
      3900   330.13652     -41140.411     -6415.6117      3785.002     
      4000   299.68507     -41130.843     -7682.3334      3785.379     
      4100   305.73421     -41158.346     -3221.7026      3785.756     
      4200   286.21531     -41135.421     -16698.616      3786.133     
      4300   321.65633     -41139.026      1681.5884      3786.5101    
      4400   307.10212     -41104.084      4608.2091      3786.8871    
      4500   311.31514     -41121.408     -1338.8242      3787.2641    
      4600   293.9113      -41120.603     -15911.561      3787.6412    
      4700   319.06613     -41157.881     -13286.326      3788.0182    
      4800   290.74991     -41143.726     -15344.049      3788.3952    
      4900   260.32736     -41131.485     -4356.684       3788.7723    
      5000   301.17986     -41147.207     -7998.7548      3789.1493    
      5100   302.34844     -41127.298     -10216.431      3789.5263    
      5200   293.4534      -41112.802     -6717.6277      3789.9033    
      5300   318.59366     -41132.815     -7345.4046      3790.2804    
      5400   322.99997     -41139.205      4036.0501      3790.6574    
      5500   288.91251     -41123.646     -9296.7624      3791.0344    
      5600   281.71902     -41133.089     -4577.3342      3791.4115    
      5700   290.13735     -41138.539     -10530.284      3791.7885    
      5800   321.75993     -41136.784     -245.98457      3792.1655    
      5900   302.89716     -41110.204     -543.62121      3792.5426    
      6000   286.68137     -41104.633     -4200.8086      3792.9196    
      6100   319.03995     -41152.07      -2387.1734      3793.2966    
      6200   271.94346     -41134.359     -10100.64       3793.6736    
      6300   270.16881     -41142.845     -4251.3401      3794.0507    
      6400   294.78884     -41148.733     -9664.546       3794.4277    
      6500   302.00536     -41137.746     -3816.0105      3794.8047    
      6600   309.61114     -41129.441     -4684.2211      3795.1818    
      6700   295.26328     -41111.608     -7722.7786      3795.5588    
      6800   309.47093     -41136.237     -14105.783      3795.9358    
      6900   289.97207     -41144.471     -3309.8452      3796.3129    
      7000   276.83163     -41128.234     -12464.249      3796.6899    
      7100   321.15974     -41143.376      923.28204      3797.0669    
      7200   307.06803     -41118.665      2035.9959      3797.4439    
      7300   304.15419     -41122.652     -11602.143      3797.821     
      7400   289.83925     -41121.044     -14951.078      3798.198     
      7500   290.37924     -41144.705      832.05329      3798.575     
      7600   283.41575     -41158.682     -4486.9813      3798.9521    
      7700   282.20269     -41124.372     -12930.461      3799.3291    
      7800   309.69957     -41132.156     -13443.244      3799.7061    
      7900   305.11352     -41123.503     -8713.6224      3800.0832    
      8000   301.92408     -41114.393     -11668.169      3800.4602    
      8100   301.77339     -41122.544     -7157.784       3800.8372    
      8200   303.97814     -41142.046     -11031.626      3801.2142    
      8300   295.45691     -41147.169     -9212.9348      3801.5913    
      8400   273.94906     -41124.023     -5119.678       3801.9683    
      8500   289.05644     -41103.012     -14952.593      3802.3453    
      8600   302.39409     -41097.19      -3952.3044      3802.7224    
      8700   299.44089     -41089.456     -7913.3842      3803.0994    
      8800   308.04329     -41127.91      -6940.6399      3803.4764    
      8900   281.07943     -41115.019     -8440.977       3803.8534    
      9000   298.69865     -41125.586     -7309.9575      3804.2305    
      9100   295.1973      -41102.831     -12921.406      3804.6075    
      9200   309.37092     -41111.568     -9979.0967      3804.9845    
      9300   305.77266     -41134.77      -4558.7885      3805.3616    
      9400   285.73445     -41144.663      2128.7235      3805.7386    
      9500   297.10892     -41140.301     -9861.8582      3806.1156    
      9600   297.94952     -41111.41      -7889.5829      3806.4927    
      9700   317.66581     -41121.1       -9965.4841      3806.8697    
      9800   297.34812     -41114.039     -10132.986      3807.2467    
      9900   316.16729     -41157.149     -9971.0795      3807.6237    
     10000   289.47354     -41145.551     -9809.3329      3808.0008    
Loop time of 488.236 on 8 procs for 10000 steps with 366 atoms

Performance: 0.885 ns/day, 27.124 hours/ns, 20.482 timesteps/s, 7.496 katom-step/s
98.9% CPU use with 8 MPI tasks x 1 OpenMP threads

MPI task timing breakdown:
Section |  min time  |  avg time  |  max time  |%varavg| %total
---------------------------------------------------------------
Pair    | 379.29     | 423.3      | 434.98     |  84.0 | 86.70
Bond    | 0.028518   | 0.02971    | 0.032123   |   0.6 |  0.01
Neigh   | 4.1022     | 4.4102     | 4.5347     |   5.9 |  0.90
Comm    | 8.5101     | 20.17      | 64.208     | 385.2 |  4.13
Output  | 0.031914   | 0.088031   | 0.20324    |  20.4 |  0.02
Modify  | 39.84      | 39.949     | 40.288     |   2.1 |  8.18
Other   |            | 0.292      |            |       |  0.06

Nlocal:          45.75 ave          49 max          38 min
Histogram: 1 0 0 0 0 1 1 1 1 3
Nghost:        3411.25 ave        3482 max        3351 min
Histogram: 1 1 1 0 2 0 1 1 0 1
Neighs:        30763.5 ave       32877 max       25691 min
Histogram: 1 0 0 0 0 1 1 1 1 3

Total # of neighbors = 246108
Ave neighs/atom = 672.42623
Ave special neighs/atom = 0
Neighbor list builds = 121
Dangerous builds = 0
  using 1 OpenMP thread(s) per MPI task
Reading restart file ...
  restart file = 2 Aug 2023, LAMMPS = 2 Aug 2023
  restoring atom style full from restart
  triclinic box = (0 0 0) to (15.724 13.9031 17.2465) with tilt (-7.584 0.1778 0.4371)
WARNING: Triclinic box skew is large. LAMMPS will run inefficiently. (src/domain.cpp:220)
  2 by 2 by 2 MPI processor grid
  pair style reaxff stores no restart info
  366 atoms
Finding 1-2 1-3 1-4 neighbors ...
  special bond factors lj:    0        0        0       
  special bond factors coul:  0        0        0       
     0 = max # of 1-2 neighbors
     0 = max # of 1-3 neighbors
     0 = max # of 1-4 neighbors
     1 = max # of special neighbors
  special bonds CPU = 0.000 seconds
  read_restart CPU = 0.003 seconds
*****debug*****
xy = -7.5839999999999996305, deltaxy = 0.07584
xz = 0.17780000000000001359, deltaxz = -0.001778
yz = 0.43709999999999998854, deltayz = -0.004371
*****
*****Negative-deform 3 starts.*****
WARNING: Van der Waals parameters for element SI indicate inner wall+shielding, but earlier atoms indicate a different van der Waals method. This may cause division-by-zero errors. Keeping van der Waals setting for earlier atoms. (src/REAXFF/reaxff_ffield.cpp:251)
Neighbor list info ...
  update: every = 10 steps, delay = 0 steps, check = yes
  max neighbors/atom: 2000, page size: 100000
  master list distance cutoff = 12
  ghost atom cutoff = 12
  binsize = 6, bins = 4 3 3
  2 neighbor lists, perpetual/occasional/extra = 2 0 0
  (1) pair reaxff, perpetual
      attributes: half, newton off, ghost
      pair build: half/bin/newtoff/ghost
      stencil: full/ghost/bin/3d
      bin: standard
  (2) fix qeq/reaxff, perpetual, copy from (1)
      attributes: half, newton off
      pair build: copy
      stencil: none
      bin: none
Setting up Verlet run ...
  Unit style    : real
  Current step  : 0
  Time step     : 0.5
Per MPI rank memory allocation (min/avg/max) = 132.8 | 134.4 | 136.7 Mbytes
   Step          Temp          PotEng         Press          Volume    
         0   300           -41133.599      5538.1926      3770.2978    
       100   287.03713     -41121.89      -10052.582      3769.9208    
       200   278.8686      -41125.417     -3430.3442      3769.5437    
       300   296.00176     -41157.357     -5689.3214      3769.1667    
       400   280.4746      -41138.487     -6526.3714      3768.7897    
       500   285.43303     -41112.414     -12099.835      3768.4126    
       600   316.28795     -41127.662     -13722.529      3768.0356    
       700   313.85299     -41127.714     -5619.1731      3767.6586    
       800   294.46672     -41128.661      6892.6027      3767.2816    
       900   286.31257     -41130.535      6747.587       3766.9045    
      1000   314.91702     -41151.704      2342.0015      3766.5275    
      1100   307.55503     -41143.252     -2339.8979      3766.1505    
      1200   299.62254     -41138.061     -2314.743       3765.7734    
      1300   288.36974     -41132.955     -2448.67        3765.3964    
      1400   305.79164     -41140.214     -13742.767      3765.0194    
      1500   301.45398     -41110.295     -9685.1769      3764.6424    
      1600   297.13276     -41105.464      60.877804      3764.2653    
      1700   298.82165     -41139.519     -1981.281       3763.8883    
      1800   294.94188     -41152.637      1348.5792      3763.5113    
      1900   302.0396      -41149.008     -10037.188      3763.1342    
      2000   331.53007     -41173.768     -12682.061      3762.7572    
      2100   288.66423     -41130.647      1936.2725      3762.3802    
      2200   313.29844     -41130.623     -10511.848      3762.0031    
      2300   320.58115     -41125.029     -3598.9433      3761.6261    
      2400   294.43453     -41122.901      2530.9434      3761.2491    
      2500   284.41197     -41125.52      -5943.1886      3760.8721    
      2600   282.91036     -41116.871     -6178.1803      3760.495     
      2700   311.35475     -41134.435     -6388.0661      3760.118     
      2800   298.84463     -41120.96      -3730.247       3759.741     
      2900   310.06964     -41131.527     -10863.675      3759.3639    
      3000   309.97855     -41135.964      6462.5185      3758.9869    
      3100   316.31373     -41148.356     -2947.3542      3758.6099    
      3200   299.11448     -41138.538     -8623.0175      3758.2328    
      3300   268.2403      -41120.577     -7192.7254      3757.8558    
      3400   267.04504     -41113.329     -6996.4643      3757.4788    
      3500   316.76535     -41135.902      2441.5891      3757.1018    
      3600   304.29155     -41120.752     -1070.2266      3756.7247    
      3700   296.18549     -41113.869      1599.3139      3756.3477    
      3800   301.03444     -41139.779     -17461.598      3755.9707    
      3900   297.46299     -41164.946     -7993.9912      3755.5936    
      4000   283.99812     -41142.546      1156.3181      3755.2166    
      4100   304.39776     -41135.455      2118.3725      3754.8396    
      4200   292.69113     -41112.757     -5907.8051      3754.4625    
      4300   300.59406     -41122.525     -8073.8745      3754.0855    
      4400   305.97232     -41137.785     -5799.9341      3753.7085    
      4500   287.29256     -41147.173      5852.9993      3753.3315    
      4600   272.09005     -41146.991     -6908.4269      3752.9544    
      4700   301.93486     -41150.256     -5228.7935      3752.5774    
      4800   289.07368     -41110.369     -4582.4956      3752.2004    
      4900   301.83584     -41118.71       6819.8277      3751.8233    
      5000   311.79058     -41127.639     -2176.6081      3751.4463    
      5100   305.3837      -41130.366     -3638.8045      3751.0693    
      5200   271.35712     -41108.93      -2743.6391      3750.6922    
      5300   297.70643     -41149.016     -7046.2623      3750.3152    
      5400   293.24231     -41159.855      1515.0291      3749.9382    
      5500   273.29415     -41131.786     -5151.1244      3749.5612    
      5600   282.50369     -41106.328     -13747.555      3749.1841    
      5700   306.07916     -41117.786     -11695.48       3748.8071    
      5800   314.82077     -41135         -12341.622      3748.4301    
      5900   315.44474     -41161.292      2372.784       3748.053     
      6000   299.67563     -41166.72       187.46589      3747.676     
      6100   279.71783     -41139.106      1.1675212      3747.299     
      6200   305.36706     -41145.546      17944.483      3746.922     
      6300   297.81966     -41125.045      7465.3884      3746.5449    
      6400   305.90589     -41130.571      7242.8252      3746.1679    
      6500   316.92124     -41140.263      416.25226      3745.7909    
      6600   300.56741     -41152.196     -4676.3911      3745.4138    
      6700   279.42239     -41150.383     -517.39575      3745.0368    
      6800   269.96568     -41131.81      -1031.9418      3744.6598    
      6900   292.47891     -41124.951     -1945.8958      3744.2827    
      7000   286.05058     -41107.63       6111.4612      3743.9057    
      7100   308.79787     -41127.561      5624.8494      3743.5287    
      7200   300.595       -41124.829     -4523.7793      3743.1517    
      7300   283.04735     -41139.894      3677.9766      3742.7746    
      7400   287.88884     -41153.809     -6186.1279      3742.3976    
      7500   299.62179     -41146.912      5054.9282      3742.0206    
      7600   315.95656     -41142.197      3664.1791      3741.6435    
      7700   295.19458     -41117.938     -4686.4242      3741.2665    
      7800   287.79503     -41122.473     -1846.1369      3740.8895    
      7900   299.45182     -41149.267     -5404.408       3740.5124    
      8000   283.63081     -41159.545     -1809.2418      3740.1354    
      8100   288.62589     -41167.821     -361.72367      3739.7584    
      8200   282.44456     -41124.911     -2668.0454      3739.3814    
      8300   321.64894     -41153.761     -5961.4432      3739.0043    
      8400   306.01847     -41141.698     -1464.4763      3738.6273    
      8500   292.41441     -41143.032      2710.865       3738.2503    
      8600   298.70567     -41155.305     -5373.2038      3737.8732    
      8700   306.16263     -41144.015     -6904.3583      3737.4962    
      8800   303.31611     -41111.446      3839.6481      3737.1192    
      8900   323.24864     -41134.039     -3181.5179      3736.7421    
      9000   305.81983     -41136.869     -5602.0008      3736.3651    
      9100   299.17738     -41134.748     -4631.3792      3735.9881    
      9200   295.03416     -41132.279     -7915.41        3735.6111    
      9300   298.4655      -41150.844      3431.9904      3735.234     
      9400   283.40986     -41151.11       83.361645      3734.857     
      9500   281.40517     -41143.65       3408.8791      3734.48      
      9600   295.98449     -41123.702     -7215.2023      3734.1029    
      9700   307.06423     -41124.836      6406.806       3733.7259    
      9800   294.82937     -41114.661     -6855.5517      3733.3489    
      9900   290.72196     -41121.419     -8764.9111      3732.9718    
     10000   287.16619     -41140.382      3475.0342      3732.5948    
Loop time of 491.638 on 8 procs for 10000 steps with 366 atoms

Performance: 0.879 ns/day, 27.313 hours/ns, 20.340 timesteps/s, 7.445 katom-step/s
99.0% CPU use with 8 MPI tasks x 1 OpenMP threads

MPI task timing breakdown:
Section |  min time  |  avg time  |  max time  |%varavg| %total
---------------------------------------------------------------
Pair    | 341.57     | 403.78     | 441.33     | 166.7 | 82.13
Bond    | 0.028299   | 0.029254   | 0.030835   |   0.6 |  0.01
Neigh   | 3.7917     | 4.3391     | 4.7213     |  15.4 |  0.88
Comm    | 5.4684     | 42.995     | 105.23     | 510.7 |  8.75
Output  | 0.029949   | 0.079739   | 0.18233    |  19.1 |  0.02
Modify  | 39.758     | 40.138     | 40.711     |   5.4 |  8.16
Other   |            | 0.2774     |            |       |  0.06

Nlocal:          45.75 ave          51 max          43 min
Histogram: 1 3 0 2 0 0 1 0 0 1
Nghost:        3451.38 ave        3502 max        3407 min
Histogram: 1 1 1 0 1 1 1 1 0 1
Neighs:        31423.1 ave       34723 max       29518 min
Histogram: 1 3 0 1 1 0 1 0 0 1

Total # of neighbors = 251385
Ave neighs/atom = 686.84426
Ave special neighs/atom = 0
Neighbor list builds = 125
Dangerous builds = 0
  using 1 OpenMP thread(s) per MPI task
Reading restart file ...
  restart file = 2 Aug 2023, LAMMPS = 2 Aug 2023
  restoring atom style full from restart
  triclinic box = (0 0 0) to (15.724 13.9031 17.2465) with tilt (-7.584 0.1778 0.4371)
WARNING: Triclinic box skew is large. LAMMPS will run inefficiently. (src/domain.cpp:220)
  2 by 2 by 2 MPI processor grid
  pair style reaxff stores no restart info
  366 atoms
Finding 1-2 1-3 1-4 neighbors ...
  special bond factors lj:    0        0        0       
  special bond factors coul:  0        0        0       
     0 = max # of 1-2 neighbors
     0 = max # of 1-3 neighbors
     0 = max # of 1-4 neighbors
     1 = max # of special neighbors
  special bonds CPU = 0.000 seconds
  read_restart CPU = 0.004 seconds
*****Positive-deform 3 starts.*****
WARNING: Van der Waals parameters for element SI indicate inner wall+shielding, but earlier atoms indicate a different van der Waals method. This may cause division-by-zero errors. Keeping van der Waals setting for earlier atoms. (src/REAXFF/reaxff_ffield.cpp:251)
Neighbor list info ...
  update: every = 10 steps, delay = 0 steps, check = yes
  max neighbors/atom: 2000, page size: 100000
  master list distance cutoff = 12
  ghost atom cutoff = 12
  binsize = 6, bins = 4 3 3
  2 neighbor lists, perpetual/occasional/extra = 2 0 0
  (1) pair reaxff, perpetual
      attributes: half, newton off, ghost
      pair build: half/bin/newtoff/ghost
      stencil: full/ghost/bin/3d
      bin: standard
  (2) fix qeq/reaxff, perpetual, copy from (1)
      attributes: half, newton off
      pair build: copy
      stencil: none
      bin: none
Setting up Verlet run ...
  Unit style    : real
  Current step  : 0
  Time step     : 0.5
Per MPI rank memory allocation (min/avg/max) = 132.8 | 134.4 | 136.7 Mbytes
   Step          Temp          PotEng         Press          Volume    
         0   300           -41133.599      5538.1926      3770.2978    
       100   287.04043     -41121.882     -10045.882      3770.6748    
       200   278.76723     -41125.118     -3644.8777      3771.0519    
       300   296.39085     -41157.731     -5967.2679      3771.4289    
       400   278.04323     -41137.563     -6661.6257      3771.8059    
       500   285.131       -41113.442     -12951.805      3772.1829    
       600   314.56992     -41125.816     -14549.365      3772.56      
       700   314.03196     -41125.795     -4065.1131      3772.937     
       800   298.88786     -41128.678      13767.338      3773.314     
       900   301.41028     -41142.917     -6267.3403      3773.6911    
      1000   308.51234     -41145.633     -8578.94        3774.0681    
      1100   298.63225     -41128.622     -7950.1136      3774.4451    
      1200   292.57152     -41118.597     -5292.5574      3774.8222    
      1300   312.73339     -41138.215     -1634.2772      3775.1992    
      1400   303.89419     -41134.653     -8709.9234      3775.5762    
      1500   302.18186     -41139.203     -8232.0293      3775.9532    
      1600   287.10033     -41136.278     -5018.2618      3776.3303    
      1700   292.30719     -41131.476     -12813.52       3776.7073    
      1800   295.2563      -41104.398     -4203.3547      3777.0843    
      1900   297.89986     -41101.372     -2845.344       3777.4614    
      2000   301.48179     -41116.468      7926.3414      3777.8384    
      2100   305.14286     -41148.806     -7913.638       3778.2154    
      2200   283.63786     -41136.49      -6506.0389      3778.5925    
      2300   303.65856     -41119.589     -3015.1366      3778.9695    
      2400   330.07131     -41129.513     -5095.0166      3779.3465    
      2500   301.4544      -41124.565      4173.4899      3779.7235    
      2600   296.46285     -41136.353     -4960.736       3780.1006    
      2700   296.06221     -41128.861     -13349.35       3780.4776    
      2800   309.5764      -41123.163      1660.5225      3780.8546    
      2900   313.65526     -41100.77      -3735.1697      3781.2317    
      3000   325.51214     -41108.652     -15512.234      3781.6087    
      3100   291.62417     -41113.638     -2100.9706      3781.9857    
      3200   300.38175     -41138.946     -4381.9301      3782.3628    
      3300   290.76554     -41131.615     -376.70016      3782.7398    
      3400   297.13833     -41129.988     -12180.04       3783.1168    
      3500   314.79395     -41122.195     -13054.486      3783.4938    
      3600   299.08978     -41094.254     -7387.0269      3783.8709    
      3700   304.58585     -41118.448     -2516.9079      3784.2479    
      3800   266.28056     -41109.341     -470.56755      3784.6249    
      3900   290.84684     -41136.891     -4585.3482      3785.002     
      4000   288.22854     -41123.407     -5465.3009      3785.379     
      4100   302.61037     -41120.966     -2507.7195      3785.756     
      4200   301.2499      -41114.512     -4577.9327      3786.133     
      4300   299.73452     -41120.478     -2205.1962      3786.5101    
      4400   302.20811     -41127.741     -330.61836      3786.8871    
      4500   298.87577     -41124.239     -8976.3977      3787.2641    
      4600   300.58898     -41117.213     -12268.632      3787.6412    
      4700   300.52585     -41118.16       983.22027      3788.0182    
      4800   295.90379     -41137.764     -10844.248      3788.3952    
      4900   300.70435     -41158.613     -534.00668      3788.7723    
      5000   272.80465     -41128.514     -10695.12       3789.1493    
      5100   302.65975     -41118.36      -121.02619      3789.5263    
      5200   302.91893     -41113.623     -7208.1254      3789.9033    
      5300   309.0154      -41136.928     -10678.841      3790.2804    
      5400   293.30987     -41142.173     -2610.9227      3790.6574    
      5500   289.59378     -41132.228     -4169.8         3791.0344    
      5600   300.91117     -41116.984     -5104.4728      3791.4115    
      5700   299.39863     -41105.807     -10926.519      3791.7885    
      5800   301.47856     -41107.9       -2667.6073      3792.1655    
      5900   305.72025     -41116.423     -13321.143      3792.5426    
      6000   284.2511      -41119.836     -9397.9781      3792.9196    
      6100   305.98929     -41161.097     -16445.926      3793.2966    
      6200   295.12792     -41146.845     -3197.3981      3793.6736    
      6300   297.87185     -41136.641     -7364.4725      3794.0507    
      6400   285.33355     -41118.688     -7511.5062      3794.4277    
      6500   302.82472     -41128.386     -10495.107      3794.8047    
      6600   309.60655     -41130.407     -1682.4646      3795.1818    
      6700   279.80851     -41109.121      3321.5499      3795.5588    
      6800   288.51188     -41135.691     -7471.8629      3795.9358    
      6900   292.58293     -41152.326     -12788.899      3796.3129    
      7000   282.00599     -41132.644     -8345.4025      3796.6899    
      7100   307.24773     -41126.147     -3777.3805      3797.0669    
      7200   289.76319     -41110.032     -2521.6894      3797.4439    
      7300   307.22545     -41139.371      10421.483      3797.821     
      7400   295.98246     -41155.445     -14199.561      3798.198     
      7500   283.48328     -41156.249     -8168.8953      3798.575     
      7600   281.39916     -41142.465     -14543.433      3798.9521    
      7700   298.48461     -41142.847      5363.4589      3799.3291    
      7800   304.79013     -41130.19      -9723.506       3799.7061    
      7900   307.46398     -41126.666     -2878.2207      3800.0832    
      8000   300.51921     -41127.592     -9279.7532      3800.4602    
      8100   277.26684     -41128.733     -3573.9536      3800.8372    
      8200   307.13139     -41157.551      8317.0631      3801.2142    
      8300   291.47068     -41109.575     -3707.2983      3801.5913    
      8400   323.88268     -41126.977     -5623.22        3801.9683    
      8500   292.5721      -41105.387     -10153.613      3802.3453    
      8600   280.81092     -41100.701     -10382.561      3802.7224    
      8700   291.55249     -41104.322     -7767.7508      3803.0994    
      8800   304.47743     -41115.782     -2447.5543      3803.4764    
      8900   298.03532     -41121.486     -5752.7529      3803.8534    
      9000   305.43285     -41141.06      -9420.671       3804.2305    
      9100   288.43198     -41131.123     -9156.2486      3804.6075    
      9200   293.58989     -41149.016     -2382.2914      3804.9845    
      9300   293.24744     -41142.951     -13222.851      3805.3616    
      9400   297.75039     -41111.511     -10213.831      3805.7386    
      9500   316.18358     -41128.538     -3110.4465      3806.1156    
      9600   311.24444     -41131.874     -3682.5843      3806.4927    
      9700   296.05873     -41141.458     -3799.1416      3806.8697    
      9800   299.98775     -41162.851     -8941.1134      3807.2467    
      9900   296.6605      -41151.238     -12110.861      3807.6237    
     10000   306.75602     -41120.73      -8708.7838      3808.0008    
Loop time of 489.52 on 8 procs for 10000 steps with 366 atoms

Performance: 0.882 ns/day, 27.196 hours/ns, 20.428 timesteps/s, 7.477 katom-step/s
99.0% CPU use with 8 MPI tasks x 1 OpenMP threads

MPI task timing breakdown:
Section |  min time  |  avg time  |  max time  |%varavg| %total
---------------------------------------------------------------
Pair    | 372.34     | 408.45     | 438.09     | 126.4 | 83.44
Bond    | 0.027693   | 0.029336   | 0.031341   |   0.7 |  0.01
Neigh   | 3.9576     | 4.3133     | 4.7473     |  12.5 |  0.88
Comm    | 5.0351     | 34.754     | 70.901     | 434.0 |  7.10
Output  | 0.033659   | 0.085015   | 0.19148    |  19.1 |  0.02
Modify  | 41.092     | 41.604     | 42.026     |   4.5 |  8.50
Other   |            | 0.2812     |            |       |  0.06

Nlocal:          45.75 ave          50 max          40 min
Histogram: 1 0 1 0 1 0 1 1 1 2
Nghost:         3424.5 ave        3469 max        3385 min
Histogram: 1 1 1 1 0 1 1 0 0 2
Neighs:        30743.9 ave       33302 max       26973 min
Histogram: 1 0 1 0 1 0 1 1 1 2

Total # of neighbors = 245951
Ave neighs/atom = 671.99727
Ave special neighs/atom = 0
Neighbor list builds = 121
Dangerous builds = 0
  using 1 OpenMP thread(s) per MPI task
Reading restart file ...
  restart file = 2 Aug 2023, LAMMPS = 2 Aug 2023
  restoring atom style full from restart
  triclinic box = (0 0 0) to (15.724 13.9031 17.2465) with tilt (-7.584 0.1778 0.4371)
WARNING: Triclinic box skew is large. LAMMPS will run inefficiently. (src/domain.cpp:220)
  2 by 2 by 2 MPI processor grid
  pair style reaxff stores no restart info
  366 atoms
Finding 1-2 1-3 1-4 neighbors ...
  special bond factors lj:    0        0        0       
  special bond factors coul:  0        0        0       
     0 = max # of 1-2 neighbors
     0 = max # of 1-3 neighbors
     0 = max # of 1-4 neighbors
     1 = max # of special neighbors
  special bonds CPU = 0.000 seconds
  read_restart CPU = 0.003 seconds
*****debug*****
xy = -7.5839999999999996305, deltaxy = 0.07584
xz = 0.17780000000000001359, deltaxz = -0.001778
yz = 0.43709999999999998854, deltayz = -0.004371
*****
*****Negative-deform 4 starts.*****
WARNING: Van der Waals parameters for element SI indicate inner wall+shielding, but earlier atoms indicate a different van der Waals method. This may cause division-by-zero errors. Keeping van der Waals setting for earlier atoms. (src/REAXFF/reaxff_ffield.cpp:251)
Neighbor list info ...
  update: every = 10 steps, delay = 0 steps, check = yes
  max neighbors/atom: 2000, page size: 100000
  master list distance cutoff = 12
  ghost atom cutoff = 12
  binsize = 6, bins = 4 3 3
  2 neighbor lists, perpetual/occasional/extra = 2 0 0
  (1) pair reaxff, perpetual
      attributes: half, newton off, ghost
      pair build: half/bin/newtoff/ghost
      stencil: full/ghost/bin/3d
      bin: standard
  (2) fix qeq/reaxff, perpetual, copy from (1)
      attributes: half, newton off
      pair build: copy
      stencil: none
      bin: none
Setting up Verlet run ...
  Unit style    : real
  Current step  : 0
  Time step     : 0.5
Per MPI rank memory allocation (min/avg/max) = 132.8 | 134.4 | 136.7 Mbytes
   Step          Temp          PotEng         Press          Volume    
         0   300           -41133.599      5538.1926      3770.2978    
       100   287.04006     -41121.883     -10053.251      3770.2978    
       200   278.77721     -41125.263     -3609.3255      3770.2978    
       300   295.60676     -41157.243     -5909.7489      3770.2978    
       400   279.70001     -41138.621     -7112.6535      3770.2978    
       500   285.37335     -41112.861     -11635.775      3770.2978    
       600   317.56694     -41128.519     -14316.84       3770.2978    
       700   314.10232     -41127.266     -6424.1697      3770.2978    
       800   297.77805     -41131.751      4340.6702      3770.2978    
       900   274.42518     -41116.145      2585.1951      3770.2978    
      1000   305.29781     -41138.496     -8330.7761      3770.2978    
      1100   304.19829     -41131.264      1755.4004      3770.2978    
      1200   296.27451     -41128.086     -5328.6188      3770.2978    
      1300   300.79072     -41160.759     -2609.2387      3770.2978    
      1400   272.41412     -41140.787     -11234.909      3770.2978    
      1500   302.59232     -41142.54      -6042.8679      3770.2978    
      1600   316.4831      -41147.454     -8666.2208      3770.2978    
      1700   301.91022     -41138.977     -547.40931      3770.2978    
      1800   297.75893     -41128.716     -7037.6216      3770.2978    
      1900   300.46674     -41100.681     -10331.924      3770.2978    
      2000   320.90257     -41111.202     -8830.2733      3770.2978    
      2100   305.31406     -41126.32      -2816.2331      3770.2978    
      2200   291.39357     -41125.544     -4759.5492      3770.2978    
      2300   310.40103     -41148.528      2561.7874      3770.2978    
      2400   306.21816     -41144.87      -5631.3641      3770.2978    
      2500   298.19407     -41138.997     -6977.5931      3770.2978    
      2600   295.92072     -41129.24      -2939.3809      3770.2978    
      2700   292.77409     -41108.176     -2688.2084      3770.2978    
      2800   318.9104      -41127.488     -1679.2324      3770.2978    
      2900   295.49647     -41121.094     -1453.4964      3770.2978    
      3000   304.40736     -41159.224     -2307.0773      3770.2978    
      3100   285.21598     -41150.718     -4250.182       3770.2978    
      3200   285.78893     -41138.113     -11286.424      3770.2978    
      3300   297.50852     -41136.542     -8938.3383      3770.2978    
      3400   299.73226     -41135.455      1398.5672      3770.2978    
      3500   307.19824     -41132.66      -1040.7798      3770.2978    
      3600   309.18278     -41124.799     -10705.697      3770.2978    
      3700   305.64248     -41115.686     -11212.009      3770.2978    
      3800   300.16578     -41116.087     -13835.038      3770.2978    
      3900   299.01534     -41136.161     -5202.6528      3770.2978    
      4000   281.06368     -41135.842      2854.5003      3770.2978    
      4100   281.49268     -41142.22       2627.0381      3770.2978    
      4200   320.17028     -41146.437     -13736.094      3770.2978    
      4300   292.59556     -41097.564     -6035.4429      3770.2978    
      4400   325.1522      -41139.748     -5901.3463      3770.2978    
      4500   293.3969      -41132.936      378.9783       3770.2978    
      4600   293.19757     -41146.577      3032.8368      3770.2978    
      4700   290.33991     -41141.658      1332.9537      3770.2978    
      4800   298.39144     -41142.671     -8453.7864      3770.2978    
      4900   321.35617     -41140.868     -257.03804      3770.2978    
      5000   323.4414      -41113.04       5262.0394      3770.2978    
      5100   287.12393     -41094.163     -7684.3794      3770.2978    
      5200   294.37054     -41125.907     -1184.9062      3770.2978    
      5300   289.69337     -41138.097     -6319.327       3770.2978    
      5400   300.96762     -41152.801     -7444.2817      3770.2978    
      5500   304.97762     -41142.294     -1746.0677      3770.2978    
      5600   304.21464     -41107.87       2300.3826      3770.2978    
      5700   306.67821     -41114.037      8807.9239      3770.2978    
      5800   308.88822     -41131.927     -8075.7485      3770.2978    
      5900   297.67501     -41147.822     -10715.506      3770.2978    
      6000   303.37917     -41159.881     -9810.6237      3770.2978    
      6100   300.177       -41145.918      2859.4451      3770.2978    
      6200   299.98141     -41127.449      9923.2049      3770.2978    
      6300   306.28204     -41123.995     -5664.3389      3770.2978    
      6400   294.05146     -41108.302     -1711.189       3770.2978    
      6500   308.10646     -41142.173      468.87202      3770.2978    
      6600   310.01986     -41162.364     -7076.135       3770.2978    
      6700   293.79589     -41144.991     -8078.0046      3770.2978    
      6800   294.20533     -41123.584     -1340.855       3770.2978    
      6900   312.04805     -41116.767     -12959.677      3770.2978    
      7000   326.8044      -41146.09      -16166.688      3770.2978    
      7100   297.68763     -41133.689     -1739.9893      3770.2978    
      7200   279.69101     -41120.244     -8383.2029      3770.2978    
      7300   294.43111     -41138.539     -8815.3984      3770.2978    
      7400   296.35279     -41144.188     -1353.2798      3770.2978    
      7500   320.98758     -41150.266     -3503.4239      3770.2978    
      7600   302.5572      -41111.904     -12795.153      3770.2978    
      7700   297.52893     -41104.696     -4154.264       3770.2978    
      7800   298.38486     -41128.104     -5182.9813      3770.2978    
      7900   305.63877     -41166.016      1391.9656      3770.2978    
      8000   303.7128      -41159.962      4615.9322      3770.2978    
      8100   283.5382      -41121.936      3875.647       3770.2978    
      8200   308.93137     -41135.991     -8116.9895      3770.2978    
      8300   323.612       -41134.806      8060.7246      3770.2978    
      8400   306.92098     -41087.675     -4972.2293      3770.2978    
      8500   322.20188     -41117.344     -5993.9698      3770.2978    
      8600   306.23632     -41131.572     -513.60434      3770.2978    
      8700   303.03633     -41145.991     -8455.508       3770.2978    
      8800   308.45982     -41163.611     -5993.9871      3770.2978    
      8900   287.25918     -41139.878     -2155.7343      3770.2978    
      9000   283.36534     -41110.056     -5115.9561      3770.2978    
      9100   303.87727     -41108.109     -6422.0315      3770.2978    
      9200   301.46529     -41119.193     -6848.3259      3770.2978    
      9300   322.28385     -41166.198     -4348.0388      3770.2978    
      9400   304.86058     -41157.318      4778.7117      3770.2978    
      9500   288.5962      -41138.128     -4465.6962      3770.2978    
      9600   305.19234     -41143.903     -4628.5471      3770.2978    
      9700   304.16392     -41135.274     -997.64672      3770.2978    
      9800   285.35022     -41114.538     -8874.9364      3770.2978    
      9900   296.39577     -41126.306      4207.3528      3770.2978    
     10000   292.28298     -41125.193      4372.33        3770.2978    
Loop time of 491.438 on 8 procs for 10000 steps with 366 atoms

Performance: 0.879 ns/day, 27.302 hours/ns, 20.348 timesteps/s, 7.448 katom-step/s
98.9% CPU use with 8 MPI tasks x 1 OpenMP threads

MPI task timing breakdown:
Section |  min time  |  avg time  |  max time  |%varavg| %total
---------------------------------------------------------------
Pair    | 349.18     | 402.47     | 434.01     | 147.6 | 81.90
Bond    | 0.02758    | 0.029085   | 0.030666   |   0.7 |  0.01
Neigh   | 3.6914     | 4.2538     | 4.5737     |  15.6 |  0.87
Comm    | 12.213     | 43.716     | 96.974     | 447.9 |  8.90
Output  | 0.032277   | 0.082547   | 0.18694    |  19.0 |  0.02
Modify  | 40.293     | 40.614     | 41.198     |   5.3 |  8.26
Other   |            | 0.2775     |            |       |  0.06

Nlocal:          45.75 ave          51 max          40 min
Histogram: 1 0 1 0 2 2 0 0 0 2
Nghost:        3455.12 ave        3484 max        3424 min
Histogram: 2 0 1 0 1 0 0 2 0 2
Neighs:          31064 ave       34456 max       27254 min
Histogram: 1 0 1 0 2 2 0 0 1 1

Total # of neighbors = 248512
Ave neighs/atom = 678.99454
Ave special neighs/atom = 0
Neighbor list builds = 122
Dangerous builds = 0
  using 1 OpenMP thread(s) per MPI task
Reading restart file ...
  restart file = 2 Aug 2023, LAMMPS = 2 Aug 2023
  restoring atom style full from restart
  triclinic box = (0 0 0) to (15.724 13.9031 17.2465) with tilt (-7.584 0.1778 0.4371)
WARNING: Triclinic box skew is large. LAMMPS will run inefficiently. (src/domain.cpp:220)
  2 by 2 by 2 MPI processor grid
  pair style reaxff stores no restart info
  366 atoms
Finding 1-2 1-3 1-4 neighbors ...
  special bond factors lj:    0        0        0       
  special bond factors coul:  0        0        0       
     0 = max # of 1-2 neighbors
     0 = max # of 1-3 neighbors
     0 = max # of 1-4 neighbors
     1 = max # of special neighbors
  special bonds CPU = 0.000 seconds
  read_restart CPU = 0.003 seconds
*****Positive-deform 4 starts.*****
WARNING: Van der Waals parameters for element SI indicate inner wall+shielding, but earlier atoms indicate a different van der Waals method. This may cause division-by-zero errors. Keeping van der Waals setting for earlier atoms. (src/REAXFF/reaxff_ffield.cpp:251)
Neighbor list info ...
  update: every = 10 steps, delay = 0 steps, check = yes
  max neighbors/atom: 2000, page size: 100000
  master list distance cutoff = 12
  ghost atom cutoff = 12
  binsize = 6, bins = 4 3 3
  2 neighbor lists, perpetual/occasional/extra = 2 0 0
  (1) pair reaxff, perpetual
      attributes: half, newton off, ghost
      pair build: half/bin/newtoff/ghost
      stencil: full/ghost/bin/3d
      bin: standard
  (2) fix qeq/reaxff, perpetual, copy from (1)
      attributes: half, newton off
      pair build: copy
      stencil: none
      bin: none
Setting up Verlet run ...
  Unit style    : real
  Current step  : 0
  Time step     : 0.5
Per MPI rank memory allocation (min/avg/max) = 132.8 | 134.4 | 136.7 Mbytes
   Step          Temp          PotEng         Press          Volume    
         0   300           -41133.599      5538.1926      3770.2978    
       100   287.03759     -41121.888     -10046.271      3770.2978    
       200   278.82502     -41125.329     -3511.6039      3770.2978    
       300   297.16259     -41158.283     -5993.041       3770.2978    
       400   279.44191     -41137.684     -6301.2946      3770.2978    
       500   283.19086     -41110.229     -11108.517      3770.2978    
       600   315.02395     -41125.449     -13534.367      3770.2978    
       700   303.48536     -41115.64      -6057.492       3770.2978    
       800   289.43206     -41121.084     -930.88017      3770.2978    
       900   284.15791     -41124.731      4786.3116      3770.2978    
      1000   300.46992     -41132.072      5754.0147      3770.2978    
      1100   314.02951     -41141.692     -9721.3597      3770.2978    
      1200   297.25816     -41131.585     -10554.378      3770.2978    
      1300   292.04298     -41154.303      4343.284       3770.2978    
      1400   279.61878     -41147.28      -7121.0403      3770.2978    
      1500   295.77227     -41128.142      5152.1453      3770.2978    
      1600   311.2098      -41136.953     -3757.0169      3770.2978    
      1700   292.89689     -41125.179     -4738.2186      3770.2978    
      1800   282.57061     -41123.199     -13006.467      3770.2978    
      1900   299.55019     -41120.935      9747.7956      3770.2978    
      2000   324.08256     -41124.274     -2011.7332      3770.2978    
      2100   284.26887     -41098.398     -11405.686      3770.2978    
      2200   291.30055     -41130.986     -1691.7704      3770.2978    
      2300   308.6433      -41154.049      670.2389       3770.2978    
      2400   310.88851     -41155.376     -4698.7966      3770.2978    
      2500   297.99044     -41138.21      -3976.1616      3770.2978    
      2600   311.78553     -41126.141     -6765.4706      3770.2978    
      2700   310.26727     -41107.046     -10217.111      3770.2978    
      2800   292.73552     -41116.231      1115.1366      3770.2978    
      2900   284.75766     -41129.904     -13443.062      3770.2978    
      3000   298.09682     -41139.805     -1392.0217      3770.2978    
      3100   317.03012     -41139.27      -3703.1329      3770.2978    
      3200   303.57935     -41117.438     -8208.8643      3770.2978    
      3300   308.45863     -41119.382     -2572.9013      3770.2978    
      3400   301.45748     -41133.649     -6975.1869      3770.2978    
      3500   286.90065     -41141.524     -14512.485      3770.2978    
      3600   290.51449     -41142.769     -147.96321      3770.2978    
      3700   296.09251     -41118.3        773.57653      3770.2978    
      3800   317.59903     -41129.74       4829.6004      3770.2978    
      3900   307.52916     -41131.294     -5557.2066      3770.2978    
      4000   306.45138     -41133.093      1658.2055      3770.2978    
[...]
*****
*****Negative-deform 6 starts.*****
WARNING: Van der Waals parameters for element SI indicate inner wall+shielding, but earlier atoms indicate a different van der Waals method. This may cause division-by-zero errors. Keeping van der Waals setting for earlier atoms. (src/REAXFF/reaxff_ffield.cpp:251)
Neighbor list info ...
  update: every = 10 steps, delay = 0 steps, check = yes
  max neighbors/atom: 2000, page size: 100000
  master list distance cutoff = 12
  ghost atom cutoff = 12
  binsize = 6, bins = 4 3 3
  2 neighbor lists, perpetual/occasional/extra = 2 0 0
  (1) pair reaxff, perpetual
      attributes: half, newton off, ghost
      pair build: half/bin/newtoff/ghost
      stencil: full/ghost/bin/3d
      bin: standard
  (2) fix qeq/reaxff, perpetual, copy from (1)
      attributes: half, newton off
      pair build: copy
      stencil: none
      bin: none
Setting up Verlet run ...
  Unit style    : real
  Current step  : 0
  Time step     : 0.5
Per MPI rank memory allocation (min/avg/max) = 132.8 | 134.4 | 136.7 Mbytes
   Step          Temp          PotEng         Press          Volume    
         0   300           -41133.599      5538.1926      3770.2978    
       100   287.04038     -41121.888     -10046.098      3770.2978    
       200   278.84815     -41125.274     -3588.6263      3770.2978    
       300   296.5666      -41157.653     -5817.1445      3770.2978    
       400   279.01752     -41137.727     -7170.7486      3770.2978    
       500   283.52004     -41111.099     -11142.37       3770.2978    
       600   316.24141     -41127.158     -13532.534      3770.2978    
       700   307.0613      -41119.85      -8578.0004      3770.2978    
       800   293.00304     -41124.404     -47.727811      3770.2978    
       900   284.88387     -41124.47      -7286.6875      3770.2978    
      1000   312.54191     -41147.547     -6186.4883      3770.2978    
      1100   295.67479     -41127.412      17337.215      3770.2978    
      1200   289.82986     -41127.842     -18541.699      3770.2978    
      1300   295.36062     -41162.664     -8370.222       3770.2978    
      1400   279.06517     -41148.874     -12433.544      3770.2978    
      1500   293.9199      -41130.736     -2152.769       3770.2978    
      1600   305.60498     -41130.565      5043.5222      3770.2978    
      1700   297.78564     -41120.831      5430.9923      3770.2978    
      1800   302.25888     -41126.253     -4667.4934      3770.2978    
      1900   301.49225     -41149.515      3260.3113      3770.2978    
      2000   296.98723     -41166.164     -13035.384      3770.2978    
      2100   292.77916     -41149.855     -12871.201      3770.2978    
      2200   302.36652     -41134.732     -839.51086      3770.2978    
      2300   318.86759     -41148.184      2049.1736      3770.2978    
      2400   275.8062      -41116.415      5986.8662      3770.2978    
      2500   307.40739     -41142.051     -2277.4429      3770.2978    
      2600   304.02634     -41109.814     -4190.9406      3770.2978    
      2700   316.94063     -41106.102     -3319.4488      3770.2978    
      2800   303.41939     -41113.161     -9144.6394      3770.2978    
      2900   297.05802     -41144.072     -10809.434      3770.2978    
      3000   291.09974     -41138.979     -12942.4        3770.2978    
      3100   300.62309     -41130.184     -658.64508      3770.2978    
      3200   330.32834     -41144.656     -5112.6246      3770.2978    
      3300   310.37955     -41137.088      663.04608      3770.2978    
      3400   285.63737     -41137.517     -1425.5469      3770.2978    
      3500   292.18735     -41142.816     -3482.4235      3770.2978    
      3600   306.10263     -41142.942      1788.875       3770.2978    
      3700   306.26171     -41134.792     -1914.1929      3770.2978    
      3800   311.42487     -41158.092      848.77816      3770.2978    
      3900   279.62783     -41147.671      4937.5556      3770.2978    
      4000   300.81953     -41154.994     -485.1993       3770.2978    
      4100   321.336       -41146.945     -5611.0052      3770.2978    
      4200   309.40877     -41125.143      1040.9751      3770.2978    
      4300   299.8706      -41122.903     -14632.939      3770.2978    
      4400   290.90612     -41132.326     -12574.337      3770.2978    
      4500   284.98197     -41135.845      3294.3488      3770.2978    
      4600   294.61165     -41135.102     -7726.0824      3770.2978    
      4700   302.26948     -41110.317     -5886.2142      3770.2978    
      4800   292.02441     -41093.946     -8989.4938      3770.2978    
      4900   311.30707     -41135.538     -4536.308       3770.2978    
      5000   291.93063     -41146.29       3520.8933      3770.2978    
      5100   289.43894     -41135.013     -15449.171      3770.2978    
      5200   295.42593     -41125.46      -6982.4392      3770.2978    
      5300   308.94509     -41127.94      -65.990258      3770.2978    
      5400   309.45176     -41133.284     -2751.6035      3770.2978    
      5500   300.01867     -41149.213     -1359.8845      3770.2978    
      5600   281.22984     -41143.009      8618.2815      3770.2978    
      5700   298.23134     -41147.685      6316.3608      3770.2978    
      5800   314.51879     -41139.488     -3838.8564      3770.2978    
      5900   299.27871     -41117.878      2484.0373      3770.2978    
      6000   293.60031     -41121.752     -5679.3886      3770.2978    
      6100   273.93982     -41141.212     -787.84408      3770.2978    
      6200   275.77126     -41135.111     -7037.6041      3770.2978    
      6300   307.47405     -41141.204      2214.6142      3770.2978    
      6400   303.3511      -41124.877     -4662.9697      3770.2978    
      6500   295.45716     -41117.94       6507.9308      3770.2978    
      6600   301.86299     -41142.564     -1299.3685      3770.2978    
      6700   277.86025     -41152.75      -7499.1621      3770.2978    
      6800   270.02046     -41131.411      620.0131       3770.2978    
      6900   297.71543     -41142.213     -13000.404      3770.2978    
      7000   314.07288     -41153.29      -3426.4224      3770.2978    
      7100   302.89901     -41134.689      1534.0288      3770.2978    
      7200   317.53928     -41113.972     -5737.2633      3770.2978    
      7300   296.87447     -41079.917     -9956.8797      3770.2978    
      7400   306.89239     -41109.307      547.33908      3770.2978    
      7500   315.26728     -41137.461     -714.53208      3770.2978    
      7600   305.61752     -41138.548      3420.9495      3770.2978    
      7700   297.5075      -41138.118     -14605.662      3770.2978    
      7800   292.21333     -41134.121     -5602.7054      3770.2978    
      7900   316.87459     -41137.421      612.62091      3770.2978    
      8000   314.3493      -41119.625     -2600.3495      3770.2978    
      8100   311.50954     -41132.809      5851.6884      3770.2978    
      8200   301.72413     -41153.867      5257.3142      3770.2978    
      8300   294.88844     -41139.772     -2850.567       3770.2978    
      8400   305.38544     -41136.861     -6801.8369      3770.2978    
      8500   301.15344     -41128.62       1190.8856      3770.2978    
      8600   288.36902     -41120.499     -259.8342       3770.2978    
      8700   286.46408     -41117.812     -5288.5413      3770.2978    
      8800   324.1456      -41153.308      8449.8881      3770.2978    
      8900   301.08125     -41128.426      5444.8222      3770.2978    
      9000   312.71471     -41147.938     -5656.7894      3770.2978    
      9100   297.38031     -41154.316     -4121.8788      3770.2978    
      9200   297.09943     -41156.845     -7156.2647      3770.2978    
      9300   306.86153     -41129.705     -6865.9986      3770.2978    
      9400   312.81381     -41121.453      933.76843      3770.2978    
      9500   299.15218     -41118.212     -14229.151      3770.2978    
      9600   293.75703     -41131.738     -4968.6438      3770.2978    
      9700   285.34899     -41141.805      5568.9059      3770.2978    
      9800   288.61788     -41151.736     -6353.8717      3770.2978    
      9900   296.03617     -41129.666     -16620.687      3770.2978    
     10000   302.75281     -41112.334     -6947.134       3770.2978    
Loop time of 280.073 on 8 procs for 10000 steps with 366 atoms

Performance: 1.542 ns/day, 15.560 hours/ns, 35.705 timesteps/s, 13.068 katom-step/s
98.7% CPU use with 8 MPI tasks x 1 OpenMP threads

MPI task timing breakdown:
Section |  min time  |  avg time  |  max time  |%varavg| %total
---------------------------------------------------------------
Pair    | 234.42     | 239.93     | 245.29     |  22.7 | 85.67
Bond    | 0.020441   | 0.021694   | 0.024203   |   0.7 |  0.01
Neigh   | 3.1554     | 3.2396     | 3.4339     |   4.5 |  1.16
Comm    | 2.4307     | 7.7645     | 13.331     | 126.1 |  2.77
Output  | 0.01837    | 0.059326   | 0.14456    |  18.2 |  0.02
Modify  | 28.608     | 28.813     | 28.893     |   1.6 | 10.29
Other   |            | 0.2407     |            |       |  0.09

Nlocal:          45.75 ave          48 max          41 min
Histogram: 1 0 1 0 1 0 0 0 2 3
Nghost:        3457.12 ave        3540 max        3375 min
Histogram: 1 0 2 0 2 0 0 2 0 1
Neighs:          31070 ave       32811 max       28021 min
Histogram: 1 0 1 1 0 0 0 1 1 3

Total # of neighbors = 248560
Ave neighs/atom = 679.12568
Ave special neighs/atom = 0
Neighbor list builds = 123
Dangerous builds = 0
  using 1 OpenMP thread(s) per MPI task
Reading restart file ...
  restart file = 2 Aug 2023, LAMMPS = 2 Aug 2023
  restoring atom style full from restart
  triclinic box = (0 0 0) to (15.724 13.9031 17.2465) with tilt (-7.584 0.1778 0.4371)
WARNING: Triclinic box skew is large. LAMMPS will run inefficiently. (src/domain.cpp:220)
  2 by 2 by 2 MPI processor grid
  pair style reaxff stores no restart info
  366 atoms
Finding 1-2 1-3 1-4 neighbors ...
  special bond factors lj:    0        0        0       
  special bond factors coul:  0        0        0       
     0 = max # of 1-2 neighbors
     0 = max # of 1-3 neighbors
     0 = max # of 1-4 neighbors
     1 = max # of special neighbors
  special bonds CPU = 0.000 seconds
  read_restart CPU = 0.002 seconds
*****Positive-deform 6 starts.*****
WARNING: Van der Waals parameters for element SI indicate inner wall+shielding, but earlier atoms indicate a different van der Waals method. This may cause division-by-zero errors. Keeping van der Waals setting for earlier atoms. (src/REAXFF/reaxff_ffield.cpp:251)
Neighbor list info ...
  update: every = 10 steps, delay = 0 steps, check = yes
  max neighbors/atom: 2000, page size: 100000
  master list distance cutoff = 12
  ghost atom cutoff = 12
  binsize = 6, bins = 4 3 3
  2 neighbor lists, perpetual/occasional/extra = 2 0 0
  (1) pair reaxff, perpetual
      attributes: half, newton off, ghost
      pair build: half/bin/newtoff/ghost
      stencil: full/ghost/bin/3d
      bin: standard
  (2) fix qeq/reaxff, perpetual, copy from (1)
      attributes: half, newton off
      pair build: copy
      stencil: none
      bin: none
Setting up Verlet run ...
  Unit style    : real
  Current step  : 0
  Time step     : 0.5
Per MPI rank memory allocation (min/avg/max) = 132.8 | 134.4 | 136.7 Mbytes
   Step          Temp          PotEng         Press          Volume    
         0   300           -41133.599      5538.1926      3770.2978    
       100   287.03725     -41121.884     -10052.699      3770.2978    
       200   278.80281     -41125.294     -3529.6921      3770.2978    
       300   296.21275     -41157.751     -5701.5999      3770.2978    
       400   279.31148     -41137.948     -6095.8724      3770.2978    
       500   282.63294     -41110.235     -11242.229      3770.2978    
       600   319.6607      -41131.318     -11355.611      3770.2978    
       700   304.86789     -41116.617     -7048.7297      3770.2978    
       800   299.91031     -41129.507      6545.049       3770.2978    
       900   289.09982     -41132.918     -2819.5925      3770.2978    
      1000   294.75171     -41133.392     -830.60575      3770.2978    
      1100   300.34369     -41135.046     -10368          3770.2978    
      1200   280.10474     -41110.508     -13761.822      3770.2978    
      1300   300.90608     -41125.496     -3170.569       3770.2978    
      1400   293.57348     -41106.4       -2306.1406      3770.2978    
      1500   318.99773     -41123.122     -7624.3352      3770.2978    
      1600   299.75406     -41123.201     -8788.0428      3770.2978    
      1700   308.69997     -41156.973     -1975.162       3770.2978    
      1800   310.07165     -41158.065     -588.50581      3770.2978    
      1900   292.20309     -41126.602     -5763.0818      3770.2978    
      2000   323.98739     -41125.271     -4800.8188      3770.2978    
      2100   305.6268      -41097.67      -1642.485       3770.2978    
      2200   295.75756     -41114.554     -3235.6905      3770.2978    
      2300   307.54575     -41149.8       -10156.75       3770.2978    
      2400   296.05684     -41133.916     -5159.9254      3770.2978    
      2500   302.29129     -41126.971      4833.7272      3770.2978    
      2600   301.38675     -41111.506     -1022.3409      3770.2978    
      2700   298.82026     -41098.403     -7248.1516      3770.2978    
      2800   303.75499     -41114.201     -6373.816       3770.2978    
      2900   305.29381     -41148.647     -3528.4461      3770.2978    
      3000   303.59438     -41156.341      289.27967      3770.2978    
      3100   294.87702     -41137.517      2003.691       3770.2978    
      3200   309.98652     -41116.877     -8426.1921      3770.2978    
      3300   295.35108     -41093.888     -10521.916      3770.2978    
      3400   295.08654     -41109.757     -8503.9032      3770.2978    
      3500   302.81663     -41136.988      4738.6499      3770.2978    
      3600   286.39026     -41127.203     -10480.982      3770.2978    
      3700   284.65856     -41119.875     -7598.592       3770.2978    
      3800   297.43574     -41122.323     -8975.4385      3770.2978    
      3900   308.90276     -41135.137     -7371.1266      3770.2978    
      4000   288.48094     -41119.647     -12261.272      3770.2978    
      4100   304.01055     -41136.167     -5778.1894      3770.2978    
      4200   288.86847     -41112.714     -9049.2399      3770.2978    
      4300   318.17162     -41127.959     -1658.1217      3770.2978    
      4400   296.65996     -41105.727     -10498.159      3770.2978    
      4500   292.55958     -41119.366      1540.6343      3770.2978    
      4600   276.29725     -41128.907     -3393.5412      3770.2978    
      4700   297.84468     -41149.725     -646.41732      3770.2978    
      4800   300.08303     -41137.609     -3933.686       3770.2978    
      4900   298.5473      -41134.812     -11732.414      3770.2978    
      5000   287.57111     -41123.776      5041.2495      3770.2978    
      5100   310.4331      -41136.821      1749.787       3770.2978    
      5200   294.93812     -41121.943      1617.7086      3770.2978    
      5300   304.87529     -41138.779     -4455.0287      3770.2978    
      5400   287.5926      -41128.152     -5898.0075      3770.2978    
      5500   288.6575      -41129.81      -7755.1548      3770.2978    
      5600   302.8048      -41128.172      1453.2617      3770.2978    
      5700   308.32769     -41124.304     -11922.751      3770.2978    
      5800   299.30487     -41119.126     -11221.789      3770.2978    
      5900   297.37324     -41138.056      1699.8106      3770.2978    
      6000   298.4265      -41158.037      1115.2329      3770.2978    
      6100   296.32572     -41156.286      5467.7389      3770.2978    
      6200   313.27756     -41141.001     -8539.3719      3770.2978    
      6300   304.43308     -41112.475     -1591.0492      3770.2978    
      6400   304.40936     -41122.628     -1011.2058      3770.2978    
      6500   294.06428     -41134.01      -1365.6594      3770.2978    
      6600   302.08738     -41143.988     -1326.9217      3770.2978    
      6700   312.10234     -41144.782     -10120.174      3770.2978    
      6800   297.22933     -41121.182     -915.93314      3770.2978    
      6900   300.08066     -41126.253     -7975.715       3770.2978    
      7000   289.64805     -41151.695     -7414.7869      3770.2978    
      7100   276.25074     -41140.836     -3129.1193      3770.2978    
      7200   303.29488     -41146.017     -7140.45        3770.2978    
      7300   308.40718     -41130.969     -9530.44        3770.2978    
      7400   308.94767     -41125.799     -10210.328      3770.2978    
      7500   309.62566     -41137.364     -854.83063      3770.2978    
      7600   292.82767     -41147.609      2210.4217      3770.2978    
      7700   290.96869     -41175.549     -1565.8935      3770.2978    
      7800   279.70844     -41155.765     -8271.281       3770.2978    
      7900   288.5258      -41151.35      -4315.0215      3770.2978    
      8000   288.47275     -41127.831      6926.2852      3770.2978    
      8100   308.96221     -41128.552     -291.4235       3770.2978    
      8200   307.40686     -41126.679     -7718.2215      3770.2978    
      8300   269.4487      -41108.878      9732.7358      3770.2978    
      8400   295.46503     -41154.041     -4902.9253      3770.2978    
      8500   310.98148     -41165.127      9742.5568      3770.2978    
      8600   293.95112     -41105.832     -5389.4864      3770.2978    
      8700   316.23466     -41113.804     -4019.019       3770.2978    
      8800   287.85577     -41099.953     -15779.677      3770.2978    
      8900   285.20074     -41122.898     -5992.116       3770.2978    
      9000   296.60051     -41146.454     -486.07046      3770.2978    
      9100   278.98582     -41124.302      1401.1862      3770.2978    
      9200   319.64203     -41152.661     -8531.2325      3770.2978    
      9300   314.53493     -41142.623      4908.5475      3770.2978    
      9400   290.89684     -41119.887     -9951.2271      3770.2978    
      9500   298.7136      -41132.263      1821.0796      3770.2978    
      9600   300.68968     -41137.27       6937.0718      3770.2978    
      9700   303.28455     -41144.134     -6123.694       3770.2978    
      9800   286.21814     -41146.012     -9017.7195      3770.2978    
      9900   275.11155     -41134.6       -5017.2771      3770.2978    
     10000   314.86645     -41147.281     -1111.7999      3770.2978    
Loop time of 278.81 on 8 procs for 10000 steps with 366 atoms

Performance: 1.549 ns/day, 15.489 hours/ns, 35.867 timesteps/s, 13.127 katom-step/s
98.7% CPU use with 8 MPI tasks x 1 OpenMP threads

MPI task timing breakdown:
Section |  min time  |  avg time  |  max time  |%varavg| %total
---------------------------------------------------------------
Pair    | 233.47     | 239.21     | 242.51     |  23.0 | 85.80
Bond    | 0.020242   | 0.021793   | 0.023808   |   0.7 |  0.01
Neigh   | 3.0705     | 3.1484     | 3.3219     |   4.1 |  1.13
Comm    | 3.7069     | 7.0953     | 12.878     | 133.5 |  2.54
Output  | 0.018386   | 0.059253   | 0.14441    |  18.2 |  0.02
Modify  | 28.826     | 29.031     | 29.115     |   1.6 | 10.41
Other   |            | 0.2425     |            |       |  0.09

Nlocal:          45.75 ave          54 max          41 min
Histogram: 1 0 3 2 1 0 0 0 0 1
Nghost:        3412.62 ave        3470 max        3366 min
Histogram: 2 0 1 1 0 2 0 0 1 1
Neighs:        31088.8 ave       36368 max       27979 min
Histogram: 1 0 3 1 2 0 0 0 0 1

Total # of neighbors = 248710
Ave neighs/atom = 679.53552
Ave special neighs/atom = 0
Neighbor list builds = 120
Dangerous builds = 0
Total wall time: 1:25:44
