ITEM: TIMESTEP
0
ITEM: NUMBER OF ATOMS
274
ITEM: BOX BOUNDS xy xz yz pp pp pp
-8.3797999999999995e+00 1.8013900000000000e+01 -8.3797999999999995e+00
0.0000000000000000e+00 1.3273200000000001e+01 1.1950000000000001e+00
0.0000000000000000e+00 1.6075500000000002e+01 4.3120000000000003e-01
ITEM: ATOMS id type q x y z
119 2 0.00493681 7.20649 1.65776 5.27926
12 4 1.36504 -0.896463 6.42003 5.31741
7 4 1.10698 0.91383 2.15602 4.91264
9 4 1.22372 -0.370677 4.6589 1.975
10 4 1.6453 0.565744 4.33626 7.10975
242 1 -0.680562 3.26851 0.405699 2.94199
21 4 0.817013 5.56249 1.51881 5.57696
26 4 1.31205 5.36763 4.48948 6.89683
41 1 -0.671427 0.922473 0.547656 5.81028
44 1 -0.684342 4.26017 3.99305 2.06963
55 3 -0.795865 1.09461 0.827305 1.09656
56 3 -0.814176 -0.501643 2.39525 4.082
58 3 -0.792097 -1.80911 4.4909 2.81477
59 3 -0.815628 -0.0416357 3.38402 1.07068
243 2 0.155208 3.42964 1.55163 2.72661
61 3 -0.792339 1.25732 3.35243 5.96581
62 3 -0.870118 -0.414074 5.38042 6.42074
74 3 -0.7994 5.63647 0.508711 7.20875
78 3 -0.848419 0.855731 5.08198 2.92367
81 3 -0.778579 5.49886 3.08147 5.71325
84 3 -0.811335 2.80362 6.04892 4.35363
85 3 -0.834419 4.62475 5.70743 6.24213
113 2 0.120489 -1.52935 5.33286 4.10003
111 2 0.00582369 2.17509 1.86532 3.81384
112 2 -0.0142017 -0.650623 6.06285 1.07588
5 4 1.31532 0.313011 2.00036 0.185433
118 2 -0.022776 4.37374 0.826531 4.51195
24 4 1.1816 4.96248 4.95835 0.689563
222 3 -0.787064 6.51744 1.58062 1.23091
223 2 -0.0888055 6.25338 0.929826 3.90443
141 2 0.185521 4.65526 2.95933 1.98427
142 2 0.202822 3.11985 4.09989 1.7642
143 2 0.204484 4.4855 4.49383 3.04093
220 4 1.0028 6.84523 0.400213 2.27829
25 4 1.49295 1.54721 6.426 3.46963
82 3 -0.808083 1.53942 5.23884 7.9971
135 2 0.209759 1.00614 1.00112 6.90853
197 2 0.18714 4.48866 0.916517 0.0818765
60 3 -0.822579 -0.315541 3.32106 8.02696
138 2 0.148468 1.00566 0.996223 12.1073
8 4 1.24819 1.78833 2.89498 11.0235
13 4 1.23984 0.383638 4.98589 12.591
27 4 1.35993 1.76799 6.60112 8.897
20 4 1.27176 4.60309 2.8678 9.32134
23 4 1.25618 6.94785 2.95783 11.2769
99 3 -0.801449 7.94266 1.35625 8.28856
226 4 0.886696 3.30344 6.23201 15.0365
42 1 -0.658107 2.08288 1.49536 12.1636
57 3 -0.776059 0.237185 2.6251 10.2528
63 3 -0.818677 -0.590597 3.93046 13.3334
64 3 -0.839332 1.7757 4.33312 12.183
65 3 -0.862334 -2.18036 6.06458 9.50076
66 3 -0.828811 -0.351845 5.75489 11.3989
73 3 -0.756628 2.99451 2.76854 9.87274
75 3 -0.875312 5.52934 2.93043 10.5208
76 3 -0.843127 7.01206 1.59195 12.1594
80 3 -0.821811 4.77501 4.07202 8.31309
262 3 -0.800662 0.227228 1.99553 15.3471
137 2 0.171454 2.91272 0.884457 11.7112
114 2 -0.0356675 0.509321 6.08024 13.8362
29 4 0.962679 3.91538 6.32552 11.1725
124 2 0.0339273 3.519 4.99008 12.1421
136 2 0.158541 2.39773 1.91085 13.3416
179 4 1.17142 7.56631 2.65219 15.7492
183 1 -0.661168 6.04093 1.8533 15.0793
86 3 -0.810473 2.83615 6.4525 10.1368
123 2 -0.0260039 5.35411 5.76641 10.4476
196 2 0.182608 5.39067 2.68696 14.7025
117 2 0.0836779 4.93339 1.48694 8.35517
227 3 -0.776292 4.57424 5.80644 15.8605
195 2 0.250199 6.36143 1.13352 14.2667
245 1 -0.679022 2.83573 3.08942 15.0487
246 2 0.172559 2.41205 3.56801 14.0315
247 2 0.163252 3.41141 2.08487 14.8103
229 2 -0.0200731 3.646 6.34434 13.3807
228 2 -0.012908 2.13862 4.97804 15.1486
266 2 0.096736 -1.60713 4.81142 15.3707
248 2 0.179389 3.42258 3.80845 15.715
265 2 0.203808 -4.33505 12.4855 2.42728
3 3 -0.790651 -6.0094 11.2889 0.940846
253 2 0.161669 -4.26355 7.96312 0.500908
16 4 1.46384 -3.13481 8.05663 6.49289
17 4 1.20819 -4.6195 9.96749 4.84217
154 2 0.176424 0.950394 9.50886 7.49515
161 2 0.192024 -1.10837 10.0977 0.444047
31 4 1.25849 -2.03207 10.3704 3.09759
33 4 1.10974 0.0761151 10.9671 5.6083
48 1 -0.654961 -1.23351 8.93368 2.11626
49 1 -0.658379 0.131504 9.32756 6.69951
133 2 0.169559 -6.60087 12.6699 5.58754
68 3 -0.88351 -1.9954 7.4138 5.63307
69 3 -0.844711 -6.00554 10.2726 4.34978
70 3 -0.760469 -4.45805 8.37238 5.67677
79 3 -0.843196 0.281886 7.21134 4.63075
87 3 -0.857072 1.98827 7.29675 2.2902
30 4 0.993764 2.24891 8.01333 0.899321
89 3 -0.765924 -2.14169 11.805 1.97438
90 3 -0.839407 -3.42668 10.031 3.75153
93 3 -0.781961 -0.879942 10.6626 4.2416
94 3 -0.825847 -0.538543 12.1373 6.47977
115 2 -0.0197041 -4.36461 11.196 6.01351
147 2 0.179984 2.04033 7.90617 6.74885
151 2 0.174816 -0.1316 9.22608 1.63609
152 2 0.165253 -2.1138 8.73608 1.38893
153 2 0.203217 -0.992548 8.09248 2.87183
251 1 -0.653524 -5.12518 8.62379 0.992475
155 2 0.259138 0.316437 8.43177 5.95855
156 2 0.272163 -1.00481 9.34591 7.05113
46 1 -0.671662 2.63808 7.9371 7.67703
148 2 0.179586 3.70758 7.59534 7.63904
272 2 0.176369 0.74554 10.1396 0.41783
19 4 1.38101 -1.26892 12.8405 7.73591
1 4 1.2314 -6.61627 12.4797 1.93695
268 2 0.220064 -4.84569 9.14869 1.9817
91 3 -0.809306 -2.59009 9.58454 7.69218
67 3 -0.81591 -3.60119 6.97816 7.59825
47 1 -0.683656 1.70782 9.84898 0.983248
122 2 0.0148736 3.50847 8.01199 5.90265
271 2 0.161248 1.68342 10.0407 2.10441
28 4 1.25671 4.1566 6.61083 5.10193
244 2 0.1378 -5.51103 12.9315 3.97778
159 2 0.208627 1.19358 9.39638 12.3662
18 4 1.22236 -2.14128 8.41403 12.78
22 4 1.25193 -0.691616 13.0251 12.2076
32 4 0.945753 -2.43089 10.4493 9.01928
35 4 1.23402 -1.32848 10.8221 14.3509
140 2 0.160042 -6.12832 11.6562 14.5274
160 2 0.174446 1.08175 10.7372 14.9325
50 1 -0.656656 2.08392 10.0277 12.1838
51 1 -0.652018 0.210092 11.1109 15.4708
162 2 0.215027 0.1664 12.2209 15.6092
72 3 -0.818999 -1.70118 8.17084 11.2202
83 3 -0.812662 0.357389 7.39228 9.40444
88 3 -0.772875 2.62144 7.58443 15.5834
92 3 -0.823031 -1.40068 11.6178 9.07877
95 3 -0.810754 4.0829 7.72701 12.0264
96 3 -0.781328 -1.05103 9.23017 13.6723
97 3 -0.829752 -1.39172 12.0202 13.1985
98 3 -0.7667 -2.77739 10.7552 15.277
116 2 -0.0269831 -3.59279 9.32138 12.7977
120 2 0.0532772 -0.782269 12.3918 10.6382
126 2 0.0926204 -1.99634 9.41359 10.2706
127 2 -0.0508274 -3.89972 10.9627 9.59615
128 2 0.047848 2.64785 9.18501 13.8969
139 2 0.153607 -4.8982 10.8999 13.3705
71 3 -0.845354 -2.69221 7.09674 13.432
187 3 -0.795012 0.879018 13.1195 12.5727
157 2 0.131397 2.47001 10.049 10.9293
158 2 0.196853 1.85949 11.0953 12.674
15 4 1.06064 -4.19119 10.555 16.0366
14 4 1.48647 -0.916387 6.81442 10.2682
149 2 0.156271 2.452 8.81712 8.40034
235 2 0.179714 11.6913 1.65267 3.03653
37 4 1.29935 13.0632 1.85396 5.77192
221 1 -0.64257 8.75457 0.353006 1.96764
39 4 1.27909 11.3169 3.99253 7.44798
45 1 -0.672952 7.14731 5.22783 6.98247
54 1 -0.668496 10.7577 5.21442 6.15
101 3 -0.806291 13.757 2.80117 4.77975
102 3 -0.874915 14.0347 0.822201 6.48769
267 2 0.16707 12.716 6.16195 0.158004
4 4 1.45274 14.8879 2.70043 3.48577
106 3 -0.810461 12.1668 2.69363 6.66154
232 3 -0.806786 14.3492 1.52457 2.50104
129 2 -0.00924858 12.054 0.863829 4.71023
130 2 0.0611748 7.62653 5.95114 3.80989
230 4 1.13334 13.6712 0.0947984 2.35107
169 2 0.222013 10.8488 6.23267 6.66645
146 2 0.185703 7.8899 4.4261 6.79584
103 3 -0.767941 5.84106 6.34879 1.51513
145 2 0.170342 7.29952 6.13078 6.35252
170 2 0.158431 9.64788 4.94282 5.9814
171 2 0.204114 11.3186 5.06523 5.21445
231 1 -0.667671 11.7741 0.587338 2.77989
224 2 0.186744 8.78601 1.35527 1.36133
234 2 0.174156 11.3256 0.428345 1.74961
225 2 0.120409 8.90573 0.460535 3.17644
250 2 0.182453 11.8819 4.36007 0.0375462
273 2 0.177031 9.39187 0.201011 0.0799617
11 4 1.49615 13.1999 6.1823 8.94527
36 4 1.27766 9.04883 2.2958 9.22414
52 1 -0.663852 10.3417 1.19164 9.99328
77 3 -0.730763 7.07886 4.4495 15.8075
100 3 -0.836724 8.21261 3.11773 10.4087
107 3 -0.809045 12.3096 4.65043 8.55174
110 2 0.0246187 14.4645 3.37999 9.66549
188 3 -0.767414 8.98884 2.14989 14.7081
202 2 0.156805 13.9005 3.45759 11.4063
163 2 0.180975 11.3738 1.86758 10.3159
184 1 -0.624963 11.0483 0.644499 14.9722
165 2 0.226613 9.80394 0.724929 11.0089
172 4 0.941296 15.9378 2.34241 14.0994
173 1 -0.666447 14.3739 1.29478 13.6062
174 2 0.079319 14.2202 2.37791 14.9106
175 2 0.0263554 15.8596 0.964949 12.8052
176 2 0.175319 13.6239 1.70341 12.8209
164 2 0.15248 10.5016 0.433474 9.14862
178 4 1.13316 13.8349 5.62861 14.0142
180 4 1.30294 10.0678 1.61838 13.747
181 4 1.32759 11.8602 3.93775 12.3135
205 2 0.15761 8.94434 5.78827 9.66448
185 1 -0.698567 12.9082 2.97605 10.8654
249 1 -0.632477 13.8953 5.51448 15.7691
189 3 -0.80562 11.0068 2.67107 13.0934
190 3 -0.834752 12.9294 4.55371 13.3553
192 3 -0.831025 11.0826 5.07391 11.5046
263 3 -0.842561 15.4021 1.13198 8.80751
199 2 0.173863 12.0543 1.28657 14.8583
200 2 0.259794 12.5928 3.59358 9.95848
201 2 0.142171 12.9619 1.88631 10.6749
182 4 1.07023 10.772 6.40782 10.7663
144 2 0.158695 7.14404 5.48846 8.10884
105 3 -0.76317 9.91758 3.32737 8.24984
6 4 1.33769 15.8678 2.56174 9.19721
121 2 -0.0183678 6.919 4.16194 12.4355
233 2 0.160787 2.86045 12.6885 3.49715
255 2 0.147869 2.17018 12.4872 5.21921
167 2 0.165485 8.8284 6.84578 2.24163
53 1 -0.631363 8.2883 7.35718 3.09611
104 3 -0.852284 5.24643 7.32749 4.08497
237 1 -0.667977 7.67719 10.371 0.394687
125 2 -0.00066413 3.93203 8.17978 0.67675
150 2 0.152212 2.6233 10.3976 0.559847
166 2 0.0418673 7.27858 8.47038 2.56346
168 2 0.170548 8.9583 7.84508 3.8281
206 4 1.1924 9.22003 10.3726 3.95441
215 2 0.158912 4.85084 9.75588 6.80901
208 4 1.08507 7.43037 10.1702 6.70954
209 1 -0.674841 5.77049 9.33853 6.41025
261 2 0.261816 7.16494 11.7484 3.59488
211 3 -0.783015 8.26958 10.2016 5.33072
212 3 -0.756323 7.03808 11.6063 7.51623
213 2 -0.000862413 8.92994 9.15266 2.78075
254 1 -0.67491 1.81525 11.457 4.86526
216 2 0.136606 6.05935 8.3227 6.95349
217 2 0.190634 5.7471 9.20619 5.25434
256 2 0.160123 1.47226 11.4282 3.71938
252 2 0.140092 10.6666 8.03754 0.964757
257 2 0.140084 2.46952 10.6157 5.18239
238 3 -0.798181 5.46625 12.1232 0.932103
240 2 0.188849 8.14345 10.6773 1.40142
38 4 1.00565 6.2286 7.03214 2.89663
219 2 0.152709 8.45329 8.16051 7.78007
258 1 -0.690384 6.0647 11.8823 3.80173
259 2 0.141995 5.49734 10.9238 3.77516
260 2 0.206024 5.85137 12.4598 4.75464
207 4 1.22845 6.209 13.0275 7.80417
239 2 0.138546 7.03303 9.35789 0.487523
2 3 -0.797871 8.97905 11.7031 3.19843
218 2 0.192977 9.7265 9.53992 7.96892
270 2 0.171568 0.895244 12.3054 1.50969
134 2 0.242647 8.3325 12.9135 5.58714
198 2 0.159815 2.72911 12.3992 14.5297
40 4 0.899047 6.24525 11.0859 13.002
108 3 -0.813753 4.96037 10.1655 12.8924
109 3 -0.817909 6.85078 11.2902 14.4459
214 2 -0.0403724 4.75906 12.6943 8.68131
132 2 -0.0476934 7.29316 10.6902 11.85
264 2 0.0631804 9.03441 12.5172 15.5913
203 2 0.178267 8.99596 7.83178 9.45349
269 2 0.148983 10.2677 10.3783 13.3233
193 2 0.0566458 11.2382 9.43496 15.027
186 1 -0.672708 9.04048 6.94725 10.2583
194 2 0.015154 9.92132 7.62433 11.7885
236 4 1.0503 7.43711 11.818 15.8282
34 4 1.02567 3.78658 9.21247 12.5854
241 2 0.160298 9.67228 10.7144 15.4682
131 2 -0.0168549 5.82744 12.5947 12.3524
43 1 -0.646751 11.0435 10.6942 14.0378
274 2 0.156241 8.15453 9.52781 9.01218
191 3 -0.776434 12.0745 7.08366 10.0016
204 2 0.146613 8.19695 7.04011 11.0281
177 2 0.187381 5.71239 13.1352 13.9804
210 1 -0.642367 8.66882 9.21626 8.06198
ITEM: TIMESTEP
100
ITEM: NUMBER OF ATOMS
274
ITEM: BOX BOUNDS xy xz yz pp pp pp
-8.3797999999999995e+00 1.8013900000000000e+01 -8.3797999999999995e+00
0.0000000000000000e+00 1.3271097637500000e+01 1.1950000000000001e+00
0.0000000000000000e+00 1.6075500000000002e+01 4.2909763749999996e-01
ITEM: ATOMS id type q x y z
119 2 -0.0168932 7.37445 1.40816 5.24904
12 4 1.31553 -0.8881 6.4535 5.24725
7 4 1.10775 0.931531 2.07291 5.05421
9 4 1.25462 -0.431574 4.58543 1.82045
10 4 1.55273 0.48759 4.36464 7.11225
242 1 -0.673528 3.20577 0.413281 2.97996
21 4 0.83888 5.68883 1.4948 5.60541
26 4 1.27091 5.44755 4.576 6.85023
41 1 -0.657889 0.832838 0.437579 5.89435
44 1 -0.682707 4.1147 3.81949 1.79135
55 3 -0.777988 0.940212 0.738046 1.12868
56 3 -0.787148 -0.529843 2.27695 4.27719
58 3 -0.807795 -1.70714 4.47374 2.66841
59 3 -0.845585 -0.0455279 3.26252 0.901444
243 2 0.156155 3.31388 1.54602 3.00076
61 3 -0.773196 1.37295 3.25057 6.0015
62 3 -0.865588 -0.253951 5.44536 6.2319
74 3 -0.766958 5.40095 0.588772 7.24479
78 3 -0.861883 0.772646 5.02723 2.77564
81 3 -0.772712 5.43523 2.96622 5.88042
84 3 -0.812706 2.90022 5.90122 4.21859
85 3 -0.801004 4.80357 5.87137 6.08669
113 2 0.0949025 -1.55329 5.52802 3.92792
111 2 0.0104232 2.1439 1.83626 3.81639
112 2 -0.0263062 -0.718772 5.69635 0.593754
5 4 1.34218 0.155215 1.95601 0.112673
118 2 -0.0156973 4.55124 0.955624 4.3621
24 4 1.24262 4.83676 4.96917 0.519736
222 3 -0.788288 6.34366 1.39957 1.08579
223 2 -0.0854333 6.36854 0.975529 3.85428
141 2 0.193203 4.63265 2.8164 1.81573
142 2 0.182185 3.05695 3.68121 1.37405
143 2 0.222455 4.06564 4.2928 2.78818
220 4 1.03983 6.91319 0.445235 2.21048
25 4 1.42198 1.51858 6.21091 3.54661
60 3 -0.825952 -0.706984 3.47921 7.78444
135 2 0.207146 0.783888 0.717093 6.99562
138 2 0.163089 0.91047 1.11343 12.2075
8 4 1.28178 1.70633 2.89944 10.9615
13 4 1.26917 0.419582 5.00653 12.6039
27 4 1.34491 1.61655 6.62438 8.882
20 4 1.23565 4.67386 3.05445 9.3923
23 4 1.30532 7.00058 2.94768 11.3529
99 3 -0.831332 7.95 1.2111 8.44729
226 4 0.918285 3.44639 6.20928 15.0885
42 1 -0.651151 1.92593 1.51328 12.2344
57 3 -0.836223 0.342632 2.64911 10.1735
63 3 -0.874563 -0.492777 3.89204 13.3306
64 3 -0.848642 1.80852 4.41027 12.2195
65 3 -0.876657 -2.21773 5.99699 9.54536
66 3 -0.848202 -0.318815 5.759 11.4238
73 3 -0.773427 3.10754 2.82282 10.1393
75 3 -0.865789 5.67317 3.14073 10.6029
76 3 -0.877014 7.18067 1.51826 11.9966
80 3 -0.81262 4.91945 4.25106 8.34561
262 3 -0.840793 0.218057 1.96252 15.1102
137 2 0.164856 2.69402 0.720996 11.841
114 2 -0.0448156 1.01067 6.11475 13.6715
29 4 0.962907 3.81218 6.38713 11.1691
124 2 0.0832109 3.30509 4.95414 11.9411
136 2 0.185477 2.21849 2.09644 13.2901
179 4 1.26766 7.49705 2.73714 15.6767
183 1 -0.666086 5.94205 2.04069 14.9054
86 3 -0.804141 2.71966 6.65468 10.0287
123 2 -0.0103136 5.28968 5.71372 10.7418
196 2 0.169223 5.2227 2.93196 14.7071
117 2 0.0938543 4.90651 1.65571 8.42941
227 3 -0.854456 4.8076 5.7259 15.6686
195 2 0.239291 6.288 1.45951 13.974
245 1 -0.664669 2.77137 2.99814 14.9999
246 2 0.177647 2.43258 3.60708 14.0558
247 2 0.16013 3.17231 1.89463 14.8545
229 2 -0.0282781 3.45773 6.2867 13.3662
228 2 -0.0160581 2.36673 4.95069 15.1499
82 3 -0.794796 1.49481 5.07766 8.24446
248 2 0.165163 3.51487 3.5925 15.6384
197 2 0.190243 5.52401 1.25072 15.6786
265 2 0.197073 -4.44076 12.5842 2.22391
3 3 -0.800299 -5.94889 11.1985 0.991236
253 2 0.168873 -4.02956 8.36506 0.788008
16 4 1.47783 -3.25216 8.15853 6.59844
17 4 1.17152 -4.5864 10.1241 4.88049
154 2 0.178938 0.859851 9.39743 7.4213
161 2 0.189205 -1.10739 10.1738 0.298687
31 4 1.29492 -1.99661 10.3735 3.14504
33 4 1.11985 0.0745131 11.0811 5.6184
48 1 -0.666811 -1.31554 9.0235 1.95766
49 1 -0.663596 0.0488346 9.47882 6.63815
133 2 0.147895 -6.53213 12.7444 5.59556
68 3 -0.84658 -1.97912 7.4777 5.86412
69 3 -0.829883 -6.10122 10.2521 4.41234
70 3 -0.767793 -4.50828 8.59501 5.79569
79 3 -0.815521 0.360356 7.2041 4.60854
87 3 -0.765356 1.85313 7.5223 2.36476
30 4 0.984275 2.22594 8.14815 0.963019
89 3 -0.780646 -1.91643 11.7856 2.24889
90 3 -0.819047 -3.50252 10.0631 3.64629
93 3 -0.792447 -0.938065 10.7158 4.34958
94 3 -0.81724 -0.4998 12.2751 6.50173
115 2 -0.0286126 -4.20314 11.5477 5.74432
147 2 0.178415 1.97853 7.64314 6.63088
151 2 0.193535 -0.226861 9.33674 1.66726
152 2 0.168467 -1.99616 8.81838 1.07149
153 2 0.173635 -1.39201 8.14804 2.68083
251 1 -0.680279 -5.19989 8.46707 0.909958
155 2 0.265972 0.136004 8.68239 5.83496
156 2 0.284417 -1.00682 9.42024 7.1145
46 1 -0.674557 2.58158 7.78709 7.56355
148 2 0.191904 3.67109 7.46245 7.59844
272 2 0.177665 0.686468 10.1358 0.24596
19 4 1.3092 -1.32122 12.8954 7.83448
1 4 1.26179 -6.72245 12.4448 2.00517
268 2 0.197883 -5.44417 8.77009 1.94489
91 3 -0.851484 -2.6606 9.64171 7.6199
67 3 -0.814849 -3.82954 7.01792 7.54781
47 1 -0.678635 1.58202 9.90946 0.927978
122 2 -0.00221184 3.5505 8.17897 5.86481
271 2 0.168216 1.34619 10.1641 2.02654
28 4 1.23885 4.10015 6.76556 5.04004
244 2 0.133783 -5.37501 12.8322 4.01055
15 4 1.0681 -5.2544 10.138 0.0528055
159 2 0.19573 1.44758 9.05935 12.3632
18 4 1.21439 -2.15692 8.37889 12.7459
22 4 1.25799 -0.503416 12.9842 12.1358
32 4 0.981399 -2.45917 10.5244 8.88279
35 4 1.2645 -1.30732 10.8322 14.235
14 4 1.47021 -1.01597 6.74788 10.297
160 2 0.167669 0.98726 11.0136 14.6067
50 1 -0.660716 2.29358 9.8596 12.1771
51 1 -0.634428 0.148612 11.2884 15.3505
162 2 0.212448 0.169101 12.4188 15.5521
72 3 -0.80343 -1.74606 8.32771 11.1733
83 3 -0.808951 0.104691 7.32073 9.2397
88 3 -0.792284 2.84333 7.55826 15.681
92 3 -0.823511 -1.39841 11.5744 9.14789
95 3 -0.844906 4.14017 7.67464 12.016
96 3 -0.775616 -1.02713 9.28328 13.5586
97 3 -0.820226 -1.33985 12.0289 13.1651
98 3 -0.78098 -2.64706 10.7462 15.3043
116 2 -0.0392989 -3.55912 9.26239 12.9151
120 2 0.0734666 -0.421829 12.2957 10.5815
126 2 0.112983 -2.13436 9.44621 10.1176
127 2 -0.0468297 -3.92868 11.0779 9.49115
128 2 0.0382285 2.85381 9.11548 13.9623
139 2 0.146111 -4.80879 10.8655 13.7097
71 3 -0.845222 -2.49264 7.01869 13.4207
149 2 0.156712 2.37014 8.74213 8.13555
157 2 0.159324 2.52307 9.93837 11.0061
158 2 0.194802 2.21882 10.8653 12.6073
140 2 0.177871 -5.96059 11.5597 14.9209
235 2 0.157236 11.5302 1.46594 2.82572
37 4 1.27452 13.0549 1.79597 5.72289
221 1 -0.641716 8.75341 0.355033 1.89502
39 4 1.31829 11.3323 3.76116 7.60273
45 1 -0.673974 7.25828 5.10026 7.01591
54 1 -0.62949 10.7932 4.97415 6.26158
101 3 -0.768123 13.7695 2.91983 4.81341
102 3 -0.869963 14.0002 1.06307 6.67626
250 2 0.166809 11.5565 4.70188 0.112668
4 4 1.4119 14.9002 2.71512 3.51012
106 3 -0.785486 11.9818 2.5593 6.58947
232 3 -0.798275 14.4009 1.67309 2.45147
129 2 -0.0216273 12.2904 0.684561 4.63713
130 2 0.0808656 7.63555 5.72244 3.37869
230 4 1.04599 13.6548 0.0876654 2.47531
169 2 0.234639 11.6915 5.61989 6.07242
146 2 0.193551 7.92051 4.28538 6.66887
103 3 -0.787075 5.61709 6.28171 1.44876
145 2 0.177508 7.46932 6.05813 6.54489
170 2 0.185322 9.95481 5.50986 6.89418
171 2 0.178927 10.4184 4.64465 5.29162
231 1 -0.657219 11.7106 0.302037 2.80668
224 2 0.16702 8.84296 1.30822 1.23798
225 2 0.110105 8.95971 0.588945 3.12634
207 4 1.22448 14.6707 0.231996 7.78028
267 2 0.173231 12.6721 6.33454 0.239972
11 4 1.45679 13.2025 6.18135 8.92734
36 4 1.26881 8.9697 2.42653 9.16814
52 1 -0.658603 10.3253 1.54039 10.0442
77 3 -0.755271 7.29762 4.31217 15.8914
100 3 -0.806269 8.19585 3.29675 10.4071
107 3 -0.79659 12.4751 4.47646 8.54825
110 2 0.0474486 14.6322 3.32569 9.88918
188 3 -0.783968 8.80816 2.19611 14.7398
202 2 0.166144 13.9441 3.45534 11.6849
163 2 0.192669 11.3007 2.24786 10.3099
184 1 -0.671602 11.156 0.594299 14.9751
165 2 0.24304 9.8839 1.04372 11.0667
172 4 1.05723 15.986 2.53507 14.0434
173 1 -0.653807 14.4569 1.48402 13.3177
174 2 0.0537717 14.2079 2.56421 14.7204
175 2 0.056607 15.87 0.924604 12.7714
176 2 0.176723 13.8401 1.91506 12.4507
164 2 0.150374 10.4763 0.706981 9.23723
178 4 1.08994 13.7594 5.64828 14.1098
180 4 1.27807 10.0371 1.51846 13.8232
181 4 1.32643 11.7914 3.80408 12.3698
205 2 0.178887 9.1833 5.85425 9.61769
185 1 -0.697445 13.009 3.02813 10.9826
249 1 -0.645188 13.6885 5.72029 15.8073
189 3 -0.805697 10.8949 2.49939 12.9792
190 3 -0.830617 12.8098 4.59734 13.3356
192 3 -0.824124 10.9673 4.97349 11.6668
263 3 -0.836917 15.5157 1.10181 8.86627
199 2 0.173948 12.1109 1.18087 15.0203
200 2 0.256959 12.7839 3.69443 10.0467
201 2 0.142616 13.126 1.92167 10.7297
182 4 1.09421 10.9555 6.36424 10.9861
144 2 0.183785 7.27255 5.19023 8.18414
105 3 -0.808568 9.83296 3.44521 8.16359
6 4 1.31725 15.9449 2.59032 9.07889
121 2 -0.0101993 7.02407 4.16634 12.5195
266 2 0.076638 14.9502 4.82558 15.633
177 2 0.173386 13.9171 0.566341 13.7905
273 2 0.176196 10.6355 0.590053 16.014
233 2 0.16354 2.72024 12.4763 3.59996
255 2 0.134934 1.88234 12.4356 5.15229
167 2 0.170655 9.15831 7.1269 2.61359
53 1 -0.629661 8.16406 7.18659 3.09781
104 3 -0.824924 5.26798 7.18578 4.02385
237 1 -0.680499 7.58446 10.0744 0.524103
125 2 -0.00347734 3.89613 8.16152 0.915307
150 2 0.143206 2.554 10.4282 0.520788
166 2 0.0363046 7.24622 8.49666 2.43466
168 2 0.16223 8.28934 7.50895 4.2181
206 4 1.21392 9.25584 10.3588 3.8781
215 2 0.150855 5.03553 9.96023 7.18873
208 4 1.0485 7.45473 10.154 6.64759
209 1 -0.673424 5.77991 9.25988 6.67033
261 2 0.280614 7.24649 11.7967 3.65457
211 3 -0.77721 8.23823 10.2415 5.06297
212 3 -0.775355 7.06178 11.6565 7.26019
213 2 -0.00384231 8.9347 9.02023 2.87358
254 1 -0.668655 1.94765 11.2393 5.0533
216 2 0.16098 5.98889 8.29301 7.23382
217 2 0.170857 5.55003 9.12784 5.5756
256 2 0.155775 2.06004 10.8035 3.99474
252 2 0.157592 11.0306 7.59286 0.575072
257 2 0.144378 2.63784 10.7339 5.82373
238 3 -0.782243 5.40518 12.0441 1.01775
240 2 0.164648 8.07472 10.1842 1.53612
38 4 1.03401 6.17838 6.94801 2.75508
219 2 0.151751 8.04534 8.05975 7.78088
258 1 -0.686077 6.13338 11.8788 3.84774
259 2 0.144617 5.57421 10.8881 3.74826
260 2 0.172291 5.90396 12.4305 4.80722
234 2 0.181942 3.02409 12.7522 1.77249
239 2 0.123463 6.7053 9.16029 0.544579
2 3 -0.814606 8.98703 11.8008 3.05934
218 2 0.211052 9.59017 8.968 7.4698
210 1 -0.659398 8.59416 9.03094 7.87171
134 2 0.251806 8.30112 12.6889 5.56722
270 2 0.184327 0.730479 12.2189 1.44886
198 2 0.170004 2.96364 12.3758 14.6075
40 4 0.921912 6.32315 11.2103 13.0851
108 3 -0.810879 5.16409 10.1771 12.8568
109 3 -0.805292 6.76415 11.4414 14.5364
214 2 -0.0366551 5.02903 12.3276 8.70063
132 2 -0.042215 7.61432 10.8393 12.2043
264 2 0.0597224 9.01962 12.3588 15.909
203 2 0.174804 8.96769 7.83399 9.57597
269 2 0.149377 10.2005 10.3698 13.7048
193 2 0.0909873 11.4038 9.56608 15.0985
186 1 -0.64372 9.2414 6.91693 10.3077
194 2 0.000786827 10.0494 7.55272 11.9677
236 4 1.03873 7.42307 11.7238 16.011
34 4 1.02843 3.98949 9.10155 12.6346
241 2 0.177365 9.60591 10.425 15.7993
131 2 -0.014021 6.02074 12.6488 12.2442
43 1 -0.668477 11.0723 10.6438 14.346
274 2 0.153878 8.52759 9.51335 8.90289
191 3 -0.80615 12.1171 6.96759 10.1411
204 2 0.146546 8.4971 6.87876 11.196
187 3 -0.800418 1.03741 13.0803 12.5716
ITEM: TIMESTEP
200
ITEM: NUMBER OF ATOMS
274
ITEM: BOX BOUNDS xy xz yz pp pp pp
-8.3797999999999995e+00 1.8013900000000000e+01 -8.3797999999999995e+00
0.0000000000000000e+00 1.3268995275000000e+01 1.1950000000000001e+00
0.0000000000000000e+00 1.6075500000000002e+01 4.2699527499999945e-01
ITEM: ATOMS id type q x y z
119 2 -0.0090052 7.29575 1.31935 5.31497
12 4 1.29524 -0.926234 6.48161 5.15531
7 4 1.12652 0.870011 2.08137 5.08092
9 4 1.21508 -0.427258 4.56584 1.83741
10 4 1.586 0.302735 4.32566 7.12365
242 1 -0.68242 3.18879 0.399075 3.11454
21 4 0.828053 5.62537 1.58598 5.74322
26 4 1.19417 5.50724 4.64235 6.93828
41 1 -0.653467 0.723706 0.442702 5.99435
44 1 -0.678771 3.87831 3.90302 1.86783
55 3 -0.761361 1.09326 0.82935 0.95816
56 3 -0.860461 -0.495705 2.41022 4.37002
58 3 -0.813369 -1.75069 4.43798 2.71511
59 3 -0.821952 -0.0108624 3.27282 0.939994
243 2 0.158082 3.15298 1.51797 2.74197
61 3 -0.767793 1.25674 3.09288 6.22994
62 3 -0.858052 -0.392032 5.35915 6.10085
74 3 -0.825739 5.62506 0.566171 7.38816
78 3 -0.832077 0.920285 5.08784 2.55979
81 3 -0.778411 5.47324 3.05643 5.91348
84 3 -0.797661 2.88812 5.79568 4.15689
85 3 -0.781459 4.84293 5.82261 6.02928
113 2 0.0787671 -1.6601 5.64642 3.85809
111 2 0.00654017 2.18764 1.87717 3.91476
112 2 -0.0278776 -0.87974 5.90252 0.88601
5 4 1.28528 0.301551 1.97126 0.0311032
118 2 -0.0180555 4.49424 1.07483 4.50134
24 4 1.27343 4.78833 4.83634 0.519763
222 3 -0.738946 6.41925 1.42328 1.19387
223 2 -0.0920226 6.23117 0.979104 3.95055
141 2 0.170728 4.53905 3.02713 2.25294
142 2 0.171879 2.97993 3.53791 1.22169
143 2 0.273884 3.53895 4.58658 2.69787
220 4 1.00766 6.86837 0.453316 2.30121
25 4 1.35323 1.4839 6.38046 3.43034
60 3 -0.815963 -0.815544 3.53108 7.97988
135 2 0.266838 0.345747 0.589301 7.05625
244 2 0.135521 2.80555 0.124789 4.16663
138 2 0.152756 0.804264 1.10168 11.8606
8 4 1.32108 1.83606 2.94836 10.9031
13 4 1.31143 0.429262 4.98496 12.5382
27 4 1.41538 1.52636 6.58763 8.81615
20 4 1.23599 4.64071 3.11341 9.38597
23 4 1.28301 7.01438 2.92689 11.3314
99 3 -0.811064 7.98063 1.4626 8.62474
226 4 0.920536 3.57841 6.23382 15.016
42 1 -0.631119 1.95312 1.4428 12.0946
57 3 -0.870769 0.495171 2.73884 10.1762
63 3 -0.889006 -0.447414 3.93147 13.2635
64 3 -0.863198 1.85277 4.3773 12.3095
65 3 -0.830509 -2.28667 5.78455 9.4972
66 3 -0.899216 -0.302766 5.80194 11.4442
73 3 -0.814679 3.13187 2.86904 10.0615
75 3 -0.864357 5.66659 3.20669 10.5885
76 3 -0.87999 7.28889 1.47365 11.7964
80 3 -0.772942 4.79191 4.49418 8.56899
121 2 0.00358162 6.91189 3.81267 12.7845
137 2 0.159462 2.76852 0.635058 11.7908
114 2 -0.0442427 0.912556 6.05268 13.7169
29 4 0.949109 3.7868 6.39288 11.1091
124 2 0.0503616 3.33603 5.14863 12.1358
136 2 0.175028 2.09561 1.99264 13.2026
179 4 1.27284 7.4644 2.62445 15.5491
183 1 -0.675768 5.85861 2.20792 14.7699
86 3 -0.799567 2.60247 6.61834 9.9911
123 2 0.0363009 5.07901 5.58522 10.4322
196 2 0.161686 5.39466 3.13741 14.2651
117 2 0.0747703 4.9464 1.75302 8.42164
227 3 -0.843675 4.97284 5.83405 15.6002
195 2 0.219203 6.22311 1.4872 13.9428
245 1 -0.685836 2.7688 3.03901 14.8181
246 2 0.209459 2.41565 3.59403 13.8557
247 2 0.156773 3.22617 1.95441 14.5304
229 2 -0.0314375 3.75607 6.37787 13.3248
228 2 -0.0228499 2.40175 4.99668 15.1749
82 3 -0.816796 1.33008 5.19282 8.03793
248 2 0.151357 3.56621 3.65409 15.3239
197 2 0.186137 5.16673 1.76825 15.5315
266 2 0.0706649 -1.84037 5.19747 15.9797
14 4 1.45918 -1.06788 6.65167 10.3868
6 4 1.30063 -0.759892 2.52062 9.21913
265 2 0.188606 -4.33103 12.5755 2.64019
3 3 -0.82742 -5.8304 11.3037 1.04123
253 2 0.169272 -4.00124 8.52836 1.11938
16 4 1.51358 -3.14702 8.18484 6.70004
17 4 1.20638 -4.53409 10.0806 4.7972
154 2 0.186292 0.796749 9.43771 7.46607
161 2 0.193924 -1.2182 10.0624 0.348254
31 4 1.23911 -2.03715 10.4288 2.99608
33 4 1.10096 0.0789983 11.0776 5.63683
48 1 -0.659222 -1.32927 8.93244 2.06725
49 1 -0.661244 0.0170643 9.47705 6.62548
133 2 0.147575 -6.62079 12.8523 5.93054
68 3 -0.845696 -2.04362 7.42994 5.84629
69 3 -0.835998 -6.04469 10.1819 4.37476
70 3 -0.781034 -4.26491 8.60738 5.72636
79 3 -0.827063 0.331776 7.31281 4.59827
87 3 -0.788013 1.78514 7.62238 2.33339
30 4 1.01031 2.404 8.07053 0.913604
89 3 -0.763433 -1.9204 11.7216 1.91672
90 3 -0.837684 -3.48073 10.1619 3.58238
93 3 -0.781635 -0.870829 10.7961 4.31479
94 3 -0.789097 -0.294408 12.3624 6.59027
115 2 -0.0367479 -4.26089 11.299 5.87297
147 2 0.206225 1.82535 7.4101 6.36621
151 2 0.190021 -0.240444 9.25188 1.57023
152 2 0.155281 -2.16116 8.64091 1.32666
153 2 0.192675 -1.15966 8.1596 2.85714
251 1 -0.684468 -5.1685 8.59888 1.14084
155 2 0.278088 0.0845402 8.66863 5.82961
156 2 0.281401 -1.04559 9.44818 7.11812
46 1 -0.654176 2.20309 7.72159 7.36237
148 2 0.165643 3.32943 7.5548 7.46898
272 2 0.176058 0.631292 10.1417 0.27642
19 4 1.30382 -1.29785 12.9998 7.85578
1 4 1.24555 -6.52653 12.4057 1.92663
15 4 1.09941 -5.2344 10.1407 0.13238
91 3 -0.875357 -2.6438 9.5366 7.7029
67 3 -0.820041 -3.83096 7.06565 7.76424
47 1 -0.645114 1.58578 9.78564 0.881035
122 2 -0.00780126 3.37752 8.01534 5.73076
271 2 0.176778 1.49841 9.97602 2.01154
28 4 1.20075 4.02619 6.69877 4.90864
149 2 0.147461 2.03936 8.87121 7.62874
268 2 0.201572 -5.595 8.96317 2.13144
159 2 0.201151 1.55333 9.63506 12.6841
18 4 1.18298 -2.14374 8.35867 12.768
22 4 1.25021 -0.604235 12.8535 11.9727
32 4 1.00295 -2.5616 10.5065 8.8889
35 4 1.20963 -1.36331 10.869 14.2511
187 3 -0.796403 0.920299 12.9401 12.3906
160 2 0.16021 0.975549 10.7682 14.7162
50 1 -0.656997 2.48939 10.1119 12.3753
51 1 -0.638922 0.100219 11.1582 15.3799
162 2 0.219437 0.128226 12.3134 15.5572
72 3 -0.785089 -1.78444 8.20724 11.0956
83 3 -0.775279 0.106911 7.25533 9.2555
88 3 -0.81186 3.12584 7.6027 15.6225
92 3 -0.821094 -1.45404 11.5173 9.07502
95 3 -0.837125 4.21562 7.72418 11.8711
96 3 -0.763645 -0.99413 9.21386 13.4858
97 3 -0.813831 -1.50207 11.9742 13.0672
98 3 -0.785141 -2.8086 10.7636 15.2432
116 2 -0.0365504 -3.50599 9.26132 12.7188
120 2 0.0912495 -0.881244 11.9913 10.5326
126 2 0.0908561 -2.42336 9.49737 10.2631
127 2 -0.0528621 -4.10167 11.1151 9.22267
128 2 0.0529761 2.861 9.01946 13.9904
139 2 0.164543 -4.71917 10.5691 13.7731
71 3 -0.854326 -2.57929 6.99767 13.4869
140 2 0.169602 -6.04499 11.4636 14.7813
157 2 0.151016 2.71786 10.0512 11.1349
235 2 0.180602 11.4337 1.42476 2.9823
37 4 1.27384 13.0356 1.79693 5.79964
221 1 -0.638773 8.73212 0.61494 2.1367
39 4 1.25206 11.2791 3.8201 7.3671
45 1 -0.67002 7.35217 4.88561 7.15575
54 1 -0.638004 10.9687 5.29577 6.21661
101 3 -0.757267 13.6873 3.0001 4.87335
102 3 -0.863882 13.9951 0.912209 6.66228
250 2 0.195686 11.4829 4.72189 0.138552
4 4 1.41046 14.9833 2.80739 3.68732
106 3 -0.795787 11.7927 2.39542 6.46997
232 3 -0.767653 14.2977 1.59398 2.69561
129 2 0.0103444 12.1636 0.78214 4.75501
130 2 0.0792776 7.50502 5.76823 3.57279
273 2 0.181929 9.24144 0.359091 0.213981
169 2 0.233957 12.0429 5.69283 6.15684
146 2 0.189551 7.84177 4.16576 6.41677
103 3 -0.7822 5.53555 6.02328 1.4101
145 2 0.16558 7.63655 5.94908 6.95329
170 2 0.173808 10.3313 6.02366 6.93573
171 2 0.176047 10.4043 5.05923 5.21919
231 1 -0.655064 11.6969 0.329896 2.86573
224 2 0.176465 9.268 1.42155 1.51338
225 2 0.132405 8.97042 0.626167 3.29261
11 4 1.50253 13.1033 6.08304 8.9694
36 4 1.31718 9.07524 2.46155 9.27368
52 1 -0.674369 10.3743 1.42445 10.0515
77 3 -0.740237 7.25505 4.14115 15.7457
100 3 -0.770109 8.25975 3.48956 10.4289
107 3 -0.783523 12.3702 4.38788 8.52105
110 2 0.0157986 14.5558 2.84327 10.0003
188 3 -0.768958 8.63972 1.99585 14.5785
202 2 0.157595 13.8937 3.73647 11.5147
163 2 0.188059 11.3058 2.12871 10.4083
184 1 -0.640171 10.8477 0.576402 15.1066
165 2 0.24905 9.8581 0.842706 11.0319
172 4 1.04372 16.0246 2.56604 14.0856
173 1 -0.669961 14.7947 1.47785 13.1191
174 2 0.0272775 14.3989 2.54659 14.6851
175 2 0.113928 15.7243 0.877891 12.5873
176 2 0.153507 14.0727 2.17643 12.3747
164 2 0.169485 10.6239 0.736946 9.17862