ITEM: TIMESTEP
0
ITEM: NUMBER OF ATOMS
371
ITEM: BOX BOUNDS xy xz yz pp pp pp
4.2379536921030159e-01 2.4206161451652470e+01 7.0376476225697173e+00
-7.6100078109605018e-01 1.3049914374414435e+01 2.7370919829300294e-01
2.4470688386626271e-01 1.8395593116133643e+01 -5.2598640668172791e-01
ITEM: ATOMS id type x y z
130 2 3.84727 0.839633 3.43068
93 2 11.5451 5.56677 6.92216
131 2 2.55694 1.17346 4.89043
202 1 2.76729 1.03806 3.70416
138 2 3.33995 3.77656 5.5202
103 2 3.03262 0.711088 6.60478
32 4 4.1863 4.42315 2.27844
333 2 5.62136 0.406163 6.016
335 2 6.00219 2.13109 5.28834
137 2 4.92936 3.23053 4.88577
245 3 5.28468 3.43014 1.74337
204 1 4.80865 4.20906 4.39353
208 1 5.21439 1.44346 5.78082
136 2 5.83782 4.71128 4.39476
74 2 4.28143 1.31343 5.05273
282 3 10.7479 4.16905 0.606032
132 2 7.45047 2.27596 2.98156
30 4 6.78973 2.91299 1.55718
159 2 7.59507 1.50793 4.59099
203 1 7.77027 4.46656 1.4968
134 2 7.02439 5.26107 1.76505
183 2 8.14995 5.26171 4.0952
102 2 2.30656 2.51443 6.30964
341 2 3.15333 3.90634 3.68188
133 2 8.43415 4.16136 2.46336
303 3 6.91223 6.00493 6.20471
158 2 8.78058 1.47588 7.39615
76 2 8.69698 0.0987795 8.98624
157 2 8.18449 3.41867 4.30844
211 1 8.52092 2.34109 4.68208
59 4 8.88596 2.99203 6.47268
182 2 9.6558 5.42221 5.10117
184 2 9.70035 5.59384 3.25937
220 1 9.10071 5.83517 4.17055
258 3 4.17838 5.99577 2.01835
192 1 2.12791 1.3945 6.88804
104 2 2.17344 1.57831 8.05808
250 3 4.18928 5.674 7.32831
246 3 3.94418 3.53765 8.95111
149 2 4.92184 1.96046 6.75055
237 3 5.57922 1.35089 8.92397
33 4 4.84063 4.89313 8.56774
6 4 6.04579 -0.123168 8.66181
171 2 8.38075 4.39701 7.4824
170 2 7.59484 2.15643 8.60644
81 2 6.43636 4.31516 8.05402
216 1 7.446 2.76361 7.67677
101 2 7.13723 0.0920326 7.08647
172 2 6.553 2.3122 6.99777
287 3 10.6838 5.06741 6.62549
243 3 7.1719 1.99519 0.257816
3 2 2.19124 1.90123 3.08476
85 2 5.0072 6.12894 4.61818
56 4 9.44715 5.05801 0.309967
35 4 3.70699 5.55898 5.69885
10 4 1.90832 0.342713 10.9717
238 3 3.17665 1.27741 10.3613
224 3 2.10092 -0.291839 12.432
26 4 4.38824 2.30747 9.86208
241 3 4.9581 3.00869 11.2622
285 3 5.05018 5.86266 9.74135
343 1 4.85476 5.80819 17.0847
160 2 8.63291 3.09449 11.1931
161 2 9.11116 4.88325 10.8123
212 1 9.51186 3.93976 11.3165
94 2 11.0868 5.07593 11.2191
127 2 5.68941 -0.126328 11.8473
78 2 2.26317 1.64865 16.2384
251 3 2.83133 2.45999 16.0175
340 2 4.35544 4.26092 16.2251
28 4 4.24831 1.56569 15.1847
252 3 4.58015 2.35653 13.8913
36 4 5.53493 5.28824 15.4028
29 4 5.59496 2.68565 12.6015
240 3 5.51963 1.44907 16.2399
239 3 3.75138 0.0660827 14.6509
342 2 4.76606 5.71672 18.1564
319 2 7.66668 -0.176557 14.4397
165 2 5.97567 4.99406 12.7119
242 3 6.71271 1.13766 12.2016
135 2 8.24969 3.67369 17.819
213 1 6.7217 4.08406 13.0239
163 2 7.76622 4.06872 12.377
164 2 6.80407 3.90257 14.6943
24 4 7.09526 1.20487 16.6074
278 3 8.07613 2.15821 15.7612
27 4 8.02803 0.526459 12.8587
339 1 7.52623 -0.47793 16.0297
173 2 7.50699 5.71885 13.8701
367 2 9.78719 5.71708 16.8271
162 2 9.89372 4.04578 12.3885
53 4 9.39125 2.182 14.7537
289 3 10.0041 3.94707 14.7039
276 3 9.12189 1.76363 13.2059
168 2 6.64082 5.90697 16.7369
271 3 9.64712 1.31129 9.69523
60 4 11.3665 4.57427 14.5436
186 2 6.00336 8.13994 5.87061
122 2 8.70858 9.21437 3.39799
123 2 7.91012 8.29899 4.99815
199 1 8.77411 9.04783 4.5518
365 2 6.53539 8.56086 1.40693
20 4 12.6105 8.02975 8.97813
148 2 14.6777 11.5035 6.87702
191 1 15.0768 12.5845 8.36668
1 4 8.945 12.9012 2.86156
4 3 9.87333 12.2967 1.75368
370 3 8.8485 11.8317 4.09181
313 1 10.9611 9.80651 1.34761
309 4 10.9326 11.5217 0.593572
317 2 10.4271 10.103 2.37092
331 2 11.2502 11.6948 5.83123
312 2 10.5728 8.85686 0.803874
334 1 10.8111 10.7525 6.15828
332 2 11.5059 9.8302 5.87333
105 2 11.475 7.90633 2.84985
98 2 8.89849 6.98848 4.27491
19 4 8.84541 10.7282 5.29968
124 2 9.81944 8.71587 4.93337
361 2 9.08605 6.63421 1.39027
106 2 10.7463 6.73022 4.81761
310 2 12.1657 9.76696 1.46196
193 1 12.5007 7.48223 2.74248
146 2 12.3565 8.90783 4.08054
358 2 13.7732 11.0124 0.697625
215 1 6.83487 8.14774 0.382186
201 1 14.4306 11.954 0.795086
23 4 15.0051 12.1575 2.70427
337 2 13.5029 12.9695 2.00784
311 2 12.5205 12.2402 0.730916
221 1 6.54688 7.065 5.80307
301 3 7.72598 10.7437 6.47951
64 4 6.70566 9.25555 8.60728
185 2 7.14213 8.21981 7.23882
235 3 11.8888 12.1245 8.42383
21 4 11.0873 10.7799 7.94132
234 3 11.8916 9.35131 8.41669
112 2 9.43314 10.8656 8.87424
323 2 8.52148 9.11402 8.79718
259 3 14.4119 10.8284 3.71194
147 2 13.7907 9.55138 6.37968
88 2 14.7824 10.8698 9.22455
169 2 8.00492 7.83816 0.280679
256 3 4.85426 6.31822 14.338
58 4 5.55484 7.13934 10.6751
297 3 5.87299 8.33993 9.68691
324 2 7.67471 10.1549 10.7667
325 1 7.80428 10.6252 9.63988
292 3 7.02431 6.72145 11.425
110 2 8.70262 12.3261 9.78887
75 2 11.0302 12.057 10.383
22 4 12.0268 11.6086 11.6985
232 3 11.7084 7.22545 10.003
291 3 9.72646 7.50172 11.8958
15 4 11.1283 6.8383 11.4304
264 3 13.1035 10.5737 11.2717
117 2 13.1029 8.24331 12.2962
100 2 14.1675 12.6143 10.0569
366 2 11.4853 5.99031 16.8609
97 2 6.27605 6.89474 18.027
128 2 14.7322 11.9917 17.9199
268 3 15.6599 12.5481 12.0513
177 2 6.63649 9.49989 11.9494
61 4 8.08672 7.52753 12.4
218 1 7.52887 9.36855 12.6498
174 2 7.33771 7.39303 14.773
176 2 7.29053 9.37055 13.8109
63 4 7.03207 9.25853 17.4569
306 3 5.96204 9.09724 16.1827
217 1 8.06497 6.68232 14.2133
364 2 11.2184 6.67766 18.3202
197 1 12.2963 7.56541 12.7064
8 4 10.0648 12.2396 13.8144
126 2 11.1753 8.52956 15.6395
236 3 11.1022 11.1574 12.9755
315 3 10.6425 10.7972 17.1788
314 4 9.58091 10.2512 16.1655
96 2 11.5964 8.11922 13.5111
316 3 8.84779 11.5665 14.8561
200 1 10.3155 8.91178 15.0326
318 2 10.6803 9.56569 14.1625
175 2 8.99079 6.46633 14.7833
178 2 8.3582 10.0971 12.4475
362 1 10.1278 6.66029 18.1253
125 2 9.50464 8.00158 14.7176
363 2 9.75578 7.74124 17.9481
295 3 8.48623 9.44393 16.9627
116 2 11.2457 6.30861 14.4856
336 2 13.631 12.1404 16.2472
322 2 7.05325 11.4099 9.359
338 2 15.5073 12.5233 16.5367
43 4 14.328 9.89749 10.5662
47 4 9.83795 1.35946 3.85901
68 2 17.0102 0.358962 7.40475
280 3 10.5698 2.48359 2.81193
273 3 10.7993 0.886521 5.12756
55 4 11.5062 3.5133 2.05283
281 3 12.0397 4.8192 3.12503
350 2 11.3999 1.35989 0.554694
254 3 17.6953 1.6005 0.431521
7 4 16.646 1.8758 6.62277
166 2 13.7406 3.10127 1.73697
11 4 16.0694 4.52126 2.73622
225 3 15.1859 3.53124 3.69077
226 3 15.0808 5.35449 1.65485
223 3 16.0486 1.7421 5.18827
5 4 14.9371 2.01225 4.17766
89 2 15.3252 0.929419 2.73118
51 4 12.5457 1.37519 5.68495
214 1 12.8813 2.34275 1.4289
272 3 13.5467 1.32429 4.46171
349 2 14.1794 0.359842 0.490147
351 1 15.0967 0.0433079 1.19693
360 2 12.8799 1.43438 2.05868
167 2 12.8198 2.10087 0.327371
247 3 16.638 4.90552 9.17472
2 2 16.7797 -0.0988612 2.20972
70 2 17.1669 3.51427 1.80214
244 3 17.1753 5.3785 3.47936
274 3 12.9969 0.489838 6.91212
209 1 18.1916 2.63878 0.41196
352 2 15.8921 0.572025 8.8741
12 4 12.2174 6.1255 4.04919
284 3 12.3938 2.86017 6.23624
283 3 11.1254 3.37463 8.7707
57 4 11.3125 3.71896 7.20318
229 3 14.9309 5.29428 7.29369
227 3 16.119 2.95388 7.63344
14 4 15.4799 4.2555 8.35065
72 2 13.4515 3.8546 9.15862
347 2 10.1737 -0.286417 6.15444
348 2 16.0937 -0.100824 0.639171
354 1 14.8458 0.74473 9.27477
269 3 8.89894 0.041505 3.25267
153 2 19.1234 3.91864 1.42881
353 2 14.4869 1.83092 9.25251
359 1 10.7964 0.352529 18.0369
329 2 16.8655 0.40033 15.975
345 2 9.77279 0.644086 10.515
50 4 10.7289 2.66326 10.3758
288 3 14.2949 3.7831 9.78948
91 2 14.3006 3.51464 11.4248
279 3 11.8894 2.3424 11.3414
355 2 14.6317 0.222247 10.3258
69 2 16.106 0.627017 11.1858
141 2 18.0938 3.28162 11.1605
195 1 16.9388 1.47798 11.1589
111 2 16.9991 2.02994 12.2131
34 4 17.4717 5.62073 10.3535
187 2 17.0969 2.10415 10.1863
140 2 19.4879 4.4755 10.7417
205 1 18.5421 4.35483 11.3327
139 2 18.7014 4.67309 12.3968
277 3 10.6794 1.34222 15.4026
48 4 11.4885 0.368573 16.3293
369 1 12.2065 5.47521 16.0039
17 4 15.9745 4.18806 14.7652
231 3 15.3974 5.41158 13.7199
230 3 14.7798 3.02659 15.2458
253 3 16.8798 4.90517 15.8966
54 4 13.0211 2.82935 12.348
326 2 15.8247 0.382821 17.5595
368 2 12.6985 4.48699 16.3997
327 1 16.1051 0.926122 16.5669
92 2 13.7342 1.48993 13.118
330 2 13.3996 5.53323 17.9527
9 4 14.5776 1.40592 15.6383
270 3 13.1659 1.14691 16.5795
275 3 14.5992 0.303965 14.0664
290 3 12.322 3.92 13.3559
37 4 17.814 5.34918 17.0899
328 2 16.4745 2.07259 16.814
115 2 17.7464 3.4334 12.9824
151 2 18.2265 3.90821 17.9313
113 2 16.5649 2.12717 13.7884
114 2 18.0325 2.78555 14.8035
196 1 17.2306 3.03126 13.9583
356 2 9.92483 1.082 17.8862
152 2 19.4448 5.92786 16.7127
357 2 10.4563 -0.610763 18.392
304 3 21.8363 11.8366 7.37509
109 2 13.5879 7.98573 0.482351
66 4 22.6348 10.6654 6.64989
13 4 15.3289 6.56276 0.614679
83 2 14.8793 7.93055 4.10072
84 2 16.0352 9.18264 5.58612
207 1 15.1814 8.53678 5.82053
129 2 15.8261 11.4872 1.20847
344 2 19.886 7.83165 7.50975
31 4 17.831 6.75827 4.0228
257 3 18.4446 7.61903 2.82689
79 2 16.581 7.64935 4.76764
261 3 17.3556 9.77405 0.930866
145 2 17.3941 8.82512 1.14959
42 4 18.7929 8.22047 8.98698
180 2 19.014 10.6012 5.28345
39 4 20.0703 7.64478 2.25376
179 2 19.4984 11.5739 3.75919
219 1 19.3484 10.5296 4.25865
260 3 20.1183 8.42294 0.808121
181 2 18.5764 9.90762 3.70532
371 3 19.9195 11.1809 1.17768
40 4 13.9575 9.42721 4.46936
86 2 18.8687 9.79953 7.01622
293 3 20.9934 8.45054 3.29743
62 4 21.1305 9.96812 4.09286
46 4 21.7221 11.5274 1.48266
294 3 22.0707 11.0911 3.21384
302 3 21.7632 9.71958 5.83719
233 3 13.0834 7.09714 7.76024
80 2 15.5183 7.72927 6.68097
16 4 14.1605 6.54527 6.69421
41 4 19.4382 9.85217 0.311037
150 2 17.0258 10.1936 7.05242
99 2 16.8781 12.1594 8.86522
25 4 16.4214 11.8489 7.16258
346 1 18.4185 8.79131 7.03693
87 2 17.0936 8.66464 7.98134
77 2 18.1265 8.38595 6.00942
249 3 18.8285 6.34252 5.20577
49 4 20.9142 12.8118 8.18568
228 3 13.3383 6.3279 5.08974
296 3 22.6667 10.7931 0.362572
107 2 12.6213 6.70847 1.87828
71 2 13.2685 8.28904 2.54497
299 3 19.9254 12.0128 9.27759
120 2 13.8667 6.78919 11.781
263 3 14.135 8.50474 9.9681
52 4 22.1229 12.0944 14.2783
266 3 15.6005 10.0759 11.5255
248 3 16.5948 6.26155 11.6115
118 2 12.6929 6.44109 13.1136
300 3 17.8742 11.5952 11.1031
45 4 16.6266 11.2764 12.0736
262 3 18.2407 6.88397 9.68514
65 4 19.3089 11.0407 10.3929
298 3 19.0776 9.58344 9.76279
222 1 20.5938 10.9227 11.7963
190 2 20.2393 10.0553 12.4069
286 3 21.0877 7.53469 11.8708
189 2 21.56 10.7715 11.2211
307 3 21.3003 11.3117 15.2857
265 3 20.5166 8.90463 14.4057
90 2 22.2731 11.1454 12.8624
108 2 14.4013 6.73971 16.7838
18 4 15.3268 6.63072 12.6714
73 2 15.9554 7.95327 14.7258
198 1 15.7526 8.15357 13.6404
119 2 14.8302 8.77131 13.3935
156 2 15.3466 9.84285 15.7615
82 2 20.7968 6.81218 16.7868
67 4 20.8907 9.73066 15.7204
155 2 16.4198 10.562 17.2515
144 2 18.1351 7.78334 13.8491
255 3 17.0141 6.37476 17.9984
121 2 16.7115 8.47066 13.0036
44 4 17.4579 10.9798 15.1847
154 2 17.7296 9.10179 15.6267
210 1 16.3889 10.0194 16.1693
267 3 17.1244 11.0877 13.6727
305 3 18.2603 12.1599 15.9375
143 2 18.6007 7.36188 12.1041
188 2 20.6926 11.9155 12.4373
206 1 18.7437 7.12673 13.17
308 3 19.7679 9.42928 16.8453
38 4 20.5498 7.54382 13.4876
320 2 17.5975 9.24429 17.9285
194 1 14.114 6.44685 17.8885
95 2 12.9327 6.2246 15.5453
321 2 23.8281 12.138 14.6352
142 2 18.6016 6.0282 13.4137
ITEM: TIMESTEP
100
ITEM: NUMBER OF ATOMS
371
ITEM: BOX BOUNDS xy xz yz pp pp pp
4.2379536921030159e-01 2.4194270268611248e+01 7.0341287987584327e+00
-7.6100078109605018e-01 1.3049914374414435e+01 2.7357234369385708e-01
2.4470688386626271e-01 1.8395593116133643e+01 -5.2598640668172791e-01
ITEM: ATOMS id type x y z
130 2 3.82685 0.87364 3.41647
93 2 11.4637 5.67363 6.90374
131 2 2.51857 1.20084 4.89172
202 1 2.75537 1.13371 3.73301
138 2 3.2309 3.84257 5.41021
103 2 2.41041 0.611571 6.43002
32 4 4.07199 4.3918 2.35737
333 2 5.78915 0.567725 5.85694
335 2 5.88895 2.31191 5.35604
137 2 4.84671 3.2216 4.83981
245 3 5.3569 3.51602 1.91946
204 1 4.75095 4.23395 4.26997
208 1 5.21584 1.50506 5.77972
136 2 5.78956 4.58045 3.98393
74 2 4.33494 1.29767 5.02125
282 3 10.6667 4.23791 0.652432
132 2 7.3163 2.17126 3.24571
30 4 6.79612 2.87694 1.68024
159 2 7.67521 1.44246 5.03761
203 1 7.76132 4.43423 1.5296
134 2 6.90952 5.15662 1.84906
183 2 8.1754 5.37833 4.05936
102 2 2.24843 2.58443 6.15571
341 2 3.04563 3.6782 3.70692
133 2 8.53704 4.14028 2.4123
303 3 7.12459 5.97732 6.10153
158 2 8.79188 1.4009 7.45861
76 2 8.58517 0.107447 8.83549
157 2 7.92938 3.49257 4.68727
211 1 8.42609 2.29143 4.78228
59 4 8.82789 2.947 6.5564
182 2 9.68758 5.56962 5.132
184 2 9.86593 5.63582 3.25515
220 1 9.1566 5.8998 4.13728
258 3 4.15162 5.98829 2.12424
192 1 2.10831 1.587 6.90157
104 2 2.59872 1.7343 7.91022
250 3 4.10572 5.53488 7.31562
246 3 3.91658 3.60512 8.65415
149 2 4.74966 1.80368 6.80083
237 3 5.40404 1.30953 9.0898
33 4 4.81802 4.89815 8.5335
6 4 5.93455 -0.0736855 8.46265
171 2 8.0483 4.35986 7.49567
170 2 7.63203 2.07876 8.6487
81 2 6.41873 4.26819 8.12387
216 1 7.42266 2.68853 7.71714
101 2 7.19875 0.325765 7.01032
172 2 6.54397 2.28188 7.02915
287 3 10.6288 5.08739 6.67803
337 2 6.66111 -0.0528238 2.08529
3 2 2.26918 1.94829 3.09058
85 2 4.93402 6.08779 4.71689
342 2 4.25113 5.99604 0.300967
243 3 6.9859 2.06778 0.260263
10 4 1.96784 0.299325 10.8432
238 3 3.16479 1.2215 10.3008
224 3 2.32326 -0.406218 12.2785
26 4 4.35825 2.33703 9.83566
241 3 4.99276 3.04952 11.2326
285 3 4.95981 5.87088 9.80073
343 1 4.6888 5.63909 17.3204
160 2 8.61399 3.04515 11.0781
161 2 9.18797 4.77864 10.8182
212 1 9.48873 3.79595 11.1426
94 2 10.9198 5.07667 11.6644
127 2 5.7147 -0.189999 11.9003
78 2 2.41859 1.88759 16.2782
251 3 2.82721 2.59871 15.6621
340 2 3.80198 4.34324 16.4692
28 4 4.23456 1.4404 15.1096
252 3 4.59592 2.4947 13.8812
36 4 5.23409 5.04076 15.5437
29 4 5.60861 2.67426 12.6261
240 3 5.51814 1.36123 16.1305
239 3 3.77438 -0.061087 14.5455
366 2 11.433 5.88136 16.821
319 2 7.79829 -0.328424 14.589
165 2 6.51457 4.82839 12.8098
242 3 6.69581 1.04715 12.4351
135 2 8.15469 3.59355 17.8247
213 1 6.82298 3.85762 13.3353
163 2 7.89483 3.54186 13.025
164 2 6.31835 3.62707 15.0154
24 4 7.02462 1.27718 16.5981
278 3 8.04914 2.16345 15.731
27 4 8.07682 0.394633 13.0041
339 1 7.66255 -0.416848 16.2081
173 2 7.7364 5.5421 13.8545
367 2 9.65572 5.69302 16.7988
162 2 9.80964 3.78664 12.2236
53 4 9.45149 2.25599 14.8424
289 3 9.95894 3.9231 14.5837
276 3 9.168 1.61651 13.1981
168 2 6.41247 5.35258 17.0081
271 3 9.51006 1.20122 9.75495
60 4 11.4031 4.42033 14.3759
356 2 9.82462 0.961849 17.895
56 4 9.6412 4.55195 18.336
338 2 8.60618 -0.606175 16.7502
254 3 1.72522 0.910462 18.3834
186 2 6.16513 8.11336 5.89525
122 2 8.43768 9.3226 3.31707
123 2 8.05092 8.33302 4.97296
199 1 8.77672 9.11693 4.37951
365 2 6.63243 8.28111 1.36731
20 4 12.6431 7.99883 9.10308
148 2 14.5674 11.7127 6.6198
191 1 15 12.6459 8.20493
1 4 9.00961 12.9595 2.82235
4 3 9.98694 12.2519 1.72614
370 3 8.71808 11.9422 4.00928
313 1 11.1827 9.90052 1.26138
309 4 10.9215 11.6245 0.59947
317 2 10.8835 10.0844 2.35221
331 2 10.9958 11.9981 5.84949
312 2 10.6673 8.89054 0.821429
334 1 10.6143 10.967 6.14606
332 2 11.3424 10.1298 5.70445
105 2 11.4971 7.76702 2.78684
98 2 8.97355 7.02581 4.13154
19 4 8.86752 10.8177 5.25366
124 2 9.86995 8.79911 4.38106
361 2 9.0231 6.64584 1.38502
106 2 10.8931 6.7883 4.46954
310 2 12.3579 9.86355 1.06733
193 1 12.5829 7.38073 2.67663
146 2 12.423 8.83592 3.98895
358 2 13.709 11.0384 1.00898
215 1 6.82497 8.06459 0.246485
201 1 14.3224 12.0283 0.964845
23 4 15.0104 12.2073 2.7898
88 2 14.557 11.0361 9.12549
311 2 12.4595 12.4591 0.506203
221 1 6.77383 7.10581 5.96034
301 3 7.76242 10.8384 6.34503
64 4 6.86638 9.38942 8.57771
185 2 7.45062 8.32963 7.27627
235 3 11.9739 12.0575 8.20704
21 4 10.9838 10.8125 7.88984
234 3 11.787 9.4104 8.40686
112 2 9.40995 10.9985 8.93118
323 2 8.65751 9.32536 8.75145
259 3 14.4514 10.81 3.79319
147 2 13.8606 9.73071 6.34304
40 4 13.9515 9.52224 4.52006
256 3 4.96297 6.23842 14.405
58 4 5.71524 7.17411 10.7066
297 3 6.17564 8.45814 9.65974
324 2 7.83216 10.3884 10.8306
325 1 7.80124 10.6926 9.68967
292 3 7.10812 6.71127 11.4539
110 2 8.41426 12.4792 9.58038
75 2 11.0278 11.8061 10.413
22 4 12.0227 11.5692 11.7837
232 3 11.6577 7.2188 10.1289
291 3 9.54998 7.35671 11.7998
15 4 11.0537 6.77707 11.4807
264 3 13.1706 10.6025 11.4135
117 2 12.7854 8.35297 12.2921
100 2 14.0221 12.609 9.82039
43 4 14.3377 9.97386 10.572
97 2 6.16502 6.87672 17.9346
128 2 14.5072 12.0241 18.041
268 3 15.6284 12.6395 11.9094
177 2 6.83256 9.73039 12.1952
61 4 8.07395 7.53685 12.4129
218 1 7.79036 9.48656 12.7187
174 2 7.76084 7.07486 14.8936
176 2 7.66341 9.72946 13.8313
63 4 6.96263 9.26251 17.6257
306 3 5.89444 8.94663 16.2354
217 1 8.25402 6.60321 14.0747
169 2 8.19519 7.15892 18.2458
197 1 12.1322 7.60492 12.8208
8 4 9.97327 12.337 13.6615
126 2 11.1633 8.47638 15.9446
236 3 11.1328 11.104 13.0731
315 3 10.6763 10.9193 17.1767
314 4 9.53819 10.3248 16.1294
96 2 11.4561 8.04919 13.72
316 3 8.75159 11.4362 14.7095
200 1 10.3431 8.85733 15.2628
318 2 10.7992 9.60133 14.3621
175 2 9.40687 6.47323 14.2175
178 2 8.65676 10.0237 12.2266
362 1 10.1488 6.64297 18.1997
125 2 9.56784 7.92494 14.8246
363 2 9.82107 7.67914 17.9505
295 3 8.37841 9.63631 16.9004
116 2 11.3197 6.13024 14.3543
336 2 13.6812 12.3154 16.5801
322 2 6.90976 11.4811 9.53121
118 2 12.6122 6.61906 13.1554
364 2 11.3013 6.54871 18.3581
47 4 9.78009 1.32384 3.93139
68 2 17.098 0.353033 7.29377
280 3 10.4405 2.36801 2.86918
273 3 10.9294 0.867405 5.18257
55 4 11.3419 3.52082 2.06396
281 3 12.0258 4.6982 3.1313
350 2 11.3032 1.48164 0.5764
153 2 18.9985 3.80667 1.43456
7 4 16.648 1.88372 6.64249
166 2 13.5997 3.29296 1.64239
11 4 16.0316 4.47321 2.71972
225 3 15.0719 3.46972 3.60046
226 3 15.2323 5.38875 1.66643
223 3 16.1795 1.64186 5.18541
5 4 15.0256 1.95634 4.07749
89 2 15.3935 0.824784 2.69003
51 4 12.6039 1.54942 5.71277
214 1 12.7857 2.53061 1.38291
272 3 13.5782 1.57259 4.47837
349 2 14.2204 0.588909 0.762661
351 1 15.1252 0.118071 1.28785
360 2 12.7089 1.68485 2.24371
49 4 13.7691 -0.396608 8.01738
249 3 18.7102 6.25674 5.28664
2 2 16.9316 0.121918 2.0991
70 2 17.0006 3.31308 1.79739
244 3 17.0054 5.54216 3.42939
274 3 13.0456 0.61902 6.84812
209 1 18.1778 2.53932 0.442366
352 2 15.7487 0.394921 9.06531
12 4 12.3842 6.02563 3.97047
284 3 12.3419 2.98562 6.24141
283 3 11.1926 3.42728 8.79981
57 4 11.353 3.8168 7.23087
229 3 14.9119 5.20054 7.2297
227 3 15.9906 2.76493 7.73891
14 4 15.3846 4.14284 8.31443
72 2 13.316 3.7697 9.14477
347 2 10.0567 -0.341466 5.93456
348 2 16.024 0.00448583 0.672584
35 4 20.0521 5.57146 5.76756
269 3 8.91999 0.0777649 3.32928
359 1 10.7321 0.360122 18.0939
329 2 16.7777 0.706245 16.0233
345 2 10.0203 0.484718 10.2956
50 4 10.7315 2.59319 10.2446
288 3 14.1677 3.55413 9.69307
91 2 14.1513 3.48119 11.3215
279 3 11.9406 2.1445 11.2894
355 2 14.4019 0.0665738 10.2806
69 2 16.2345 0.95826 10.9736
141 2 18.0644 3.52044 11.1176
195 1 17.1809 1.67031 11.0346
111 2 17.2141 2.28886 12.1008
34 4 17.2863 5.85882 10.3834
187 2 17.252 2.3478 10.0577
140 2 19.3351 4.7387 10.3147
205 1 18.5621 4.62584 11.1388
139 2 19.0092 4.9483 12.1496
277 3 10.5653 1.37203 15.6441
48 4 11.4551 0.301658 16.3936
152 2 19.3711 5.93088 16.5699
17 4 15.8746 4.16233 14.8363
231 3 15.1802 5.39636 13.9117
230 3 14.7626 3.06115 15.2884
253 3 16.8911 4.74062 16.0958
54 4 12.9296 2.77028 12.2393
326 2 15.7325 0.542839 17.6564
368 2 12.6682 4.36032 16.2948
327 1 15.9897 1.16443 16.6644
92 2 13.7282 1.4599 13.0497
330 2 13.7151 5.5811 17.9879
9 4 14.4512 1.48351 15.7133
270 3 13.1583 1.05447 16.6879
275 3 14.5383 0.425643 14.0717
290 3 12.4259 3.83982 13.2816
37 4 17.8796 5.22806 17.1953
328 2 16.2844 2.27699 16.9608
115 2 17.6343 3.91659 12.8177
151 2 18.6944 3.8671 18.0217
113 2 16.4924 2.38485 13.5567
114 2 18.0412 3.01865 14.529
196 1 17.2168 3.33394 13.7902
142 2 18.7744 5.82709 13.1735
353 2 14.493 1.79615 9.49049
354 1 14.6716 0.608036 9.36534
369 1 12.146 5.35615 15.9497
247 3 16.4654 4.89672 9.32577
167 2 13.1597 1.50581 18.3879
304 3 22.103 11.9928 7.33323
71 2 13.3957 8.21947 2.61858
66 4 22.6366 10.7674 6.5776
13 4 15.5815 6.61166 0.700082
83 2 14.8849 7.89138 4.19077
84 2 16.2115 9.32902 5.68243
207 1 15.2926 8.6309 5.80569
129 2 15.8922 11.5498 1.07729
344 2 19.6411 7.90066 7.41792
31 4 17.8424 6.73237 4.07381
257 3 18.5969 7.64366 2.99674
79 2 16.6757 7.83336 4.75893
261 3 17.3504 9.6716 0.94674
145 2 17.5312 8.76555 1.21485
42 4 18.5535 8.31299 8.92679
180 2 19.3329 11.0597 5.33344
39 4 20.2037 7.71367 2.34968
179 2 19.6675 11.5685 3.586
219 1 19.4822 10.7036 4.28178
260 3 20.0379 8.47635 0.928792
181 2 18.6858 10.0615 3.84291
371 3 19.9414 11.265 1.08852
107 2 12.6435 6.63117 1.73135
86 2 18.8783 9.86179 6.84278
293 3 21.2326 8.47902 3.40461
62 4 21.2341 9.88855 4.12608
46 4 21.6576 11.6128 1.58432
294 3 21.8964 11.1534 3.26489
302 3 21.7881 9.6981 6.003
233 3 13.2253 7.16307 7.84429
80 2 15.5726 7.728 6.48955
16 4 14.1912 6.55085 6.73136
41 4 19.4487 9.83717 0.331153
150 2 17.142 10.2519 6.94723
99 2 16.8804 12.2734 8.56321
25 4 16.289 11.8359 6.99545
346 1 18.4257 8.79275 6.87179
87 2 16.9848 8.74235 7.91476
77 2 18.233 8.51214 5.81334
296 3 22.6365 10.8243 0.562207
299 3 19.8558 12.0244 9.01906
228 3 13.3998 6.30175 5.20521
120 2 13.7956 6.98654 12.0116
263 3 13.9815 8.52805 10.0558
52 4 22.0549 12.1888 14.2487
266 3 15.6466 9.97059 11.4161
248 3 16.3487 6.22473 11.6468
95 2 12.9295 6.11152 15.5686
300 3 17.9119 11.512 11.0506
45 4 16.5783 11.2766 12.0288
262 3 18.1172 6.93587 9.59781
65 4 19.3057 10.9937 10.2266
298 3 19.0771 9.52705 9.7256
222 1 20.7181 11.0768 11.5341
190 2 20.539 10.1282 12.1338
286 3 21.287 7.61434 11.8946
189 2 21.5721 10.8754 10.7784
307 3 21.2536 11.246 15.2445
265 3 20.5356 8.81553 14.2319
90 2 22.2754 11.495 12.6897
108 2 14.7556 6.54766 16.6975
18 4 15.3073 6.50127 12.8003
73 2 15.5509 8.09847 14.8204
198 1 15.547 8.1047 13.7078
119 2 14.752 8.82939 13.3015
156 2 15.2835 10.0811 15.2223
82 2 20.8448 6.6704 17.0435
67 4 21.0809 9.68136 15.6976
155 2 15.9062 10.7124 16.9546
144 2 18.2942 7.39393 14.1753
255 3 17.2443 6.31238 18.155
121 2 16.603 8.29722 13.2271
44 4 17.4901 10.7324 15.0806
154 2 17.3285 9.01192 16.0769
210 1 16.1188 10.1474 16.0229
267 3 16.9801 10.8706 13.642
305 3 18.1716 11.9533 15.9099
143 2 18.4875 7.42427 12.3769
188 2 20.7576 12.0483 12.1499
206 1 18.8521 6.97661 13.2828
308 3 19.9265 9.45733 16.8778
38 4 20.6566 7.48436 13.4394
320 2 17.6262 9.05561 17.9175
194 1 14.4845 6.42661 17.8129
321 2 23.7868 12.1068 14.4268
109 2 14.1104 7.45407 18.3195
357 2 17.5906 12.4943 18.345
ITEM: TIMESTEP
200
ITEM: NUMBER OF ATOMS
371
ITEM: BOX BOUNDS xy xz yz pp pp pp
4.2379536921030159e-01 2.4182379085570027e+01 7.0306099749471471e+00
-7.6100078109605018e-01 1.3049914374414435e+01 2.7343548909470883e-01
2.4470688386626271e-01 1.8395593116133643e+01 -5.2598640668172791e-01
ITEM: ATOMS id type x y z
130 2 3.65816 1.34031 3.28057
93 2 11.2924 5.8764 7.04186
131 2 2.41149 1.29585 4.8265
202 1 2.57638 1.33164 3.63051
138 2 3.36484 3.92061 5.6067
103 2 2.25396 0.284776 6.17334
32 4 4.14862 4.39853 2.34441
333 2 5.08536 0.464935 6.21321
335 2 6.10236 1.76087 5.16881
137 2 4.89241 3.37155 4.92061
245 3 5.35808 3.53725 1.89517
204 1 4.74023 4.42918 4.30947
208 1 5.04793 1.51298 5.73287
136 2 5.73488 4.86496 4.03006
74 2 4.17624 1.49058 4.95794
282 3 10.5358 4.33347 0.814031
132 2 7.55623 2.42545 3.16198
30 4 6.82122 2.97565 1.68687
159 2 7.43043 2.12064 4.83697
203 1 7.71467 4.60465 1.52549
134 2 6.86112 5.26034 1.80593
183 2 8.17918 5.50818 3.92499
102 2 2.4589 2.26463 6.32059
341 2 3.02356 3.85964 3.77722
133 2 8.50351 4.28349 2.40338
303 3 7.12287 6.02578 5.96649
158 2 8.53463 1.42316 7.59922
76 2 8.72527 -0.0391365 8.91507
157 2 8.97264 3.64021 4.55479
211 1 8.54505 2.36391 4.82366
59 4 8.87325 2.9674 6.63908
182 2 9.68984 5.60055 5.09955
184 2 9.85539 5.62297 3.2528
220 1 9.22237 6.00027 4.07354
258 3 4.08219 6.02016 1.9866
192 1 2.09271 1.18954 6.8397
104 2 2.45732 1.0658 7.91064
250 3 4.18799 5.7562 7.40617
246 3 3.99495 3.73952 8.9276
149 2 4.91855 2.29708 6.55496
237 3 5.48828 1.30935 8.92223
33 4 4.84456 5.0565 8.60944
6 4 5.97322 -0.185423 8.5992
171 2 8.0862 4.42078 7.55364
170 2 7.42957 2.33721 8.64753
81 2 6.47895 4.52419 8.10929
216 1 7.2655 2.8557 7.63338
101 2 7.10973 0.0654129 7.11044
172 2 6.42932 2.37151 6.89315
287 3 10.4436 5.31783 6.73802
1 4 2.00111 -0.285908 2.89271
3 2 1.86093 2.05186 3.08796
85 2 4.96596 6.21778 4.83192
153 2 2.69527 3.65369 1.52757
243 3 7.00505 1.95479 0.398308
337 2 6.57969 -0.203548 2.23954
10 4 1.97103 0.532647 10.8907
238 3 3.10085 1.47179 10.2338
224 3 2.20821 -0.144161 12.2545
26 4 4.40549 2.30532 9.77266
241 3 5.28929 2.834 11.1498
285 3 5.106 5.96207 9.83477
343 1 4.84182 5.66791 17.2145
160 2 8.64123 3.03805 11.0851
161 2 9.37211 4.81712 10.6335
212 1 9.55078 3.7984 11.2017
94 2 11.0171 5.06031 11.2404
127 2 5.76918 -0.376197 12.4116
78 2 2.15117 1.93569 16.1284
251 3 2.65952 2.63265 15.6284
340 2 4.04302 4.11943 16.6327
28 4 4.07576 1.48758 15.0539
252 3 4.48534 2.33158 13.6748
36 4 5.2725 4.95626 15.543
29 4 5.67842 2.5436 12.6003
240 3 5.39822 1.46115 16.0826
239 3 3.70648 0.0290808 14.4622
366 2 11.601 5.6781 16.5481
342 2 4.83918 5.6134 18.389
165 2 6.21155 4.82672 12.7791
242 3 6.76427 0.925749 12.5818
135 2 8.02694 3.73747 17.8657
213 1 6.74676 3.9546 13.2715
163 2 7.82963 3.73738 13.0738
164 2 6.40138 3.61812 14.917
24 4 7.05108 1.25224 16.7311
278 3 7.99904 2.33295 16.0009
27 4 8.12139 0.264415 13.0335
339 1 7.54843 -0.454855 16.2943
173 2 7.72783 5.73688 14.1672
367 2 9.68809 5.64622 16.5127
162 2 9.84482 3.95073 12.2734
53 4 9.43724 2.21689 14.898
289 3 10.0589 3.74551 14.695
276 3 9.04303 1.45467 13.4917
168 2 6.59303 5.66548 16.6868
56 4 9.61608 4.60639 18.3302
60 4 11.475 4.34003 14.3459
254 3 1.78597 0.849691 18.2424
338 2 8.58208 -0.587897 16.7561
186 2 6.24518 8.22921 6.06039
122 2 8.10758 9.48463 3.16785
123 2 7.91471 8.36931 4.82263
199 1 8.62078 9.17828 4.15085
365 2 6.68895 8.45632 1.31851
20 4 12.5849 8.03829 8.90492
148 2 14.4402 11.5634 6.79127
191 1 15.0846 12.4644 8.37443
323 2 8.77078 9.31107 8.81713
4 3 10.1487 12.2769 1.70384
370 3 9.01735 12.0367 4.12713
313 1 11.1398 9.81398 0.936635
309 4 10.9605 11.632 0.543556
317 2 10.6639 9.8539 2.04985
331 2 11.3571 11.4202 5.57548
215 1 6.86937 8.07521 0.298819
334 1 10.7193 10.5853 6.00022
332 2 11.1641 9.56173 5.68068
105 2 11.7712 7.90369 2.56786
98 2 9.06965 7.14567 4.08382
19 4 8.90547 10.7608 5.15177
124 2 9.6858 8.78018 3.99667
361 2 9.02159 6.76237 1.12337
106 2 10.929 6.98865 4.27087
310 2 12.274 9.70935 0.93978
40 4 13.9393 9.54964 4.57196
146 2 12.482 9.04563 3.76396
358 2 14.063 11.0237 1.1335
147 2 13.8121 9.63707 6.40607
201 1 14.4969 12.0103 1.06014
23 4 15.0996 12.1602 2.9604
88 2 14.7936 10.8624 9.15834
311 2 12.6316 12.29 0.530707
221 1 6.86597 7.18317 6.07659
301 3 7.79761 10.8635 6.27868
64 4 6.94998 9.35076 8.6565
185 2 7.64323 8.39867 7.27113
235 3 12.0234 11.9572 8.17519
21 4 10.9903 10.6789 7.76883
234 3 11.6221 9.34503 8.27687
112 2 9.23625 10.924 8.52415
256 3 4.66784 6.03536 14.4915
58 4 5.64369 7.08626 10.7196
297 3 6.10191 8.41644 9.53901
324 2 7.85457 10.1981 10.7263
325 1 7.88435 10.6847 9.66839
292 3 6.95387 6.84924 11.5146
110 2 8.42322 12.5917 9.81402
75 2 11.2985 12.0091 10.5404
22 4 12.0927 11.4522 11.8948
232 3 11.6616 7.11054 9.90749
291 3 9.73178 7.42092 11.8235
15 4 11.1195 6.82615 11.3506
264 3 13.2322 10.5349 11.3216
117 2 12.8652 8.15462 12.1444
100 2 14.0384 12.5468 9.93235
364 2 11.2566 6.49417 17.8995
97 2 6.2355 6.84237 18.0118
128 2 14.6354 11.9924 18.1423
322 2 7.04204 11.4977 9.43085
177 2 6.84576 9.60196 11.9292
61 4 8.28214 7.44765 12.3742
218 1 7.79122 9.30895 12.5468
174 2 7.78051 7.46756 14.9396
176 2 7.5411 9.22104 13.6779
63 4 6.88361 9.20549 17.5283
306 3 5.85952 8.90197 16.2918
217 1 8.26849 6.73649 14.2404
169 2 8.30228 7.11847 18.175
197 1 12.2235 7.49125 12.8602
8 4 9.92953 12.2192 13.7059
126 2 11.1787 8.73817 15.8819
236 3 10.9906 10.9664 12.9577
315 3 10.5808 11.0368 17.2098
314 4 9.52007 10.3849 16.14
96 2 11.5816 8.05878 13.7192
316 3 8.84515 11.566 14.6728
200 1 10.3589 9.04932 15.1457
318 2 10.6853 9.78048 14.1972
175 2 9.33581 6.56551 14.504
178 2 8.66766 10.0686 12.4777
362 1 10.1721 6.51082 17.7197
125 2 9.5772 8.15362 14.8099
363 2 9.84796 7.54441 17.4646
295 3 8.32521 9.67572 16.8573
116 2 11.3477 6.06708 14.4724
336 2 13.8216 12.1196 16.7548
312 2 10.8288 8.58275 18.3663
118 2 12.5725 6.4725 13.088
319 2 14.7409 12.5927 14.5017
47 4 9.82723 1.33999 3.98874
68 2 16.9919 0.179701 7.37296
280 3 10.4489 2.4437 2.90471
273 3 10.9265 0.870718 5.07312
55 4 11.469 3.51537 2.17196
281 3 11.9711 4.77508 3.27278
350 2 11.3994 1.33383 0.656141
35 4 20.006 5.61624 5.88688
7 4 16.7151 1.74008 6.66842
166 2 13.6989 3.37784 1.48051
11 4 16.1092 4.53673 2.6514
225 3 15.3776 3.34274 3.42041
226 3 15.1645 5.37063 1.62058
223 3 16.0184 1.57679 5.2388
5 4 14.9609 1.99254 4.11067
89 2 15.3351 0.635718 2.97038
51 4 12.5208 1.63171 5.67132
214 1 12.8521 2.53731 1.40921
272 3 13.4893 1.6457 4.43453
349 2 14.2222 0.610504 0.895047
351 1 15.0636 0.0771408 1.44925
360 2 12.9148 1.64242 2.19484
49 4 13.635 -0.293386 7.96877
348 2 15.9801 -0.0820394 0.79576
2 2 16.8417 -0.040062 2.31367
70 2 17.2714 3.71982 1.58838
244 3 16.9809 5.55166 3.46063
274 3 13.0616 0.7286 6.87742
209 1 18.1505 2.42863 0.5366
228 3 13.3678 6.22065 5.25447
12 4 12.3764 6.09663 3.97312
284 3 12.1348 3.04762 6.25473
283 3 11.0083 3.34293 8.78108
57 4 11.1729 3.9282 7.24081
229 3 14.8447 5.2248 7.32203
227 3 16.0902 2.831 7.57292
14 4 15.33 4.08301 8.3058
72 2 13.2963 3.51933 9.04204
167 2 12.7102 2.24261 0.324644
269 3 8.98677 0.0185959 3.51367
347 2 10.0379 -0.0829219 6.23582
359 1 10.8471 0.108307 18.2563
329 2 16.7539 0.658079 16.2365
345 2 10.2241 0.411543 10.2541
50 4 10.7203 2.60357 10.202
288 3 14.0922 3.43975 9.66233
91 2 14.1975 3.35311 11.2942
279 3 11.8977 2.05992 11.2102
355 2 13.915 0.0164712 10.3443