ITEM: TIMESTEP
0
ITEM: NUMBER OF ATOMS
371
ITEM: BOX BOUNDS xy xz yz pp pp pp
4.2379536921030159e-01 2.4206161451652470e+01 7.0376476225697173e+00
-7.6100078109605018e-01 1.3049914374414435e+01 2.7370919829300294e-01
2.4470688386626271e-01 1.8395593116133643e+01 -5.2598640668172791e-01
ITEM: ATOMS id type x y z
130 2 3.84727 0.839633 3.43068
93 2 11.5451 5.56677 6.92216
131 2 2.55694 1.17346 4.89043
202 1 2.76729 1.03806 3.70416
138 2 3.33995 3.77656 5.5202
103 2 3.03262 0.711088 6.60478
32 4 4.1863 4.42315 2.27844
333 2 5.62136 0.406163 6.016
335 2 6.00219 2.13109 5.28834
137 2 4.92936 3.23053 4.88577
245 3 5.28468 3.43014 1.74337
204 1 4.80865 4.20906 4.39353
208 1 5.21439 1.44346 5.78082
136 2 5.83782 4.71128 4.39476
74 2 4.28143 1.31343 5.05273
282 3 10.7479 4.16905 0.606032
132 2 7.45047 2.27596 2.98156
30 4 6.78973 2.91299 1.55718
159 2 7.59507 1.50793 4.59099
203 1 7.77027 4.46656 1.4968
134 2 7.02439 5.26107 1.76505
183 2 8.14995 5.26171 4.0952
102 2 2.30656 2.51443 6.30964
341 2 3.15333 3.90634 3.68188
133 2 8.43415 4.16136 2.46336
303 3 6.91223 6.00493 6.20471
158 2 8.78058 1.47588 7.39615
76 2 8.69698 0.0987795 8.98624
157 2 8.18449 3.41867 4.30844
211 1 8.52092 2.34109 4.68208
59 4 8.88596 2.99203 6.47268
182 2 9.6558 5.42221 5.10117
184 2 9.70035 5.59384 3.25937
220 1 9.10071 5.83517 4.17055
258 3 4.17838 5.99577 2.01835
192 1 2.12791 1.3945 6.88804
104 2 2.17344 1.57831 8.05808
250 3 4.18928 5.674 7.32831
246 3 3.94418 3.53765 8.95111
149 2 4.92184 1.96046 6.75055
237 3 5.57922 1.35089 8.92397
33 4 4.84063 4.89313 8.56774
6 4 6.04579 -0.123168 8.66181
171 2 8.38075 4.39701 7.4824
170 2 7.59484 2.15643 8.60644
81 2 6.43636 4.31516 8.05402
216 1 7.446 2.76361 7.67677
101 2 7.13723 0.0920326 7.08647
172 2 6.553 2.3122 6.99777
287 3 10.6838 5.06741 6.62549
243 3 7.1719 1.99519 0.257816
3 2 2.19124 1.90123 3.08476
85 2 5.0072 6.12894 4.61818
56 4 9.44715 5.05801 0.309967
35 4 3.70699 5.55898 5.69885
10 4 1.90832 0.342713 10.9717
238 3 3.17665 1.27741 10.3613
224 3 2.10092 -0.291839 12.432
26 4 4.38824 2.30747 9.86208
241 3 4.9581 3.00869 11.2622
285 3 5.05018 5.86266 9.74135
343 1 4.85476 5.80819 17.0847
160 2 8.63291 3.09449 11.1931
161 2 9.11116 4.88325 10.8123
212 1 9.51186 3.93976 11.3165
94 2 11.0868 5.07593 11.2191
127 2 5.68941 -0.126328 11.8473
78 2 2.26317 1.64865 16.2384
251 3 2.83133 2.45999 16.0175
340 2 4.35544 4.26092 16.2251
28 4 4.24831 1.56569 15.1847
252 3 4.58015 2.35653 13.8913
36 4 5.53493 5.28824 15.4028
29 4 5.59496 2.68565 12.6015
240 3 5.51963 1.44907 16.2399
239 3 3.75138 0.0660827 14.6509
342 2 4.76606 5.71672 18.1564
319 2 7.66668 -0.176557 14.4397
165 2 5.97567 4.99406 12.7119
242 3 6.71271 1.13766 12.2016
135 2 8.24969 3.67369 17.819
213 1 6.7217 4.08406 13.0239
163 2 7.76622 4.06872 12.377
164 2 6.80407 3.90257 14.6943
24 4 7.09526 1.20487 16.6074
278 3 8.07613 2.15821 15.7612
27 4 8.02803 0.526459 12.8587
339 1 7.52623 -0.47793 16.0297
173 2 7.50699 5.71885 13.8701
367 2 9.78719 5.71708 16.8271
162 2 9.89372 4.04578 12.3885
53 4 9.39125 2.182 14.7537
289 3 10.0041 3.94707 14.7039
276 3 9.12189 1.76363 13.2059
168 2 6.64082 5.90697 16.7369
271 3 9.64712 1.31129 9.69523
60 4 11.3665 4.57427 14.5436
186 2 6.00336 8.13994 5.87061
122 2 8.70858 9.21437 3.39799
123 2 7.91012 8.29899 4.99815
199 1 8.77411 9.04783 4.5518
365 2 6.53539 8.56086 1.40693
20 4 12.6105 8.02975 8.97813
148 2 14.6777 11.5035 6.87702
191 1 15.0768 12.5845 8.36668
1 4 8.945 12.9012 2.86156
4 3 9.87333 12.2967 1.75368
370 3 8.8485 11.8317 4.09181
313 1 10.9611 9.80651 1.34761
309 4 10.9326 11.5217 0.593572
317 2 10.4271 10.103 2.37092
331 2 11.2502 11.6948 5.83123
312 2 10.5728 8.85686 0.803874
334 1 10.8111 10.7525 6.15828
332 2 11.5059 9.8302 5.87333
105 2 11.475 7.90633 2.84985
98 2 8.89849 6.98848 4.27491
19 4 8.84541 10.7282 5.29968
124 2 9.81944 8.71587 4.93337
361 2 9.08605 6.63421 1.39027
106 2 10.7463 6.73022 4.81761
310 2 12.1657 9.76696 1.46196
193 1 12.5007 7.48223 2.74248
146 2 12.3565 8.90783 4.08054
358 2 13.7732 11.0124 0.697625
215 1 6.83487 8.14774 0.382186
201 1 14.4306 11.954 0.795086
23 4 15.0051 12.1575 2.70427
337 2 13.5029 12.9695 2.00784
311 2 12.5205 12.2402 0.730916
221 1 6.54688 7.065 5.80307
301 3 7.72598 10.7437 6.47951
64 4 6.70566 9.25555 8.60728
185 2 7.14213 8.21981 7.23882
235 3 11.8888 12.1245 8.42383
21 4 11.0873 10.7799 7.94132
234 3 11.8916 9.35131 8.41669
112 2 9.43314 10.8656 8.87424
323 2 8.52148 9.11402 8.79718
259 3 14.4119 10.8284 3.71194
147 2 13.7907 9.55138 6.37968
88 2 14.7824 10.8698 9.22455
169 2 8.00492 7.83816 0.280679
256 3 4.85426 6.31822 14.338
58 4 5.55484 7.13934 10.6751
297 3 5.87299 8.33993 9.68691
324 2 7.67471 10.1549 10.7667
325 1 7.80428 10.6252 9.63988
292 3 7.02431 6.72145 11.425
110 2 8.70262 12.3261 9.78887
75 2 11.0302 12.057 10.383
22 4 12.0268 11.6086 11.6985
232 3 11.7084 7.22545 10.003
291 3 9.72646 7.50172 11.8958
15 4 11.1283 6.8383 11.4304
264 3 13.1035 10.5737 11.2717
117 2 13.1029 8.24331 12.2962
100 2 14.1675 12.6143 10.0569
366 2 11.4853 5.99031 16.8609
97 2 6.27605 6.89474 18.027
128 2 14.7322 11.9917 17.9199
268 3 15.6599 12.5481 12.0513
177 2 6.63649 9.49989 11.9494
61 4 8.08672 7.52753 12.4
218 1 7.52887 9.36855 12.6498
174 2 7.33771 7.39303 14.773
176 2 7.29053 9.37055 13.8109
63 4 7.03207 9.25853 17.4569
306 3 5.96204 9.09724 16.1827
217 1 8.06497 6.68232 14.2133
364 2 11.2184 6.67766 18.3202
197 1 12.2963 7.56541 12.7064
8 4 10.0648 12.2396 13.8144
126 2 11.1753 8.52956 15.6395
236 3 11.1022 11.1574 12.9755
315 3 10.6425 10.7972 17.1788
314 4 9.58091 10.2512 16.1655
96 2 11.5964 8.11922 13.5111
316 3 8.84779 11.5665 14.8561
200 1 10.3155 8.91178 15.0326
318 2 10.6803 9.56569 14.1625
175 2 8.99079 6.46633 14.7833
178 2 8.3582 10.0971 12.4475
362 1 10.1278 6.66029 18.1253
125 2 9.50464 8.00158 14.7176
363 2 9.75578 7.74124 17.9481
295 3 8.48623 9.44393 16.9627
116 2 11.2457 6.30861 14.4856
336 2 13.631 12.1404 16.2472
322 2 7.05325 11.4099 9.359
338 2 15.5073 12.5233 16.5367
43 4 14.328 9.89749 10.5662
47 4 9.83795 1.35946 3.85901
68 2 17.0102 0.358962 7.40475
280 3 10.5698 2.48359 2.81193
273 3 10.7993 0.886521 5.12756
55 4 11.5062 3.5133 2.05283
281 3 12.0397 4.8192 3.12503
350 2 11.3999 1.35989 0.554694
254 3 17.6953 1.6005 0.431521
7 4 16.646 1.8758 6.62277
166 2 13.7406 3.10127 1.73697
11 4 16.0694 4.52126 2.73622
225 3 15.1859 3.53124 3.69077
226 3 15.0808 5.35449 1.65485
223 3 16.0486 1.7421 5.18827
5 4 14.9371 2.01225 4.17766
89 2 15.3252 0.929419 2.73118
51 4 12.5457 1.37519 5.68495
214 1 12.8813 2.34275 1.4289
272 3 13.5467 1.32429 4.46171
349 2 14.1794 0.359842 0.490147
351 1 15.0967 0.0433079 1.19693
360 2 12.8799 1.43438 2.05868
167 2 12.8198 2.10087 0.327371
247 3 16.638 4.90552 9.17472
2 2 16.7797 -0.0988612 2.20972
70 2 17.1669 3.51427 1.80214
244 3 17.1753 5.3785 3.47936
274 3 12.9969 0.489838 6.91212
209 1 18.1916 2.63878 0.41196
352 2 15.8921 0.572025 8.8741
12 4 12.2174 6.1255 4.04919
284 3 12.3938 2.86017 6.23624
283 3 11.1254 3.37463 8.7707
57 4 11.3125 3.71896 7.20318
229 3 14.9309 5.29428 7.29369
227 3 16.119 2.95388 7.63344
14 4 15.4799 4.2555 8.35065
72 2 13.4515 3.8546 9.15862
347 2 10.1737 -0.286417 6.15444
348 2 16.0937 -0.100824 0.639171
354 1 14.8458 0.74473 9.27477
269 3 8.89894 0.041505 3.25267
153 2 19.1234 3.91864 1.42881
353 2 14.4869 1.83092 9.25251
359 1 10.7964 0.352529 18.0369
329 2 16.8655 0.40033 15.975
345 2 9.77279 0.644086 10.515
50 4 10.7289 2.66326 10.3758
288 3 14.2949 3.7831 9.78948
91 2 14.3006 3.51464 11.4248
279 3 11.8894 2.3424 11.3414
355 2 14.6317 0.222247 10.3258
69 2 16.106 0.627017 11.1858
141 2 18.0938 3.28162 11.1605
195 1 16.9388 1.47798 11.1589
111 2 16.9991 2.02994 12.2131
34 4 17.4717 5.62073 10.3535
187 2 17.0969 2.10415 10.1863
140 2 19.4879 4.4755 10.7417
205 1 18.5421 4.35483 11.3327
139 2 18.7014 4.67309 12.3968
277 3 10.6794 1.34222 15.4026
48 4 11.4885 0.368573 16.3293
369 1 12.2065 5.47521 16.0039
17 4 15.9745 4.18806 14.7652
231 3 15.3974 5.41158 13.7199
230 3 14.7798 3.02659 15.2458
253 3 16.8798 4.90517 15.8966
54 4 13.0211 2.82935 12.348
326 2 15.8247 0.382821 17.5595
368 2 12.6985 4.48699 16.3997
327 1 16.1051 0.926122 16.5669
92 2 13.7342 1.48993 13.118
330 2 13.3996 5.53323 17.9527
9 4 14.5776 1.40592 15.6383
270 3 13.1659 1.14691 16.5795
275 3 14.5992 0.303965 14.0664
290 3 12.322 3.92 13.3559
37 4 17.814 5.34918 17.0899
328 2 16.4745 2.07259 16.814
115 2 17.7464 3.4334 12.9824
151 2 18.2265 3.90821 17.9313
113 2 16.5649 2.12717 13.7884
114 2 18.0325 2.78555 14.8035
196 1 17.2306 3.03126 13.9583
356 2 9.92483 1.082 17.8862
152 2 19.4448 5.92786 16.7127
357 2 10.4563 -0.610763 18.392
304 3 21.8363 11.8366 7.37509
109 2 13.5879 7.98573 0.482351
66 4 22.6348 10.6654 6.64989
13 4 15.3289 6.56276 0.614679
83 2 14.8793 7.93055 4.10072
84 2 16.0352 9.18264 5.58612
207 1 15.1814 8.53678 5.82053
129 2 15.8261 11.4872 1.20847
344 2 19.886 7.83165 7.50975
31 4 17.831 6.75827 4.0228
257 3 18.4446 7.61903 2.82689
79 2 16.581 7.64935 4.76764
261 3 17.3556 9.77405 0.930866
145 2 17.3941 8.82512 1.14959
42 4 18.7929 8.22047 8.98698
180 2 19.014 10.6012 5.28345
39 4 20.0703 7.64478 2.25376
179 2 19.4984 11.5739 3.75919
219 1 19.3484 10.5296 4.25865
260 3 20.1183 8.42294 0.808121
181 2 18.5764 9.90762 3.70532
371 3 19.9195 11.1809 1.17768
40 4 13.9575 9.42721 4.46936
86 2 18.8687 9.79953 7.01622
293 3 20.9934 8.45054 3.29743
62 4 21.1305 9.96812 4.09286
46 4 21.7221 11.5274 1.48266
294 3 22.0707 11.0911 3.21384
302 3 21.7632 9.71958 5.83719
233 3 13.0834 7.09714 7.76024
80 2 15.5183 7.72927 6.68097
16 4 14.1605 6.54527 6.69421
41 4 19.4382 9.85217 0.311037
150 2 17.0258 10.1936 7.05242
99 2 16.8781 12.1594 8.86522
25 4 16.4214 11.8489 7.16258
346 1 18.4185 8.79131 7.03693
87 2 17.0936 8.66464 7.98134
77 2 18.1265 8.38595 6.00942
249 3 18.8285 6.34252 5.20577
49 4 20.9142 12.8118 8.18568
228 3 13.3383 6.3279 5.08974
296 3 22.6667 10.7931 0.362572
107 2 12.6213 6.70847 1.87828
71 2 13.2685 8.28904 2.54497
299 3 19.9254 12.0128 9.27759
120 2 13.8667 6.78919 11.781
263 3 14.135 8.50474 9.9681
52 4 22.1229 12.0944 14.2783
266 3 15.6005 10.0759 11.5255
248 3 16.5948 6.26155 11.6115
118 2 12.6929 6.44109 13.1136
300 3 17.8742 11.5952 11.1031
45 4 16.6266 11.2764 12.0736
262 3 18.2407 6.88397 9.68514
65 4 19.3089 11.0407 10.3929
298 3 19.0776 9.58344 9.76279
222 1 20.5938 10.9227 11.7963
190 2 20.2393 10.0553 12.4069
286 3 21.0877 7.53469 11.8708
189 2 21.56 10.7715 11.2211
307 3 21.3003 11.3117 15.2857
265 3 20.5166 8.90463 14.4057
90 2 22.2731 11.1454 12.8624
108 2 14.4013 6.73971 16.7838
18 4 15.3268 6.63072 12.6714
73 2 15.9554 7.95327 14.7258
198 1 15.7526 8.15357 13.6404
119 2 14.8302 8.77131 13.3935
156 2 15.3466 9.84285 15.7615
82 2 20.7968 6.81218 16.7868
67 4 20.8907 9.73066 15.7204
155 2 16.4198 10.562 17.2515
144 2 18.1351 7.78334 13.8491
255 3 17.0141 6.37476 17.9984
121 2 16.7115 8.47066 13.0036
44 4 17.4579 10.9798 15.1847
154 2 17.7296 9.10179 15.6267
210 1 16.3889 10.0194 16.1693
267 3 17.1244 11.0877 13.6727
305 3 18.2603 12.1599 15.9375
143 2 18.6007 7.36188 12.1041
188 2 20.6926 11.9155 12.4373
206 1 18.7437 7.12673 13.17
308 3 19.7679 9.42928 16.8453
38 4 20.5498 7.54382 13.4876
320 2 17.5975 9.24429 17.9285
194 1 14.114 6.44685 17.8885
95 2 12.9327 6.2246 15.5453
321 2 23.8281 12.138 14.6352
142 2 18.6016 6.0282 13.4137
ITEM: TIMESTEP
100
ITEM: NUMBER OF ATOMS
371
ITEM: BOX BOUNDS xy xz yz pp pp pp
4.2379536921030159e-01 2.4199518987278054e+01 7.0310051581953026e+00
-7.6100078109605018e-01 1.3049914374414435e+01 2.7370919829300294e-01
2.4470688386626271e-01 1.8395593116133643e+01 -5.2598640668172791e-01
ITEM: ATOMS id type x y z
130 2 3.82795 0.87364 3.41647
93 2 11.4662 5.67363 6.90374
131 2 2.51884 1.20084 4.89172
202 1 2.75581 1.13371 3.73301
138 2 3.2302 3.84257 5.41021
103 2 2.41089 0.611571 6.43002
32 4 4.07147 4.3918 2.35737
333 2 5.79135 0.567725 5.85694
335 2 5.89034 2.31191 5.35604
137 2 4.84712 3.2216 4.83981
245 3 5.35747 3.51602 1.91946
204 1 4.75082 4.23395 4.26997
208 1 5.21729 1.50506 5.77972
136 2 5.78979 4.58045 3.98393
74 2 4.33606 1.29767 5.02125
282 3 10.6696 4.23791 0.652432
132 2 7.3185 2.17126 3.24571
30 4 6.79773 2.87694 1.68024
159 2 7.67793 1.44246 5.03761
203 1 7.76263 4.43423 1.5296
134 2 6.91004 5.15662 1.84906
183 2 8.17641 5.37833 4.05936
102 2 2.24784 2.58443 6.15571
341 2 3.04493 3.6782 3.70692
133 2 8.53888 4.14028 2.4123
303 3 7.12475 5.97732 6.10153
158 2 8.79514 1.4009 7.45861
76 2 8.58895 0.107447 8.83549
157 2 7.9312 3.49257 4.68727
211 1 8.42877 2.29143 4.78228
59 4 8.83041 2.947 6.5564
182 2 9.68924 5.56962 5.132
184 2 9.86767 5.63582 3.25515
220 1 9.15785 5.8998 4.13728
258 3 4.15035 5.98829 2.12424
192 1 2.10814 1.587 6.90157
104 2 2.59871 1.7343 7.91022
250 3 4.10457 5.53488 7.31562
246 3 3.91628 3.60512 8.65415
149 2 4.75071 1.80368 6.80083
237 3 5.40563 1.30953 9.0898
33 4 4.81754 4.89815 8.5335
6 4 5.93711 -0.0736855 8.46265
171 2 8.04971 4.35986 7.49567
170 2 7.63435 2.07876 8.6487
81 2 6.41936 4.26819 8.12387
216 1 7.42459 2.68853 7.71714
101 2 7.20176 0.325765 7.01032
172 2 6.54567 2.28188 7.02915
287 3 10.6311 5.08739 6.67803
337 2 6.66412 -0.0528238 2.08529
3 2 2.26897 1.94829 3.09058
85 2 4.93305 6.08779 4.71689
342 2 4.24992 5.99604 0.300967
243 3 6.98803 2.06778 0.260263
10 4 1.96819 0.299325 10.8432
238 3 3.16528 1.2215 10.3008
224 3 2.32412 -0.406218 12.2785
26 4 4.3588 2.33703 9.83566
241 3 4.99324 3.04952 11.2326
285 3 4.95889 5.87088 9.80073
343 1 4.68775 5.63909 17.3204
160 2 8.61629 3.04515 11.0781
161 2 9.18969 4.77864 10.8182
212 1 9.49109 3.79595 11.1426
94 2 10.9222 5.07667 11.6644
127 2 5.71715 -0.189999 11.9003
78 2 2.41829 1.88759 16.2782
251 3 2.82677 2.59871 15.6621
340 2 3.80114 4.34324 16.4692
28 4 4.23541 1.4404 15.1096
252 3 4.59644 2.4947 13.8812
36 4 5.23364 5.04076 15.5437
29 4 5.60957 2.67426 12.6261
240 3 5.51966 1.36123 16.1305
239 3 3.77576 -0.061087 14.5455
366 2 11.4352 5.88136 16.821
319 2 7.80181 -0.328424 14.589
165 2 6.51491 4.82839 12.8098
242 3 6.69813 1.04715 12.4351
135 2 8.15638 3.59355 17.8247
213 1 6.82395 3.85762 13.3353
163 2 7.8965 3.54186 13.025
164 2 6.31916 3.62707 15.0154
24 4 7.02692 1.27718 16.5981
278 3 8.05153 2.16345 15.731
27 4 8.08014 0.394633 13.0041
339 1 7.66604 -0.416848 16.2081
173 2 7.73698 5.5421 13.8545
367 2 9.65713 5.69302 16.7988
162 2 9.81215 3.78664 12.2236
53 4 9.45454 2.25599 14.8424
289 3 9.96143 3.9231 14.5837
276 3 9.17126 1.61651 13.1981
168 2 6.41243 5.35258 17.0081
271 3 9.51375 1.20122 9.75495
60 4 11.406 4.42033 14.3759
356 2 9.82847 0.961849 17.895
56 4 9.64316 4.55195 18.336
338 2 8.61022 -0.606175 16.7502
254 3 1.72503 0.910462 18.3834
186 2 6.16375 8.11336 5.89525
122 2 8.43687 9.3226 3.31707
123 2 8.05038 8.33302 4.97296
199 1 8.77617 9.11693 4.37951
365 2 6.63126 8.28111 1.36731
20 4 12.645 7.99883 9.10308
148 2 14.5684 11.7127 6.6198
191 1 15.0007 12.6459 8.20493
1 4 9.00727 12.9595 2.82235
4 3 9.98546 12.2519 1.72614
370 3 8.71608 11.9422 4.00928
313 1 11.183 9.90052 1.26138
309 4 10.9208 11.6245 0.59947
317 2 10.8836 10.0844 2.35221
331 2 10.9949 11.9981 5.84949
312 2 10.6678 8.89054 0.821429
334 1 10.6137 10.967 6.14606
332 2 11.3426 10.1298 5.70445
105 2 11.4986 7.76702 2.78684
98 2 8.97414 7.02581 4.13154
19 4 8.86614 10.8177 5.25366
124 2 9.8701 8.79911 4.38106
361 2 9.02395 6.64584 1.38502
106 2 10.8947 6.7883 4.46954
310 2 12.3588 9.86355 1.06733
193 1 12.5851 7.38073 2.67663
146 2 12.4244 8.83592 3.98895
358 2 13.71 11.0384 1.00898
215 1 6.82403 8.06459 0.246485
201 1 14.3232 12.0283 0.964845
23 4 15.0114 12.2073 2.7898
88 2 14.5583 11.0361 9.12549
311 2 12.4591 12.4591 0.506203
221 1 6.77325 7.10581 5.96034
301 3 7.76047 10.8384 6.34503
64 4 6.86467 9.38942 8.57771
185 2 7.44975 8.32963 7.27627
235 3 11.9734 12.0575 8.20704
21 4 10.9834 10.8125 7.88984
234 3 11.7877 9.4104 8.40686
112 2 9.4087 10.9985 8.93118
323 2 8.65672 9.32536 8.75145
259 3 14.4529 10.81 3.79319
147 2 13.8622 9.73071 6.34304
40 4 13.9533 9.52224 4.52006
256 3 4.9618 6.23842 14.405
58 4 5.71403 7.17411 10.7066
297 3 6.17404 8.45814 9.65974
324 2 7.8304 10.3884 10.8306
325 1 7.79933 10.6926 9.68967
292 3 7.10783 6.71127 11.4539
110 2 8.41176 12.4792 9.58038
75 2 11.0269 11.8061 10.413
22 4 12.0225 11.5692 11.7837
232 3 11.6594 7.2188 10.1289
291 3 9.55058 7.35671 11.7998
15 4 11.0553 6.77707 11.4807
264 3 13.1714 10.6025 11.4135
117 2 12.7871 8.35297 12.2921
100 2 14.0224 12.609 9.82039
43 4 14.3394 9.97386 10.572
97 2 6.16408 6.87672 17.9346
128 2 14.5078 12.0241 18.041
268 3 15.6294 12.6395 11.9094
177 2 6.83061 9.73039 12.1952
61 4 8.07371 7.53685 12.4129
218 1 7.78901 9.48656 12.7187
174 2 7.76064 7.07486 14.8936
176 2 7.66185 9.72946 13.8313
63 4 6.9609 9.26251 17.6257
306 3 5.89235 8.94663 16.2354
217 1 8.25431 6.60321 14.0747
169 2 8.19512 7.15892 18.2458
197 1 12.1339 7.60492 12.8208
8 4 9.97157 12.337 13.6615
126 2 11.1641 8.47638 15.9446
236 3 11.1323 11.104 13.0731
315 3 10.6756 10.9193 17.1767
314 4 9.53724 10.3248 16.1294
96 2 11.4573 8.04919 13.72
316 3 8.74971 11.4362 14.7095
200 1 10.3433 8.85733 15.2628
318 2 10.7993 9.60133 14.3621
175 2 9.40781 6.47323 14.2175
178 2 8.65557 10.0237 12.2266
362 1 10.15 6.64297 18.1997
125 2 9.56813 7.92494 14.8246
363 2 9.82156 7.67914 17.9505
295 3 8.37721 9.63631 16.9004
116 2 11.3218 6.13024 14.3543
336 2 13.6814 12.3154 16.5801
322 2 6.90701 11.4811 9.53121
118 2 12.6147 6.61906 13.1554
364 2 11.3031 6.54871 18.3581
47 4 9.78394 1.32384 3.93139
68 2 17.106 0.353033 7.29377
280 3 10.4441 2.36801 2.86918
273 3 10.9341 0.867405 5.18257
55 4 11.3455 3.52082 2.06396
281 3 12.0291 4.6982 3.1313
350 2 11.3078 1.48164 0.5764
153 2 19.0058 3.80667 1.43456
7 4 16.655 1.88372 6.64249
166 2 13.6045 3.29296 1.64239
11 4 16.0371 4.47321 2.71972
225 3 15.0773 3.46972 3.60046
226 3 15.2368 5.38875 1.66643
223 3 16.1864 1.64186 5.18541
5 4 15.0318 1.95634 4.07749
89 2 15.4004 0.824784 2.69003
51 4 12.6091 1.54942 5.71277
214 1 12.7905 2.53061 1.38291
272 3 13.5838 1.57259 4.47837
349 2 14.2268 0.588909 0.762661
351 1 15.1324 0.118071 1.28785
360 2 12.7141 1.68485 2.24371
49 4 13.7758 -0.396608 8.01738
249 3 18.7161 6.25674 5.28664
2 2 16.9396 0.121918 2.0991
70 2 17.0071 3.31308 1.79739
244 3 17.0107 5.54216 3.42939
274 3 13.0514 0.61902 6.84812
209 1 18.1853 2.53932 0.442366
352 2 15.756 0.394921 9.06531
12 4 12.387 6.02563 3.97047
284 3 12.3462 2.98562 6.24141
283 3 11.196 3.42728 8.79981
57 4 11.3563 3.8168 7.23087
229 3 14.9163 5.20054 7.2297
227 3 15.9968 2.76493 7.73891
14 4 15.3898 4.14284 8.31443
72 2 13.3203 3.7697 9.14477
347 2 10.0615 -0.341466 5.93456
348 2 16.0317 0.00448583 0.672584
35 4 20.0589 5.57146 5.76756
269 3 8.92404 0.0777649 3.32928
359 1 10.7367 0.360122 18.0939
329 2 16.7852 0.706245 16.0233
345 2 10.0246 0.484718 10.2956
50 4 10.7351 2.59319 10.2446
288 3 14.1726 3.55413 9.69307
91 2 14.1562 3.48119 11.3215
279 3 11.945 2.1445 11.2894
355 2 14.4086 0.0665738 10.2806
69 2 16.2417 0.95826 10.9736
141 2 18.0712 3.52044 11.1176
195 1 17.1882 1.67031 11.0346
111 2 17.221 2.28886 12.1008
34 4 17.2916 5.85882 10.3834
187 2 17.259 2.3478 10.0577
140 2 19.3419 4.7387 10.3147
205 1 18.5686 4.62584 11.1388
139 2 19.0158 4.9483 12.1496
277 3 10.5693 1.37203 15.6441
48 4 11.4601 0.301658 16.3936
152 2 19.3772 5.93088 16.5699
17 4 15.8799 4.16233 14.8363
231 3 15.1846 5.39636 13.9117
230 3 14.7679 3.06115 15.2884
253 3 16.8967 4.74062 16.0958
54 4 12.9342 2.77028 12.2393
326 2 15.7395 0.542839 17.6564
368 2 12.6718 4.36032 16.2948
327 1 15.9966 1.16443 16.6644
92 2 13.7338 1.4599 13.0497
330 2 13.7186 5.5811 17.9879
9 4 14.4571 1.48351 15.7133
270 3 13.1638 1.05447 16.6879
275 3 14.5448 0.425643 14.0717
290 3 12.4297 3.83982 13.2816
37 4 17.8853 5.22806 17.1953
328 2 16.2908 2.27699 16.9608
115 2 17.6407 3.91659 12.8177
151 2 18.7012 3.8671 18.0217
113 2 16.499 2.38485 13.5567
114 2 18.0482 3.01865 14.529
196 1 17.2233 3.33394 13.7902
142 2 18.7804 5.82709 13.1735
353 2 14.4989 1.79615 9.49049
354 1 14.6782 0.608036 9.36534
369 1 12.1488 5.35615 15.9497
247 3 16.4707 4.89672 9.32577
167 2 13.1649 1.50581 18.3879
304 3 22.1076 11.9928 7.33323
71 2 13.3979 8.21947 2.61858
66 4 22.6422 10.7674 6.5776
13 4 15.5857 6.61166 0.700082
83 2 14.888 7.89138 4.19077
84 2 16.2145 9.32902 5.68243
207 1 15.2956 8.6309 5.80569
129 2 15.894 11.5498 1.07729
344 2 19.6466 7.90066 7.41792
31 4 17.8476 6.73237 4.07381
257 3 18.602 7.64366 2.99674
79 2 16.6797 7.83336 4.75893
261 3 17.3539 9.6716 0.94674
145 2 17.5352 8.76555 1.21485
42 4 18.5581 8.31299 8.92679
180 2 19.3366 11.0597 5.33344
39 4 20.2096 7.71367 2.34968
179 2 19.6712 11.5685 3.586
219 1 19.4862 10.7036 4.28178
260 3 20.0433 8.47635 0.928792
181 2 18.6897 10.0615 3.84291
371 3 19.9454 11.265 1.08852
107 2 12.6462 6.63117 1.73135
86 2 18.8824 9.86179 6.84278
293 3 21.2386 8.47902 3.40461
62 4 21.2394 9.88855 4.12608
46 4 21.6623 11.6128 1.58432
294 3 21.9014 11.1534 3.26489
302 3 21.7937 9.6981 6.003
233 3 13.2279 7.16307 7.84429
80 2 15.5761 7.728 6.48955
16 4 14.1946 6.55085 6.73136
41 4 19.4531 9.83717 0.331153
150 2 17.145 10.2519 6.94723
99 2 16.8822 12.2734 8.56321
25 4 16.2908 11.8359 6.99545
346 1 18.4301 8.79275 6.87179
87 2 16.9885 8.74235 7.91476
77 2 18.2374 8.51214 5.81334
296 3 22.6421 10.8243 0.562207
299 3 19.8592 12.0244 9.01906
228 3 13.403 6.30175 5.20521
120 2 13.7985 6.98654 12.0116
263 3 13.9838 8.52805 10.0558
52 4 22.0593 12.1888 14.2487
266 3 15.649 9.97059 11.4161
248 3 16.3533 6.22473 11.6468
95 2 12.9324 6.11152 15.5686
300 3 17.9146 11.512 11.0506
45 4 16.5804 11.2766 12.0288
262 3 18.1223 6.93587 9.59781
65 4 19.3094 10.9937 10.2266
298 3 19.0814 9.52705 9.7256
222 1 20.7224 11.0768 11.5341
190 2 20.5437 10.1282 12.1338
286 3 21.2933 7.61434 11.8946
189 2 21.577 10.8754 10.7784
307 3 21.258 11.246 15.2445
265 3 20.5409 8.81553 14.2319
90 2 22.2803 11.495 12.6897
108 2 14.7591 6.54766 16.6975
18 4 15.3112 6.50127 12.8003
73 2 15.5541 8.09847 14.8204
198 1 15.5502 8.1047 13.7078
119 2 14.7544 8.82939 13.3015
156 2 15.2856 10.0811 15.2223
82 2 20.8513 6.6704 17.0435
67 4 21.086 9.68136 15.6976
155 2 15.9082 10.7124 16.9546
144 2 18.2991 7.39393 14.1753
255 3 17.2492 6.31238 18.155
121 2 16.6066 8.29722 13.2271
44 4 17.4929 10.7324 15.0806
154 2 17.3321 9.01192 16.0769
210 1 16.1212 10.1474 16.0229
267 3 16.9826 10.8706 13.642
305 3 18.1742 11.9533 15.9099
143 2 18.4926 7.42427 12.3769
188 2 20.7615 12.0483 12.1499
206 1 18.8576 6.97661 13.2828
308 3 19.9312 9.45733 16.8778
38 4 20.6627 7.48436 13.4394
320 2 17.6299 9.05561 17.9175
194 1 14.4879 6.42661 17.8129
321 2 23.7921 12.1068 14.4268
109 2 14.1132 7.45407 18.3195
357 2 17.5925 12.4943 18.345
ITEM: TIMESTEP
200
ITEM: NUMBER OF ATOMS
371
ITEM: BOX BOUNDS xy xz yz pp pp pp
4.2379536921030159e-01 2.4192876522903642e+01 7.0243626938208905e+00
-7.6100078109605018e-01 1.3049914374414435e+01 2.7370919829300294e-01
2.4470688386626271e-01 1.8395593116133643e+01 -5.2598640668172791e-01
ITEM: ATOMS id type x y z
130 2 3.65947 1.34146 3.28092
93 2 11.2982 5.8754 7.0437
131 2 2.41193 1.29595 4.82575
202 1 2.57697 1.33142 3.63002
138 2 3.3612 3.91985 5.60636
103 2 2.25513 0.286904 6.17296
32 4 4.14779 4.3988 2.34345
333 2 5.0881 0.466875 6.21386
335 2 6.10965 1.75882 5.16919
137 2 4.89395 3.3718 4.92077
245 3 5.36026 3.53857 1.89624
204 1 4.73943 4.43007 4.30937
208 1 5.05093 1.51395 5.7327
136 2 5.73342 4.86615 4.02853
74 2 4.17999 1.49269 4.95814
282 3 10.5416 4.33401 0.815229
132 2 7.55272 2.42472 3.16471
30 4 6.82403 2.97623 1.68651
159 2 7.4328 2.12149 4.83331
203 1 7.71813 4.60422 1.52502
134 2 6.86006 5.2623 1.8057
183 2 8.18354 5.50695 3.92487
102 2 2.45691 2.26641 6.32069
341 2 3.02259 3.85982 3.77763
133 2 8.5063 4.28254 2.40387
303 3 7.12266 6.02616 5.96503
158 2 8.53866 1.42416 7.59955
76 2 8.7307 -0.0392644 8.91559
157 2 8.97922 3.63227 4.55205
211 1 8.54904 2.3631 4.82467
59 4 8.87755 2.96826 6.6397
182 2 9.69356 5.60039 5.09976
184 2 9.85948 5.62448 3.25363
220 1 9.2258 6.00088 4.07415
258 3 4.07927 6.02012 1.98604
192 1 2.09116 1.1906 6.83954
104 2 2.45422 1.06767 7.91132
250 3 4.18517 5.75573 7.40601
246 3 3.99542 3.73899 8.92739
149 2 4.92135 2.29853 6.55411
237 3 5.49176 1.30962 8.92031
33 4 4.84329 5.05625 8.60882
6 4 5.97871 -0.184673 8.59798
171 2 8.08698 4.42079 7.55089
170 2 7.43209 2.33963 8.6481
81 2 6.47589 4.52314 8.10808
216 1 7.26951 2.85651 7.63185
101 2 7.11918 0.0674419 7.1116
172 2 6.43528 2.37141 6.89241
287 3 10.4495 5.31756 6.73782
1 4 2.00226 -0.286467 2.89268
3 2 1.86132 2.05173 3.08692
85 2 4.96325 6.21817 4.83187
153 2 2.69318 3.64829 1.53225
243 3 7.00743 1.95577 0.397731
337 2 6.58412 -0.202197 2.24079
10 4 1.97373 0.532406 10.8914
238 3 3.10219 1.47182 10.2336
224 3 2.21067 -0.143949 12.2528
26 4 4.40696 2.30485 9.77274
241 3 5.29166 2.83196 11.1494
285 3 5.10572 5.96109 9.83409
343 1 4.83868 5.66847 17.215
160 2 8.64869 3.03817 11.0873
161 2 9.37853 4.81754 10.6365
212 1 9.5576 3.79775 11.2025
94 2 11.0238 5.06152 11.2419
127 2 5.77528 -0.375709 12.4139
78 2 2.15296 1.93678 16.1309
251 3 2.65877 2.63258 15.6262
340 2 4.04179 4.12029 16.6335
28 4 4.0779 1.4866 15.0539
252 3 4.48798 2.33077 13.6748
36 4 5.27034 4.95558 15.5434
29 4 5.6814 2.54297 12.6001
240 3 5.39991 1.46138 16.0815
239 3 3.70909 0.027855 14.4617
366 2 11.6063 5.67717 16.5484
342 2 4.83532 5.61379 18.3887
165 2 6.21281 4.82699 12.7756
242 3 6.77046 0.925695 12.5818
135 2 8.03133 3.73563 17.864
213 1 6.74845 3.95543 13.2712
163 2 7.83148 3.73711 13.073
164 2 6.40122 3.61723 14.9207
24 4 7.05582 1.25251 16.7313
278 3 8.00384 2.33284 16.0005
27 4 8.1282 0.264155 13.0334
339 1 7.55369 -0.455035 16.2959
173 2 7.72845 5.73636 14.165
367 2 9.69209 5.64579 16.5119
162 2 9.85516 3.94726 12.2733
53 4 9.44313 2.21641 14.898
289 3 10.0643 3.74455 14.6947
276 3 9.04976 1.45407 13.492
168 2 6.59041 5.66434 16.6891
56 4 9.61914 4.60571 18.3303
60 4 11.4812 4.33957 14.3461
254 3 1.78427 0.850352 18.2424
338 2 8.58861 -0.588507 16.7541
186 2 6.24142 8.23015 6.06097
122 2 8.10618 9.4841 3.16811
123 2 7.91272 8.36913 4.82358
199 1 8.61903 9.17808 4.15189
365 2 6.68644 8.45618 1.3174
20 4 12.5886 8.03783 8.90476
148 2 14.4421 11.5649 6.79221
191 1 15.0856 12.4658 8.37459
323 2 8.76938 9.31153 8.81557
4 3 10.145 12.277 1.70447
370 3 9.01339 12.0366 4.12699
313 1 11.1394 9.81372 0.935304
309 4 10.9586 11.6329 0.544167
317 2 10.6572 9.84749 2.04722
331 2 11.3549 11.4206 5.57552
215 1 6.86679 8.07654 0.297591
334 1 10.7173 10.5863 6.00148
332 2 11.1619 9.56335 5.68154
105 2 11.775 7.90173 2.56364
98 2 9.06976 7.1447 4.08543
19 4 8.90198 10.7614 5.15191
124 2 9.6845 8.78044 3.99886
361 2 9.01899 6.76223 1.12041
106 2 10.9348 6.98754 4.26961
310 2 12.2731 9.71271 0.94455
40 4 13.9454 9.54858 4.57201
146 2 12.4846 9.04318 3.76369
358 2 14.0626 11.0244 1.13259
147 2 13.8167 9.63603 6.40671
201 1 14.497 12.0112 1.06071
23 4 15.1016 12.1605 2.95988
88 2 14.7944 10.8637 9.15991
311 2 12.6301 12.2845 0.529616
221 1 6.86379 7.18292 6.07649
301 3 7.79297 10.8653 6.27884
64 4 6.94618 9.3513 8.65609
185 2 7.64058 8.39813 7.27128
235 3 12.0231 11.9574 8.1745
21 4 10.9904 10.6791 7.76954
234 3 11.6242 9.34402 8.27644
112 2 9.23308 10.9258 8.52497
256 3 4.66502 6.03506 14.491
58 4 5.64174 7.0859 10.7195
297 3 6.09969 8.41676 9.53947
324 2 7.85236 10.198 10.7256
325 1 7.88194 10.6847 9.66803
292 3 6.95287 6.84925 11.5149
110 2 8.42063 12.5914 9.81558
75 2 11.2965 12.0077 10.5408
22 4 12.0926 11.4527 11.8957
232 3 11.6654 7.1106 9.90857
291 3 9.73347 7.42093 11.8232
15 4 11.1233 6.82724 11.3516
264 3 13.2333 10.5342 11.3243
117 2 12.8682 8.15489 12.1444
100 2 14.0391 12.5457 9.9307
364 2 11.258 6.49444 17.8996
97 2 6.23173 6.84324 18.0104
128 2 14.6345 11.9933 18.1437
322 2 7.03851 11.4997 9.43171
177 2 6.84466 9.60171 11.9289
61 4 8.28279 7.44748 12.3731
218 1 7.79036 9.30853 12.5461
174 2 7.7798 7.46721 14.9382
176 2 7.54081 9.22204 13.6773
63 4 6.8809 9.20583 17.5277
306 3 5.85524 8.90253 16.2928
217 1 8.26887 6.73638 14.239
169 2 8.30007 7.11908 18.1741
197 1 12.2264 7.49181 12.8607
8 4 9.92576 12.2194 13.7059
126 2 11.1788 8.73974 15.8799
236 3 10.9897 10.9662 12.957
315 3 10.5785 11.0372 17.2089
314 4 9.51758 10.385 16.1393
96 2 11.584 8.05976 13.7195
316 3 8.841 11.5661 14.6723
200 1 10.3575 9.05031 15.1439
318 2 10.684 9.78293 14.195
175 2 9.33711 6.56615 14.5029
178 2 8.66715 10.0676 12.4761
362 1 10.1728 6.51015 17.719
125 2 9.57853 8.15391 14.8073
363 2 9.84602 7.54472 17.4649
295 3 8.32191 9.67662 16.8559
116 2 11.352 6.06659 14.4724
336 2 13.8201 12.1182 16.7557
312 2 10.8358 8.58136 18.361
118 2 12.5787 6.47631 13.0922
319 2 14.7406 12.5893 14.4995
47 4 9.8349 1.33943 3.99042
68 2 17.0079 0.18021 7.37481
280 3 10.4561 2.44379 2.90574
273 3 10.9336 0.871865 5.07298
55 4 11.4751 3.51528 2.17191
281 3 11.9769 4.77572 3.27318
350 2 11.4101 1.33625 0.652366
35 4 20.0192 5.61617 5.88687
7 4 16.7282 1.74122 6.669
166 2 13.7095 3.37444 1.48024
11 4 16.1203 4.53665 2.65215
225 3 15.3892 3.34248 3.42035
226 3 15.1747 5.37029 1.62074
223 3 16.0307 1.57726 5.23893
5 4 14.9725 1.99241 4.1113
89 2 15.3485 0.635546 2.97305
51 4 12.5313 1.63161 5.6715
214 1 12.8616 2.53808 1.40978
272 3 13.5001 1.64657 4.43469
349 2 14.2364 0.608397 0.897111
351 1 15.0793 0.0774596 1.45051
360 2 12.923 1.64358 2.19379
49 4 13.6496 -0.294273 7.96821
348 2 15.9966 -0.0783373 0.7977
2 2 16.859 -0.0416595 2.31263
70 2 17.2831 3.71917 1.58868
244 3 16.9921 5.55127 3.4609
274 3 13.0737 0.728289 6.87667
209 1 18.1643 2.42943 0.536814
228 3 13.3749 6.22055 5.25484
12 4 12.382 6.09679 3.97386
284 3 12.1436 3.04696 6.25476
283 3 11.0163 3.34197 8.78141
57 4 11.1789 3.92665 7.2405
229 3 14.8523 5.2251 7.32237
227 3 16.102 2.83212 7.57262
14 4 15.3403 4.08313 8.30526
72 2 13.3044 3.51793 9.04133
167 2 12.7182 2.24334 0.324922
269 3 8.99502 0.0182575 3.51353
347 2 10.0516 -0.0836457 6.23412
359 1 10.8568 0.108447 18.2558
329 2 16.7662 0.659795 16.2362
345 2 10.2331 0.410529 10.2556
50 4 10.7279 2.60251 10.2019
288 3 14.102 3.43909 9.66198
91 2 14.2061 3.35191 11.2938
279 3 11.9057 2.05919 11.2112
355 2 13.93 0.0157601 10.3442