ITEM: TIMESTEP
0
ITEM: NUMBER OF ATOMS
371
ITEM: BOX BOUNDS xy xz yz pp pp pp
4.2379536921030159e-01 2.4206161451652470e+01 7.0376476225697173e+00
-7.6100078109605018e-01 1.3049914374414435e+01 2.7370919829300294e-01
2.4470688386626271e-01 1.8395593116133643e+01 -5.2598640668172791e-01
ITEM: ATOMS id type x y z
130 2 3.84727 0.839633 3.43068
93 2 11.5451 5.56677 6.92216
131 2 2.55694 1.17346 4.89043
202 1 2.76729 1.03806 3.70416
138 2 3.33995 3.77656 5.5202
103 2 3.03262 0.711088 6.60478
32 4 4.1863 4.42315 2.27844
333 2 5.62136 0.406163 6.016
335 2 6.00219 2.13109 5.28834
137 2 4.92936 3.23053 4.88577
245 3 5.28468 3.43014 1.74337
204 1 4.80865 4.20906 4.39353
208 1 5.21439 1.44346 5.78082
136 2 5.83782 4.71128 4.39476
74 2 4.28143 1.31343 5.05273
282 3 10.7479 4.16905 0.606032
132 2 7.45047 2.27596 2.98156
30 4 6.78973 2.91299 1.55718
159 2 7.59507 1.50793 4.59099
203 1 7.77027 4.46656 1.4968
134 2 7.02439 5.26107 1.76505
183 2 8.14995 5.26171 4.0952
102 2 2.30656 2.51443 6.30964
341 2 3.15333 3.90634 3.68188
133 2 8.43415 4.16136 2.46336
303 3 6.91223 6.00493 6.20471
158 2 8.78058 1.47588 7.39615
76 2 8.69698 0.0987795 8.98624
157 2 8.18449 3.41867 4.30844
211 1 8.52092 2.34109 4.68208
59 4 8.88596 2.99203 6.47268
182 2 9.6558 5.42221 5.10117
184 2 9.70035 5.59384 3.25937
220 1 9.10071 5.83517 4.17055
258 3 4.17838 5.99577 2.01835
192 1 2.12791 1.3945 6.88804
104 2 2.17344 1.57831 8.05808
250 3 4.18928 5.674 7.32831
246 3 3.94418 3.53765 8.95111
149 2 4.92184 1.96046 6.75055
237 3 5.57922 1.35089 8.92397
33 4 4.84063 4.89313 8.56774
6 4 6.04579 -0.123168 8.66181
171 2 8.38075 4.39701 7.4824
170 2 7.59484 2.15643 8.60644
81 2 6.43636 4.31516 8.05402
216 1 7.446 2.76361 7.67677
101 2 7.13723 0.0920326 7.08647
172 2 6.553 2.3122 6.99777
287 3 10.6838 5.06741 6.62549
243 3 7.1719 1.99519 0.257816
3 2 2.19124 1.90123 3.08476
85 2 5.0072 6.12894 4.61818
56 4 9.44715 5.05801 0.309967
35 4 3.70699 5.55898 5.69885
10 4 1.90832 0.342713 10.9717
238 3 3.17665 1.27741 10.3613
224 3 2.10092 -0.291839 12.432
26 4 4.38824 2.30747 9.86208
241 3 4.9581 3.00869 11.2622
285 3 5.05018 5.86266 9.74135
343 1 4.85476 5.80819 17.0847
160 2 8.63291 3.09449 11.1931
161 2 9.11116 4.88325 10.8123
212 1 9.51186 3.93976 11.3165
94 2 11.0868 5.07593 11.2191
127 2 5.68941 -0.126328 11.8473
78 2 2.26317 1.64865 16.2384
251 3 2.83133 2.45999 16.0175
340 2 4.35544 4.26092 16.2251
28 4 4.24831 1.56569 15.1847
252 3 4.58015 2.35653 13.8913
36 4 5.53493 5.28824 15.4028
29 4 5.59496 2.68565 12.6015
240 3 5.51963 1.44907 16.2399
239 3 3.75138 0.0660827 14.6509
342 2 4.76606 5.71672 18.1564
319 2 7.66668 -0.176557 14.4397
165 2 5.97567 4.99406 12.7119
242 3 6.71271 1.13766 12.2016
135 2 8.24969 3.67369 17.819
213 1 6.7217 4.08406 13.0239
163 2 7.76622 4.06872 12.377
164 2 6.80407 3.90257 14.6943
24 4 7.09526 1.20487 16.6074
278 3 8.07613 2.15821 15.7612
27 4 8.02803 0.526459 12.8587
339 1 7.52623 -0.47793 16.0297
173 2 7.50699 5.71885 13.8701
367 2 9.78719 5.71708 16.8271
162 2 9.89372 4.04578 12.3885
53 4 9.39125 2.182 14.7537
289 3 10.0041 3.94707 14.7039
276 3 9.12189 1.76363 13.2059
168 2 6.64082 5.90697 16.7369
271 3 9.64712 1.31129 9.69523
60 4 11.3665 4.57427 14.5436
186 2 6.00336 8.13994 5.87061
122 2 8.70858 9.21437 3.39799
123 2 7.91012 8.29899 4.99815
199 1 8.77411 9.04783 4.5518
365 2 6.53539 8.56086 1.40693
20 4 12.6105 8.02975 8.97813
148 2 14.6777 11.5035 6.87702
191 1 15.0768 12.5845 8.36668
1 4 8.945 12.9012 2.86156
4 3 9.87333 12.2967 1.75368
370 3 8.8485 11.8317 4.09181
313 1 10.9611 9.80651 1.34761
309 4 10.9326 11.5217 0.593572
317 2 10.4271 10.103 2.37092
331 2 11.2502 11.6948 5.83123
312 2 10.5728 8.85686 0.803874
334 1 10.8111 10.7525 6.15828
332 2 11.5059 9.8302 5.87333
105 2 11.475 7.90633 2.84985
98 2 8.89849 6.98848 4.27491
19 4 8.84541 10.7282 5.29968
124 2 9.81944 8.71587 4.93337
361 2 9.08605 6.63421 1.39027
106 2 10.7463 6.73022 4.81761
310 2 12.1657 9.76696 1.46196
193 1 12.5007 7.48223 2.74248
146 2 12.3565 8.90783 4.08054
358 2 13.7732 11.0124 0.697625
215 1 6.83487 8.14774 0.382186
201 1 14.4306 11.954 0.795086
23 4 15.0051 12.1575 2.70427
337 2 13.5029 12.9695 2.00784
311 2 12.5205 12.2402 0.730916
221 1 6.54688 7.065 5.80307
301 3 7.72598 10.7437 6.47951
64 4 6.70566 9.25555 8.60728
185 2 7.14213 8.21981 7.23882
235 3 11.8888 12.1245 8.42383
21 4 11.0873 10.7799 7.94132
234 3 11.8916 9.35131 8.41669
112 2 9.43314 10.8656 8.87424
323 2 8.52148 9.11402 8.79718
259 3 14.4119 10.8284 3.71194
147 2 13.7907 9.55138 6.37968
88 2 14.7824 10.8698 9.22455
169 2 8.00492 7.83816 0.280679
256 3 4.85426 6.31822 14.338
58 4 5.55484 7.13934 10.6751
297 3 5.87299 8.33993 9.68691
324 2 7.67471 10.1549 10.7667
325 1 7.80428 10.6252 9.63988
292 3 7.02431 6.72145 11.425
110 2 8.70262 12.3261 9.78887
75 2 11.0302 12.057 10.383
22 4 12.0268 11.6086 11.6985
232 3 11.7084 7.22545 10.003
291 3 9.72646 7.50172 11.8958
15 4 11.1283 6.8383 11.4304
264 3 13.1035 10.5737 11.2717
117 2 13.1029 8.24331 12.2962
100 2 14.1675 12.6143 10.0569
366 2 11.4853 5.99031 16.8609
97 2 6.27605 6.89474 18.027
128 2 14.7322 11.9917 17.9199
268 3 15.6599 12.5481 12.0513
177 2 6.63649 9.49989 11.9494
61 4 8.08672 7.52753 12.4
218 1 7.52887 9.36855 12.6498
174 2 7.33771 7.39303 14.773
176 2 7.29053 9.37055 13.8109
63 4 7.03207 9.25853 17.4569
306 3 5.96204 9.09724 16.1827
217 1 8.06497 6.68232 14.2133
364 2 11.2184 6.67766 18.3202
197 1 12.2963 7.56541 12.7064
8 4 10.0648 12.2396 13.8144
126 2 11.1753 8.52956 15.6395
236 3 11.1022 11.1574 12.9755
315 3 10.6425 10.7972 17.1788
314 4 9.58091 10.2512 16.1655
96 2 11.5964 8.11922 13.5111
316 3 8.84779 11.5665 14.8561
200 1 10.3155 8.91178 15.0326
318 2 10.6803 9.56569 14.1625
175 2 8.99079 6.46633 14.7833
178 2 8.3582 10.0971 12.4475
362 1 10.1278 6.66029 18.1253
125 2 9.50464 8.00158 14.7176
363 2 9.75578 7.74124 17.9481
295 3 8.48623 9.44393 16.9627
116 2 11.2457 6.30861 14.4856
336 2 13.631 12.1404 16.2472
322 2 7.05325 11.4099 9.359
338 2 15.5073 12.5233 16.5367
43 4 14.328 9.89749 10.5662
47 4 9.83795 1.35946 3.85901
68 2 17.0102 0.358962 7.40475
280 3 10.5698 2.48359 2.81193
273 3 10.7993 0.886521 5.12756
55 4 11.5062 3.5133 2.05283
281 3 12.0397 4.8192 3.12503
350 2 11.3999 1.35989 0.554694
254 3 17.6953 1.6005 0.431521
7 4 16.646 1.8758 6.62277
166 2 13.7406 3.10127 1.73697
11 4 16.0694 4.52126 2.73622
225 3 15.1859 3.53124 3.69077
226 3 15.0808 5.35449 1.65485
223 3 16.0486 1.7421 5.18827
5 4 14.9371 2.01225 4.17766
89 2 15.3252 0.929419 2.73118
51 4 12.5457 1.37519 5.68495
214 1 12.8813 2.34275 1.4289
272 3 13.5467 1.32429 4.46171
349 2 14.1794 0.359842 0.490147
351 1 15.0967 0.0433079 1.19693
360 2 12.8799 1.43438 2.05868
167 2 12.8198 2.10087 0.327371
247 3 16.638 4.90552 9.17472
2 2 16.7797 -0.0988612 2.20972
70 2 17.1669 3.51427 1.80214
244 3 17.1753 5.3785 3.47936
274 3 12.9969 0.489838 6.91212
209 1 18.1916 2.63878 0.41196
352 2 15.8921 0.572025 8.8741
12 4 12.2174 6.1255 4.04919
284 3 12.3938 2.86017 6.23624
283 3 11.1254 3.37463 8.7707
57 4 11.3125 3.71896 7.20318
229 3 14.9309 5.29428 7.29369
227 3 16.119 2.95388 7.63344
14 4 15.4799 4.2555 8.35065
72 2 13.4515 3.8546 9.15862
347 2 10.1737 -0.286417 6.15444
348 2 16.0937 -0.100824 0.639171
354 1 14.8458 0.74473 9.27477
269 3 8.89894 0.041505 3.25267
153 2 19.1234 3.91864 1.42881
353 2 14.4869 1.83092 9.25251
359 1 10.7964 0.352529 18.0369
329 2 16.8655 0.40033 15.975
345 2 9.77279 0.644086 10.515
50 4 10.7289 2.66326 10.3758
288 3 14.2949 3.7831 9.78948
91 2 14.3006 3.51464 11.4248
279 3 11.8894 2.3424 11.3414
355 2 14.6317 0.222247 10.3258
69 2 16.106 0.627017 11.1858
141 2 18.0938 3.28162 11.1605
195 1 16.9388 1.47798 11.1589
111 2 16.9991 2.02994 12.2131
34 4 17.4717 5.62073 10.3535
187 2 17.0969 2.10415 10.1863
140 2 19.4879 4.4755 10.7417
205 1 18.5421 4.35483 11.3327
139 2 18.7014 4.67309 12.3968
277 3 10.6794 1.34222 15.4026
48 4 11.4885 0.368573 16.3293
369 1 12.2065 5.47521 16.0039
17 4 15.9745 4.18806 14.7652
231 3 15.3974 5.41158 13.7199
230 3 14.7798 3.02659 15.2458
253 3 16.8798 4.90517 15.8966
54 4 13.0211 2.82935 12.348
326 2 15.8247 0.382821 17.5595
368 2 12.6985 4.48699 16.3997
327 1 16.1051 0.926122 16.5669
92 2 13.7342 1.48993 13.118
330 2 13.3996 5.53323 17.9527
9 4 14.5776 1.40592 15.6383
270 3 13.1659 1.14691 16.5795
275 3 14.5992 0.303965 14.0664
290 3 12.322 3.92 13.3559
37 4 17.814 5.34918 17.0899
328 2 16.4745 2.07259 16.814
115 2 17.7464 3.4334 12.9824
151 2 18.2265 3.90821 17.9313
113 2 16.5649 2.12717 13.7884
114 2 18.0325 2.78555 14.8035
196 1 17.2306 3.03126 13.9583
356 2 9.92483 1.082 17.8862
152 2 19.4448 5.92786 16.7127
357 2 10.4563 -0.610763 18.392
304 3 21.8363 11.8366 7.37509
109 2 13.5879 7.98573 0.482351
66 4 22.6348 10.6654 6.64989
13 4 15.3289 6.56276 0.614679
83 2 14.8793 7.93055 4.10072
84 2 16.0352 9.18264 5.58612
207 1 15.1814 8.53678 5.82053
129 2 15.8261 11.4872 1.20847
344 2 19.886 7.83165 7.50975
31 4 17.831 6.75827 4.0228
257 3 18.4446 7.61903 2.82689
79 2 16.581 7.64935 4.76764
261 3 17.3556 9.77405 0.930866
145 2 17.3941 8.82512 1.14959
42 4 18.7929 8.22047 8.98698
180 2 19.014 10.6012 5.28345
39 4 20.0703 7.64478 2.25376
179 2 19.4984 11.5739 3.75919
219 1 19.3484 10.5296 4.25865
260 3 20.1183 8.42294 0.808121
181 2 18.5764 9.90762 3.70532
371 3 19.9195 11.1809 1.17768
40 4 13.9575 9.42721 4.46936
86 2 18.8687 9.79953 7.01622
293 3 20.9934 8.45054 3.29743
62 4 21.1305 9.96812 4.09286
46 4 21.7221 11.5274 1.48266
294 3 22.0707 11.0911 3.21384
302 3 21.7632 9.71958 5.83719
233 3 13.0834 7.09714 7.76024
80 2 15.5183 7.72927 6.68097
16 4 14.1605 6.54527 6.69421
41 4 19.4382 9.85217 0.311037
150 2 17.0258 10.1936 7.05242
99 2 16.8781 12.1594 8.86522
25 4 16.4214 11.8489 7.16258
346 1 18.4185 8.79131 7.03693
87 2 17.0936 8.66464 7.98134
77 2 18.1265 8.38595 6.00942
249 3 18.8285 6.34252 5.20577
49 4 20.9142 12.8118 8.18568
228 3 13.3383 6.3279 5.08974
296 3 22.6667 10.7931 0.362572
107 2 12.6213 6.70847 1.87828
71 2 13.2685 8.28904 2.54497
299 3 19.9254 12.0128 9.27759
120 2 13.8667 6.78919 11.781
263 3 14.135 8.50474 9.9681
52 4 22.1229 12.0944 14.2783
266 3 15.6005 10.0759 11.5255
248 3 16.5948 6.26155 11.6115
118 2 12.6929 6.44109 13.1136
300 3 17.8742 11.5952 11.1031
45 4 16.6266 11.2764 12.0736
262 3 18.2407 6.88397 9.68514
65 4 19.3089 11.0407 10.3929
298 3 19.0776 9.58344 9.76279
222 1 20.5938 10.9227 11.7963
190 2 20.2393 10.0553 12.4069
286 3 21.0877 7.53469 11.8708
189 2 21.56 10.7715 11.2211
307 3 21.3003 11.3117 15.2857
265 3 20.5166 8.90463 14.4057
90 2 22.2731 11.1454 12.8624
108 2 14.4013 6.73971 16.7838
18 4 15.3268 6.63072 12.6714
73 2 15.9554 7.95327 14.7258
198 1 15.7526 8.15357 13.6404
119 2 14.8302 8.77131 13.3935
156 2 15.3466 9.84285 15.7615
82 2 20.7968 6.81218 16.7868
67 4 20.8907 9.73066 15.7204
155 2 16.4198 10.562 17.2515
144 2 18.1351 7.78334 13.8491
255 3 17.0141 6.37476 17.9984
121 2 16.7115 8.47066 13.0036
44 4 17.4579 10.9798 15.1847
154 2 17.7296 9.10179 15.6267
210 1 16.3889 10.0194 16.1693
267 3 17.1244 11.0877 13.6727
305 3 18.2603 12.1599 15.9375
143 2 18.6007 7.36188 12.1041
188 2 20.6926 11.9155 12.4373
206 1 18.7437 7.12673 13.17
308 3 19.7679 9.42928 16.8453
38 4 20.5498 7.54382 13.4876
320 2 17.5975 9.24429 17.9285
194 1 14.114 6.44685 17.8885
95 2 12.9327 6.2246 15.5453
321 2 23.8281 12.138 14.6352
142 2 18.6016 6.0282 13.4137
ITEM: TIMESTEP
100
ITEM: NUMBER OF ATOMS
371
ITEM: BOX BOUNDS xy xz yz pp pp pp
4.2379536921030159e-01 2.4212803916026882e+01 7.0442900869441321e+00
-7.6100078109605018e-01 1.3049914374414435e+01 2.7370919829300294e-01
2.4470688386626271e-01 1.8395593116133643e+01 -5.2598640668172791e-01
ITEM: ATOMS id type x y z
130 2 3.82915 0.87364 3.41647
93 2 11.4723 5.67363 6.90374
131 2 2.52041 1.20084 4.89172
202 1 2.75728 1.13371 3.73301
138 2 3.23442 3.84257 5.41021
103 2 2.41192 0.611571 6.43002
32 4 4.07616 4.3918 2.35737
333 2 5.79231 0.567725 5.85694
335 2 5.89303 2.31191 5.35604
137 2 4.85071 3.2216 4.83981
245 3 5.36127 3.51602 1.91946
204 1 4.75541 4.23395 4.26997
208 1 5.21919 1.50506 5.77972
136 2 5.79471 4.58045 3.98393
74 2 4.33774 1.29767 5.02125
282 3 10.6741 4.23791 0.652432
132 2 7.321 2.17126 3.24571
30 4 6.80088 2.87694 1.68024
159 2 7.67974 1.44246 5.03761
203 1 7.76734 4.43423 1.5296
134 2 6.91548 5.15662 1.84906
183 2 8.18214 5.37833 4.05936
102 2 2.25083 2.58443 6.15571
341 2 3.04895 3.6782 3.70692
133 2 8.54332 4.14028 2.4123
303 3 7.13113 5.97732 6.10153
158 2 8.79699 1.4009 7.45861
76 2 8.58954 0.107447 8.83549
157 2 7.93506 3.49257 4.68727
211 1 8.43143 2.29143 4.78228
59 4 8.83377 2.947 6.5564
182 2 9.69519 5.56962 5.132
184 2 9.87363 5.63582 3.25515
220 1 9.1641 5.8998 4.13728
258 3 4.15663 5.98829 2.12424
192 1 2.11016 1.587 6.90157
104 2 2.6009 1.7343 7.91022
250 3 4.11055 5.53488 7.31562
246 3 3.92037 3.60512 8.65415
149 2 4.75294 1.80368 6.80083
237 3 5.40743 1.30953 9.0898
33 4 4.82291 4.89815 8.5335
6 4 5.93751 -0.0736855 8.46265
171 2 8.05452 4.35986 7.49567
170 2 7.63691 2.07876 8.6487
81 2 6.4241 4.26819 8.12387
216 1 7.42773 2.68853 7.71714
101 2 7.20252 0.325765 7.01032
172 2 6.54838 2.28188 7.02915
287 3 10.6366 5.08739 6.67803
337 2 6.66435 -0.0528238 2.08529
3 2 2.27124 1.94829 3.09058
85 2 4.93951 6.08779 4.71689
342 2 4.25616 5.99604 0.300967
243 3 6.99034 2.06778 0.260263
10 4 1.96903 0.299325 10.8432
238 3 3.16703 1.2215 10.3008
224 3 2.32429 -0.406218 12.2785
26 4 4.36165 2.33703 9.83566
241 3 4.99684 3.04952 11.2326
285 3 4.96528 5.87088 9.80073
343 1 4.69412 5.63909 17.3204
160 2 8.61989 3.04515 11.0781
161 2 9.19501 4.77864 10.8182
212 1 9.49544 3.79595 11.1426
94 2 10.9279 5.07667 11.6644
127 2 5.71753 -0.189999 11.9003
78 2 2.42088 1.88759 16.2782
251 3 2.83005 2.59871 15.6621
340 2 3.80619 4.34324 16.4692
28 4 4.23752 1.4404 15.1096
252 3 4.59957 2.4947 13.8812
36 4 5.23936 5.04076 15.5437
29 4 5.61284 2.67426 12.6261
240 3 5.52171 1.36123 16.1305
239 3 3.77635 -0.061087 14.5455
366 2 11.4418 5.88136 16.821
319 2 7.80214 -0.328424 14.589
165 2 6.52034 4.82839 12.8098
242 3 6.69977 1.04715 12.4351
135 2 8.16072 3.59355 17.8247
213 1 6.82842 3.85762 13.3353
163 2 7.90064 3.54186 13.025
164 2 6.32345 3.62707 15.0154
24 4 7.02891 1.27718 16.5981
278 3 8.05438 2.16345 15.731
27 4 8.08114 0.394633 13.0041
339 1 7.66632 -0.416848 16.2081
173 2 7.74315 5.5421 13.8545
367 2 9.66354 5.69302 16.7988
162 2 9.81652 3.78664 12.2236
53 4 9.45746 2.25599 14.8424
289 3 9.966 3.9231 14.5837
276 3 9.17349 1.61651 13.1981
168 2 6.4185 5.35258 17.0081
271 3 9.51546 1.20122 9.75495
60 4 11.4111 4.42033 14.3759
356 2 9.83018 0.961849 17.895
56 4 9.64847 4.55195 18.336
338 2 8.61033 -0.606175 16.7502
254 3 1.7267 0.910462 18.3834
186 2 6.17226 8.11336 5.89525
122 2 8.44651 9.3226 3.31707
123 2 8.05908 8.33302 4.97296
199 1 8.78564 9.11693 4.37951
365 2 6.63981 8.28111 1.36731
20 4 12.6535 7.99883 9.10308
148 2 14.5806 11.7127 6.6198
191 1 15.0139 12.6459 8.20493
1 4 9.02054 12.9595 2.82235
4 3 9.99799 12.2519 1.72614
370 3 8.72837 11.9422 4.00928
313 1 11.1932 9.90052 1.26138
309 4 10.9327 11.6245 0.59947
317 2 10.894 10.0844 2.35221
331 2 11.0073 11.9981 5.84949
312 2 10.6769 8.89054 0.821429
334 1 10.6251 10.967 6.14606
332 2 11.3531 10.1298 5.70445
105 2 11.5067 7.76702 2.78684
98 2 8.98151 7.02581 4.13154
19 4 8.87734 10.8177 5.25366
124 2 9.87925 8.79911 4.38106
361 2 9.03086 6.64584 1.38502
106 2 10.9019 6.7883 4.46954
310 2 12.3689 9.86355 1.06733
193 1 12.5928 7.38073 2.67663
146 2 12.4336 8.83592 3.98895
358 2 13.7213 11.0384 1.00898
215 1 6.83233 8.06459 0.246485
201 1 14.3355 12.0283 0.964845
23 4 15.024 12.2073 2.7898
88 2 14.5698 11.0361 9.12549
311 2 12.4718 12.4591 0.506203
221 1 6.78076 7.10581 5.96034
301 3 7.77172 10.8384 6.34503
64 4 6.87454 9.38942 8.57771
185 2 7.45852 8.32963 7.27627
235 3 11.9859 12.0575 8.20704
21 4 10.9947 10.8125 7.88984
234 3 11.7976 9.4104 8.40686
112 2 9.42019 10.9985 8.93118
323 2 8.66653 9.32536 8.75145
259 3 14.464 10.81 3.79319
147 2 13.8723 9.73071 6.34304
40 4 13.9632 9.52224 4.52006
256 3 4.96869 6.23842 14.405
58 4 5.72174 7.17411 10.7066
297 3 6.183 8.45814 9.65974
324 2 7.84133 10.3884 10.8306
325 1 7.81053 10.6926 9.68967
292 3 7.1151 6.71127 11.4539
110 2 8.42475 12.4792 9.58038
75 2 11.0392 11.8061 10.413
22 4 12.0346 11.5692 11.7837
232 3 11.6672 7.2188 10.1289
291 3 9.55851 7.35671 11.7998
15 4 11.0627 6.77707 11.4807
264 3 13.1825 10.6025 11.4135
117 2 12.796 8.35297 12.2921
100 2 14.0355 12.609 9.82039
43 4 14.3499 9.97386 10.572
97 2 6.17171 6.87672 17.9346
128 2 14.5206 12.0241 18.041
268 3 15.6426 12.6395 11.9094
177 2 6.84092 9.73039 12.1952
61 4 8.08183 7.53685 12.4129
218 1 7.79909 9.48656 12.7187
174 2 7.76838 7.07486 14.8936
176 2 7.67221 9.72946 13.8313
63 4 6.9709 9.26251 17.6257
306 3 5.902 8.94663 16.2354
217 1 8.26155 6.60321 14.0747
169 2 8.20303 7.15892 18.2458
197 1 12.1421 7.60492 12.8208
8 4 9.98453 12.337 13.6615
126 2 11.1733 8.47638 15.9446
236 3 11.144 11.104 13.0731
315 3 10.6873 10.9193 17.1767
314 4 9.54826 10.3248 16.1294
96 2 11.466 8.04919 13.72
316 3 8.7618 11.4362 14.7095
200 1 10.3528 8.85733 15.2628
318 2 10.8096 9.60133 14.3621
175 2 9.41492 6.47323 14.2175
178 2 8.66618 10.0237 12.2266
362 1 10.1574 6.64297 18.1997
125 2 9.57671 7.92494 14.8246
363 2 9.82998 7.67914 17.9505
295 3 8.38756 9.63631 16.9004
116 2 11.3285 6.13024 14.3543
336 2 13.6944 12.3154 16.5801
322 2 6.919 11.4811 9.53121
118 2 12.6219 6.61906 13.1554
364 2 11.3104 6.54871 18.3581
47 4 9.78561 1.32384 3.93139
68 2 17.1068 0.353033 7.29377
280 3 10.4468 2.36801 2.86918
273 3 10.9353 0.867405 5.18257
55 4 11.3493 3.52082 2.06396
281 3 12.0341 4.6982 3.1313
350 2 11.3095 1.48164 0.5764
153 2 19.0099 3.80667 1.43456
7 4 16.6573 1.88372 6.64249
166 2 13.608 3.29296 1.64239
11 4 16.0418 4.47321 2.71972
225 3 15.0811 3.46972 3.60046
226 3 15.2425 5.38875 1.66643
223 3 16.1884 1.64186 5.18541
5 4 15.0341 1.95634 4.07749
89 2 15.4015 0.824784 2.69003
51 4 12.611 1.54942 5.71277
214 1 12.7933 2.53061 1.38291
272 3 13.5857 1.57259 4.47837
349 2 14.2277 0.588909 0.762661
351 1 15.1328 0.118071 1.28785
360 2 12.716 1.68485 2.24371
49 4 13.7759 -0.396608 8.01738
249 3 18.7227 6.25674 5.28664
2 2 16.9401 0.121918 2.0991
70 2 17.0107 3.31308 1.79739
244 3 17.0166 5.54216 3.42939
274 3 13.0524 0.61902 6.84812
209 1 18.1881 2.53932 0.442366
352 2 15.7568 0.394921 9.06531
12 4 12.3934 6.02563 3.97047
284 3 12.3496 2.98562 6.24141
283 3 11.2 3.42728 8.79981
57 4 11.3606 3.8168 7.23087
229 3 14.922 5.20054 7.2297
227 3 16 2.76493 7.73891
14 4 15.3944 4.14284 8.31443
72 2 13.3246 3.7697 9.14477
347 2 10.0616 -0.341466 5.93456
348 2 16.032 0.00448583 0.672584
35 4 20.0649 5.57146 5.76756
269 3 8.92445 0.0777649 3.32928
359 1 10.7378 0.360122 18.0939
329 2 16.7866 0.706245 16.0233
345 2 10.0256 0.484718 10.2956
50 4 10.7383 2.59319 10.2446
288 3 14.1766 3.55413 9.69307
91 2 14.1602 3.48119 11.3215
279 3 11.9477 2.1445 11.2894
355 2 14.4092 0.0665738 10.2806
69 2 16.2432 0.95826 10.9736
141 2 18.0753 3.52044 11.1176
195 1 17.1904 1.67031 11.0346
111 2 17.2239 2.28886 12.1008
34 4 17.298 5.85882 10.3834
187 2 17.2618 2.3478 10.0577
140 2 19.3472 4.7387 10.3147
205 1 18.5738 4.62584 11.1388
139 2 19.0213 4.9483 12.1496
277 3 10.5714 1.37203 15.6441
48 4 11.4611 0.301658 16.3936
152 2 19.3839 5.93088 16.5699
17 4 15.8847 4.16233 14.8363
231 3 15.1906 5.39636 13.9117
230 3 14.7716 3.06115 15.2884
253 3 16.9021 4.74062 16.0958
54 4 12.9375 2.77028 12.2393
326 2 15.7408 0.542839 17.6564
368 2 12.6769 4.36032 16.2948
327 1 15.9984 1.16443 16.6644
92 2 13.7359 1.4599 13.0497
330 2 13.7249 5.5811 17.9879
9 4 14.4593 1.48351 15.7133
270 3 13.1656 1.05447 16.6879
275 3 14.5459 0.425643 14.0717
290 3 12.4342 3.83982 13.2816
37 4 17.8913 5.22806 17.1953
328 2 16.2938 2.27699 16.9608
115 2 17.6452 3.91659 12.8177
151 2 18.7059 3.8671 18.0217
113 2 16.502 2.38485 13.5567
114 2 18.0519 3.01865 14.529
196 1 17.2272 3.33394 13.7902
142 2 18.7868 5.82709 13.1735
353 2 14.5012 1.79615 9.49049
354 1 14.6793 0.608036 9.36534
369 1 12.1549 5.35615 15.9497
247 3 16.4761 4.89672 9.32577
167 2 13.1672 1.50581 18.3879
304 3 22.1201 11.9928 7.33323
71 2 13.4064 8.21947 2.61858
66 4 22.6533 10.7674 6.5776
13 4 15.5926 6.61166 0.700082
83 2 14.8963 7.89138 4.19077
84 2 16.2242 9.32902 5.68243
207 1 15.3046 8.6309 5.80569
129 2 15.9058 11.5498 1.07729
344 2 19.6549 7.90066 7.41792
31 4 17.8546 6.73237 4.07381
257 3 18.61 7.64366 2.99674
79 2 16.6879 7.83336 4.75893
261 3 17.3638 9.6716 0.94674
145 2 17.5443 8.76555 1.21485
42 4 18.5669 8.31299 8.92679
180 2 19.348 11.0597 5.33344
39 4 20.2176 7.71367 2.34968
179 2 19.6831 11.5685 3.586
219 1 19.4972 10.7036 4.28178
260 3 20.0521 8.47635 0.928792
181 2 18.7001 10.0615 3.84291
371 3 19.957 11.265 1.08852
107 2 12.6531 6.63117 1.73135
86 2 18.8926 9.86179 6.84278
293 3 21.2474 8.47902 3.40461
62 4 21.2497 9.88855 4.12608
46 4 21.6742 11.6128 1.58432
294 3 21.9128 11.1534 3.26489
302 3 21.8038 9.6981 6.003
233 3 13.2356 7.16307 7.84429
80 2 15.5842 7.728 6.48955
16 4 14.2016 6.55085 6.73136
41 4 19.4632 9.83717 0.331153
150 2 17.1557 10.2519 6.94723
99 2 16.895 12.2734 8.56321
25 4 16.3031 11.8359 6.99545
346 1 18.4393 8.79275 6.87179
87 2 16.9977 8.74235 7.91476
77 2 18.2463 8.51214 5.81334
296 3 22.6532 10.8243 0.562207
299 3 19.8717 12.0244 9.01906
228 3 13.4097 6.30175 5.20521
120 2 13.806 6.98654 12.0116
263 3 13.9928 8.52805 10.0558
52 4 22.0721 12.1888 14.2487
266 3 15.6595 9.97059 11.4161
248 3 16.3601 6.22473 11.6468
95 2 12.9392 6.11152 15.5686
300 3 17.9266 11.512 11.0506
45 4 16.5923 11.2766 12.0288
262 3 18.1298 6.93587 9.59781
65 4 19.3209 10.9937 10.2266
298 3 19.0914 9.52705 9.7256
222 1 20.7341 11.0768 11.5341
190 2 20.5544 10.1282 12.1338
286 3 21.3015 7.61434 11.8946
189 2 21.5884 10.8754 10.7784
307 3 21.2699 11.246 15.2445
265 3 20.5504 8.81553 14.2319
90 2 22.2924 11.495 12.6897
108 2 14.7664 6.54766 16.6975
18 4 15.3183 6.50127 12.8003
73 2 15.5628 8.09847 14.8204
198 1 15.5589 8.1047 13.7078
119 2 14.7638 8.82939 13.3015
156 2 15.2963 10.0811 15.2223
82 2 20.8587 6.6704 17.0435
67 4 21.0964 9.68136 15.6976
155 2 15.9196 10.7124 16.9546
144 2 18.3071 7.39393 14.1753
255 3 17.2562 6.31238 18.155
121 2 16.6155 8.29722 13.2271
44 4 17.5043 10.7324 15.0806
154 2 17.3418 9.01192 16.0769
210 1 16.1321 10.1474 16.0229
267 3 16.9941 10.8706 13.642
305 3 18.1868 11.9533 15.9099
143 2 18.5006 7.42427 12.3769
188 2 20.7741 12.0483 12.1499
206 1 18.8651 6.97661 13.2828
308 3 19.9414 9.45733 16.8778
38 4 20.6708 7.48436 13.4394
320 2 17.6397 9.05561 17.9175
194 1 14.4951 6.42661 17.8129
321 2 23.8049 12.1068 14.4268
109 2 14.1214 7.45407 18.3195
357 2 17.6058 12.4943 18.345
ITEM: TIMESTEP
200
ITEM: NUMBER OF ATOMS
371
ITEM: BOX BOUNDS xy xz yz pp pp pp
4.2379536921030159e-01 2.4219446380401298e+01 7.0509325513185459e+00
-7.6100078109605018e-01 1.3049914374414435e+01 2.7370919829300294e-01
2.4470688386626271e-01 1.8395593116133643e+01 -5.2598640668172791e-01
ITEM: ATOMS id type x y z
130 2 3.66384 1.33925 3.27918
93 2 11.3088 5.87554 7.04451
131 2 2.41699 1.29486 4.82619
202 1 2.58142 1.33112 3.62983
138 2 3.37073 3.91813 5.60852
103 2 2.26127 0.285197 6.17822
32 4 4.15736 4.39896 2.34333
333 2 5.09204 0.465127 6.21342
335 2 6.11393 1.75764 5.16876
137 2 4.90116 3.37115 4.92096
245 3 5.36808 3.53875 1.8956
204 1 4.74923 4.42927 4.30946
208 1 5.05605 1.51267 5.73216
136 2 5.74501 4.86341 4.02994
74 2 4.18487 1.49059 4.95642
282 3 10.5504 4.33392 0.815938
132 2 7.562 2.42542 3.16336
30 4 6.83156 2.97631 1.68681
159 2 7.43984 2.12468 4.83502
203 1 7.72646 4.6047 1.52454
134 2 6.87089 5.26172 1.8059
183 2 8.19442 5.5089 3.92269
102 2 2.46028 2.26763 6.31572
341 2 3.03126 3.86125 3.77716
133 2 8.51422 4.28241 2.40305
303 3 7.13578 6.02526 5.96422
158 2 8.54569 1.42028 7.59704
76 2 8.73102 -0.0400944 8.91548
157 2 8.99137 3.63723 4.55408
211 1 8.55612 2.36343 4.82423
59 4 8.88389 2.96801 6.63863
182 2 9.70346 5.60068 5.09939
184 2 9.87318 5.62344 3.25401
220 1 9.23827 6.00068 4.07369
258 3 4.09139 6.01953 1.98583
192 1 2.0963 1.19185 6.84068
104 2 2.46162 1.07476 7.91319
250 3 4.19765 5.7551 7.40601
246 3 4.00305 3.74041 8.9278
149 2 4.92647 2.2976 6.55251
237 3 5.49437 1.30966 8.92122
33 4 4.85402 5.05651 8.60998
6 4 5.97874 -0.185357 8.59863
171 2 8.09589 4.41951 7.5514
170 2 7.44194 2.33738 8.64927
81 2 6.48622 4.51975 8.10906
216 1 7.27705 2.85319 7.6325
101 2 7.12 0.0664146 7.11233
172 2 6.43848 2.36962 6.89421
287 3 10.4596 5.31829 6.7385
153 2 2.70104 3.65029 1.53176
3 2 1.86654 2.0523 3.08749
85 2 4.97579 6.21728 4.83157
1 4 2.00197 -0.286246 2.89286
243 3 7.01369 1.95643 0.397177
337 2 6.58555 -0.20107 2.24154
10 4 1.97473 0.532644 10.8908
238 3 3.10637 1.4722 10.2325
224 3 2.21139 -0.14296 12.2547
26 4 4.41262 2.30422 9.77292
241 3 5.29717 2.83192 11.1496
285 3 5.11912 5.9617 9.83386
343 1 4.85124 5.66849 17.2154
160 2 8.65541 3.03997 11.0879
161 2 9.38767 4.81791 10.6324
212 1 9.56623 3.79897 11.2016
94 2 11.0354 5.06072 11.237
127 2 5.77678 -0.376266 12.4163
78 2 2.15721 1.93578 16.1318
251 3 2.66612 2.6329 15.6273
340 2 4.05292 4.12078 16.6322
28 4 4.08282 1.48734 15.0535
252 3 4.4936 2.33169 13.6751
36 4 5.28218 4.95597 15.5435
29 4 5.6872 2.54389 12.6002
240 3 5.40444 1.46063 16.0801
239 3 3.71108 0.0290568 14.462
366 2 11.6188 5.67519 16.5487
342 2 4.84751 5.61591 18.3905
165 2 6.22141 4.82875 12.7772
242 3 6.77319 0.92637 12.5833
135 2 8.04046 3.73575 17.8641
213 1 6.75548 3.95696 13.2703
163 2 7.83818 3.73812 13.0711
164 2 6.41241 3.61607 14.923
24 4 7.06102 1.25287 16.731
278 3 8.00989 2.33335 16.0004
27 4 8.13046 0.264156 13.0336
339 1 7.55618 -0.454915 16.2955
173 2 7.73948 5.73606 14.1633
367 2 9.70537 5.65196 16.5135
162 2 9.86231 3.95188 12.272
53 4 9.44898 2.21689 14.8984
289 3 10.0726 3.74454 14.6947
276 3 9.05311 1.4546 13.4912
168 2 6.60411 5.66316 16.6861
56 4 9.62936 4.60486 18.331
60 4 11.49 4.33876 14.3457
254 3 1.78643 0.850981 18.2423
338 2 8.59178 -0.589569 16.7535
186 2 6.26074 8.23096 6.05959
122 2 8.12707 9.4853 3.16812
123 2 7.93071 8.3694 4.82239
199 1 8.63906 9.17823 4.15107
365 2 6.70061 8.45545 1.3178
20 4 12.6064 8.03887 8.90547
148 2 14.4676 11.5644 6.7916
191 1 15.1115 12.4648 8.37566
323 2 8.78905 9.31067 8.81601
4 3 10.1704 12.2764 1.70468
370 3 9.03784 12.0367 4.1272
313 1 11.1599 9.81238 0.931609
309 4 10.983 11.6326 0.544933
317 2 10.6706 9.84026 2.03814
331 2 11.3792 11.42 5.57472
40 4 13.9643 9.54942 4.57179
334 1 10.7393 10.5856 6.00176
332 2 11.1822 9.56268 5.68145
105 2 11.7906 7.90231 2.56526
98 2 9.08617 7.14517 4.08437
19 4 8.92433 10.761 5.15168
124 2 9.70412 8.7801 3.99751
361 2 9.02828 6.7578 1.12299
106 2 10.9475 6.98827 4.26854
310 2 12.2909 9.71762 0.949343
88 2 14.8178 10.8607 9.15955
146 2 12.5045 9.0453 3.76167
358 2 14.0859 11.0257 1.1338
147 2 13.8372 9.63843 6.40718
201 1 14.5214 12.0121 1.06132
23 4 15.1269 12.1608 2.96077
215 1 6.88279 8.07529 0.298058
311 2 12.6528 12.2851 0.529136
221 1 6.88075 7.18288 6.07562
301 3 7.81513 10.8647 6.27863
64 4 6.96654 9.35185 8.65689
185 2 7.65548 8.40246 7.26603
235 3 12.0482 11.9581 8.175
21 4 11.0126 10.6795 7.76993
234 3 11.6439 9.34578 8.27712
112 2 9.25456 10.9258 8.52396
256 3 4.67857 6.03523 14.491
58 4 5.65708 7.08626 10.7193
297 3 6.11848 8.41718 9.53948
324 2 7.87221 10.1994 10.7263
325 1 7.90385 10.6852 9.66832
292 3 6.96774 6.8487 11.5147
110 2 8.44451 12.5897 9.81476
75 2 11.3218 12.0112 10.5422
22 4 12.1179 11.4536 11.8966
232 3 11.6821 7.11222 9.90843
291 3 9.74913 7.41958 11.8228
15 4 11.1379 6.82632 11.3506
264 3 13.2568 10.5357 11.3231
117 2 12.8838 8.15531 12.1459
100 2 14.0653 12.5462 9.93111
364 2 11.2732 6.48807 17.9027
97 2 6.2447 6.84118 18.0094
128 2 14.6605 11.994 18.1431
312 2 10.8655 8.57831 18.3505
177 2 6.86306 9.60103 11.9272
61 4 8.29868 7.44737 12.3733
218 1 7.80832 9.3084 12.5454
174 2 7.79622 7.46613 14.9383
176 2 7.558 9.22229 13.677
63 4 6.90089 9.20583 17.5274
306 3 5.87537 8.90205 16.2909
217 1 8.28323 6.73473 14.2388
169 2 8.31675 7.11826 18.1761
197 1 12.2418 7.49013 12.8612
8 4 9.95188 12.22 13.7065
126 2 11.1979 8.73952 15.8765
236 3 11.0137 10.9664 12.9577
315 3 10.6015 11.0358 17.2086
314 4 9.53878 10.3843 16.139
96 2 11.5994 8.05603 13.7212
316 3 8.86672 11.5674 14.6726
200 1 10.3751 9.04869 15.1429
318 2 10.6994 9.78295 14.1929
175 2 9.35099 6.56213 14.5002
178 2 8.68593 10.0688 12.4747
362 1 10.1876 6.50856 17.7215
125 2 9.59699 8.15327 14.809
363 2 9.86492 7.54581 17.4735
295 3 8.34222 9.67633 16.8566
116 2 11.366 6.06674 14.4708
336 2 13.8488 12.1188 16.7549
322 2 7.06349 11.5011 9.43077
118 2 12.5894 6.47162 13.0892
319 2 14.7703 12.5895 14.4999
47 4 9.83794 1.34039 3.98948
68 2 17.0124 0.179624 7.37352
280 3 10.462 2.44394 2.90615
273 3 10.9385 0.871141 5.07235
55 4 11.4832 3.51503 2.17282
281 3 11.9875 4.77496 3.27257
350 2 11.4098 1.33198 0.647382
35 4 20.0311 5.61592 5.88669
7 4 16.7334 1.74073 6.66874
166 2 13.7162 3.3735 1.47861
11 4 16.1303 4.53668 2.65274
225 3 15.3958 3.34355 3.42126
226 3 15.1861 5.37051 1.62093
223 3 16.0346 1.57697 5.23925
5 4 14.9774 1.99316 4.11136
89 2 15.3523 0.636859 2.97058
51 4 12.5353 1.63153 5.67121
214 1 12.8665 2.53612 1.40884
272 3 13.5046 1.64705 4.43421
349 2 14.2383 0.608413 0.89662
351 1 15.0795 0.0768673 1.45077
360 2 12.9282 1.64272 2.19478
49 4 13.6489 -0.294077 7.96888
348 2 15.9981 -0.0826943 0.797399
2 2 16.858 -0.0402123 2.31431
70 2 17.2934 3.71905 1.59016
244 3 17.0043 5.55175 3.46066
274 3 13.0757 0.728009 6.87675
209 1 18.1723 2.42856 0.537241
228 3 13.3875 6.22012 5.25412
12 4 12.3942 6.09636 3.97348
284 3 12.1491 3.04717 6.25465
283 3 11.0232 3.3412 8.78144
57 4 11.1861 3.92664 7.24077
229 3 14.8641 5.22471 7.32181
227 3 16.1089 2.8311 7.57351
14 4 15.3499 4.08338 8.30585
72 2 13.3127 3.52154 9.04217
269 3 8.99684 0.0180124 3.51362
167 2 12.7243 2.23808 0.323877
347 2 10.0454 -0.0881591 6.23553
359 1 10.8599 0.108779 18.2546
329 2 16.7685 0.656983 16.2358
345 2 10.2352 0.410496 10.2538
50 4 10.7338 2.60181 10.2016
288 3 14.1099 3.43942 9.66199
91 2 14.2129 3.35167 11.2939
279 3 11.9113 2.05909 11.2105
355 2 13.9288 0.0164102 10.3445