ITEM: TIMESTEP
0
ITEM: NUMBER OF ATOMS
371
ITEM: BOX BOUNDS xy xz yz pp pp pp
4.2379536921030159e-01 2.4206161451652470e+01 7.0376476225697173e+00
-7.6100078109605018e-01 1.3049914374414435e+01 2.7370919829300294e-01
2.4470688386626271e-01 1.8395593116133643e+01 -5.2598640668172791e-01
ITEM: ATOMS id type x y z
130 2 3.84727 0.839633 3.43068
93 2 11.5451 5.56677 6.92216
131 2 2.55694 1.17346 4.89043
202 1 2.76729 1.03806 3.70416
138 2 3.33995 3.77656 5.5202
103 2 3.03262 0.711088 6.60478
32 4 4.1863 4.42315 2.27844
333 2 5.62136 0.406163 6.016
335 2 6.00219 2.13109 5.28834
137 2 4.92936 3.23053 4.88577
245 3 5.28468 3.43014 1.74337
204 1 4.80865 4.20906 4.39353
208 1 5.21439 1.44346 5.78082
136 2 5.83782 4.71128 4.39476
74 2 4.28143 1.31343 5.05273
282 3 10.7479 4.16905 0.606032
132 2 7.45047 2.27596 2.98156
30 4 6.78973 2.91299 1.55718
159 2 7.59507 1.50793 4.59099
203 1 7.77027 4.46656 1.4968
134 2 7.02439 5.26107 1.76505
183 2 8.14995 5.26171 4.0952
102 2 2.30656 2.51443 6.30964
341 2 3.15333 3.90634 3.68188
133 2 8.43415 4.16136 2.46336
303 3 6.91223 6.00493 6.20471
158 2 8.78058 1.47588 7.39615
76 2 8.69698 0.0987795 8.98624
157 2 8.18449 3.41867 4.30844
211 1 8.52092 2.34109 4.68208
59 4 8.88596 2.99203 6.47268
182 2 9.6558 5.42221 5.10117
184 2 9.70035 5.59384 3.25937
220 1 9.10071 5.83517 4.17055
258 3 4.17838 5.99577 2.01835
192 1 2.12791 1.3945 6.88804
104 2 2.17344 1.57831 8.05808
250 3 4.18928 5.674 7.32831
246 3 3.94418 3.53765 8.95111
149 2 4.92184 1.96046 6.75055
237 3 5.57922 1.35089 8.92397
33 4 4.84063 4.89313 8.56774
6 4 6.04579 -0.123168 8.66181
171 2 8.38075 4.39701 7.4824
170 2 7.59484 2.15643 8.60644
81 2 6.43636 4.31516 8.05402
216 1 7.446 2.76361 7.67677
101 2 7.13723 0.0920326 7.08647
172 2 6.553 2.3122 6.99777
287 3 10.6838 5.06741 6.62549
243 3 7.1719 1.99519 0.257816
3 2 2.19124 1.90123 3.08476
85 2 5.0072 6.12894 4.61818
56 4 9.44715 5.05801 0.309967
35 4 3.70699 5.55898 5.69885
10 4 1.90832 0.342713 10.9717
238 3 3.17665 1.27741 10.3613
224 3 2.10092 -0.291839 12.432
26 4 4.38824 2.30747 9.86208
241 3 4.9581 3.00869 11.2622
285 3 5.05018 5.86266 9.74135
343 1 4.85476 5.80819 17.0847
160 2 8.63291 3.09449 11.1931
161 2 9.11116 4.88325 10.8123
212 1 9.51186 3.93976 11.3165
94 2 11.0868 5.07593 11.2191
127 2 5.68941 -0.126328 11.8473
78 2 2.26317 1.64865 16.2384
251 3 2.83133 2.45999 16.0175
340 2 4.35544 4.26092 16.2251
28 4 4.24831 1.56569 15.1847
252 3 4.58015 2.35653 13.8913
36 4 5.53493 5.28824 15.4028
29 4 5.59496 2.68565 12.6015
240 3 5.51963 1.44907 16.2399
239 3 3.75138 0.0660827 14.6509
342 2 4.76606 5.71672 18.1564
319 2 7.66668 -0.176557 14.4397
165 2 5.97567 4.99406 12.7119
242 3 6.71271 1.13766 12.2016
135 2 8.24969 3.67369 17.819
213 1 6.7217 4.08406 13.0239
163 2 7.76622 4.06872 12.377
164 2 6.80407 3.90257 14.6943
24 4 7.09526 1.20487 16.6074
278 3 8.07613 2.15821 15.7612
27 4 8.02803 0.526459 12.8587
339 1 7.52623 -0.47793 16.0297
173 2 7.50699 5.71885 13.8701
367 2 9.78719 5.71708 16.8271
162 2 9.89372 4.04578 12.3885
53 4 9.39125 2.182 14.7537
289 3 10.0041 3.94707 14.7039
276 3 9.12189 1.76363 13.2059
168 2 6.64082 5.90697 16.7369
271 3 9.64712 1.31129 9.69523
60 4 11.3665 4.57427 14.5436
186 2 6.00336 8.13994 5.87061
122 2 8.70858 9.21437 3.39799
123 2 7.91012 8.29899 4.99815
199 1 8.77411 9.04783 4.5518
365 2 6.53539 8.56086 1.40693
20 4 12.6105 8.02975 8.97813
148 2 14.6777 11.5035 6.87702
191 1 15.0768 12.5845 8.36668
1 4 8.945 12.9012 2.86156
4 3 9.87333 12.2967 1.75368
370 3 8.8485 11.8317 4.09181
313 1 10.9611 9.80651 1.34761
309 4 10.9326 11.5217 0.593572
317 2 10.4271 10.103 2.37092
331 2 11.2502 11.6948 5.83123
312 2 10.5728 8.85686 0.803874
334 1 10.8111 10.7525 6.15828
332 2 11.5059 9.8302 5.87333
105 2 11.475 7.90633 2.84985
98 2 8.89849 6.98848 4.27491
19 4 8.84541 10.7282 5.29968
124 2 9.81944 8.71587 4.93337
361 2 9.08605 6.63421 1.39027
106 2 10.7463 6.73022 4.81761
310 2 12.1657 9.76696 1.46196
193 1 12.5007 7.48223 2.74248
146 2 12.3565 8.90783 4.08054
358 2 13.7732 11.0124 0.697625
215 1 6.83487 8.14774 0.382186
201 1 14.4306 11.954 0.795086
23 4 15.0051 12.1575 2.70427
337 2 13.5029 12.9695 2.00784
311 2 12.5205 12.2402 0.730916
221 1 6.54688 7.065 5.80307
301 3 7.72598 10.7437 6.47951
64 4 6.70566 9.25555 8.60728
185 2 7.14213 8.21981 7.23882
235 3 11.8888 12.1245 8.42383
21 4 11.0873 10.7799 7.94132
234 3 11.8916 9.35131 8.41669
112 2 9.43314 10.8656 8.87424
323 2 8.52148 9.11402 8.79718
259 3 14.4119 10.8284 3.71194
147 2 13.7907 9.55138 6.37968
88 2 14.7824 10.8698 9.22455
169 2 8.00492 7.83816 0.280679
256 3 4.85426 6.31822 14.338
58 4 5.55484 7.13934 10.6751
297 3 5.87299 8.33993 9.68691
324 2 7.67471 10.1549 10.7667
325 1 7.80428 10.6252 9.63988
292 3 7.02431 6.72145 11.425
110 2 8.70262 12.3261 9.78887
75 2 11.0302 12.057 10.383
22 4 12.0268 11.6086 11.6985
232 3 11.7084 7.22545 10.003
291 3 9.72646 7.50172 11.8958
15 4 11.1283 6.8383 11.4304
264 3 13.1035 10.5737 11.2717
117 2 13.1029 8.24331 12.2962
100 2 14.1675 12.6143 10.0569
366 2 11.4853 5.99031 16.8609
97 2 6.27605 6.89474 18.027
128 2 14.7322 11.9917 17.9199
268 3 15.6599 12.5481 12.0513
177 2 6.63649 9.49989 11.9494
61 4 8.08672 7.52753 12.4
218 1 7.52887 9.36855 12.6498
174 2 7.33771 7.39303 14.773
176 2 7.29053 9.37055 13.8109
63 4 7.03207 9.25853 17.4569
306 3 5.96204 9.09724 16.1827
217 1 8.06497 6.68232 14.2133
364 2 11.2184 6.67766 18.3202
197 1 12.2963 7.56541 12.7064
8 4 10.0648 12.2396 13.8144
126 2 11.1753 8.52956 15.6395
236 3 11.1022 11.1574 12.9755
315 3 10.6425 10.7972 17.1788
314 4 9.58091 10.2512 16.1655
96 2 11.5964 8.11922 13.5111
316 3 8.84779 11.5665 14.8561
200 1 10.3155 8.91178 15.0326
318 2 10.6803 9.56569 14.1625
175 2 8.99079 6.46633 14.7833
178 2 8.3582 10.0971 12.4475
362 1 10.1278 6.66029 18.1253
125 2 9.50464 8.00158 14.7176
363 2 9.75578 7.74124 17.9481
295 3 8.48623 9.44393 16.9627
116 2 11.2457 6.30861 14.4856
336 2 13.631 12.1404 16.2472
322 2 7.05325 11.4099 9.359
338 2 15.5073 12.5233 16.5367
43 4 14.328 9.89749 10.5662
47 4 9.83795 1.35946 3.85901
68 2 17.0102 0.358962 7.40475
280 3 10.5698 2.48359 2.81193
273 3 10.7993 0.886521 5.12756
55 4 11.5062 3.5133 2.05283
281 3 12.0397 4.8192 3.12503
350 2 11.3999 1.35989 0.554694
254 3 17.6953 1.6005 0.431521
7 4 16.646 1.8758 6.62277
166 2 13.7406 3.10127 1.73697
11 4 16.0694 4.52126 2.73622
225 3 15.1859 3.53124 3.69077
226 3 15.0808 5.35449 1.65485
223 3 16.0486 1.7421 5.18827
5 4 14.9371 2.01225 4.17766
89 2 15.3252 0.929419 2.73118
51 4 12.5457 1.37519 5.68495
214 1 12.8813 2.34275 1.4289
272 3 13.5467 1.32429 4.46171
349 2 14.1794 0.359842 0.490147
351 1 15.0967 0.0433079 1.19693
360 2 12.8799 1.43438 2.05868
167 2 12.8198 2.10087 0.327371
247 3 16.638 4.90552 9.17472
2 2 16.7797 -0.0988612 2.20972
70 2 17.1669 3.51427 1.80214
244 3 17.1753 5.3785 3.47936
274 3 12.9969 0.489838 6.91212
209 1 18.1916 2.63878 0.41196
352 2 15.8921 0.572025 8.8741
12 4 12.2174 6.1255 4.04919
284 3 12.3938 2.86017 6.23624
283 3 11.1254 3.37463 8.7707
57 4 11.3125 3.71896 7.20318
229 3 14.9309 5.29428 7.29369
227 3 16.119 2.95388 7.63344
14 4 15.4799 4.2555 8.35065
72 2 13.4515 3.8546 9.15862
347 2 10.1737 -0.286417 6.15444
348 2 16.0937 -0.100824 0.639171
354 1 14.8458 0.74473 9.27477
269 3 8.89894 0.041505 3.25267
153 2 19.1234 3.91864 1.42881
353 2 14.4869 1.83092 9.25251
359 1 10.7964 0.352529 18.0369
329 2 16.8655 0.40033 15.975
345 2 9.77279 0.644086 10.515
50 4 10.7289 2.66326 10.3758
288 3 14.2949 3.7831 9.78948
91 2 14.3006 3.51464 11.4248
279 3 11.8894 2.3424 11.3414
355 2 14.6317 0.222247 10.3258
69 2 16.106 0.627017 11.1858
141 2 18.0938 3.28162 11.1605
195 1 16.9388 1.47798 11.1589
111 2 16.9991 2.02994 12.2131
34 4 17.4717 5.62073 10.3535
187 2 17.0969 2.10415 10.1863
140 2 19.4879 4.4755 10.7417
205 1 18.5421 4.35483 11.3327
139 2 18.7014 4.67309 12.3968
277 3 10.6794 1.34222 15.4026
48 4 11.4885 0.368573 16.3293
369 1 12.2065 5.47521 16.0039
17 4 15.9745 4.18806 14.7652
231 3 15.3974 5.41158 13.7199
230 3 14.7798 3.02659 15.2458
253 3 16.8798 4.90517 15.8966
54 4 13.0211 2.82935 12.348
326 2 15.8247 0.382821 17.5595
368 2 12.6985 4.48699 16.3997
327 1 16.1051 0.926122 16.5669
92 2 13.7342 1.48993 13.118
330 2 13.3996 5.53323 17.9527
9 4 14.5776 1.40592 15.6383
270 3 13.1659 1.14691 16.5795
275 3 14.5992 0.303965 14.0664
290 3 12.322 3.92 13.3559
37 4 17.814 5.34918 17.0899
328 2 16.4745 2.07259 16.814
115 2 17.7464 3.4334 12.9824
151 2 18.2265 3.90821 17.9313
113 2 16.5649 2.12717 13.7884
114 2 18.0325 2.78555 14.8035
196 1 17.2306 3.03126 13.9583
356 2 9.92483 1.082 17.8862
152 2 19.4448 5.92786 16.7127
357 2 10.4563 -0.610763 18.392
304 3 21.8363 11.8366 7.37509
109 2 13.5879 7.98573 0.482351
66 4 22.6348 10.6654 6.64989
13 4 15.3289 6.56276 0.614679
83 2 14.8793 7.93055 4.10072
84 2 16.0352 9.18264 5.58612
207 1 15.1814 8.53678 5.82053
129 2 15.8261 11.4872 1.20847
344 2 19.886 7.83165 7.50975
31 4 17.831 6.75827 4.0228
257 3 18.4446 7.61903 2.82689
79 2 16.581 7.64935 4.76764
261 3 17.3556 9.77405 0.930866
145 2 17.3941 8.82512 1.14959
42 4 18.7929 8.22047 8.98698
180 2 19.014 10.6012 5.28345
39 4 20.0703 7.64478 2.25376
179 2 19.4984 11.5739 3.75919
219 1 19.3484 10.5296 4.25865
260 3 20.1183 8.42294 0.808121
181 2 18.5764 9.90762 3.70532
371 3 19.9195 11.1809 1.17768
40 4 13.9575 9.42721 4.46936
86 2 18.8687 9.79953 7.01622
293 3 20.9934 8.45054 3.29743
62 4 21.1305 9.96812 4.09286
46 4 21.7221 11.5274 1.48266
294 3 22.0707 11.0911 3.21384
302 3 21.7632 9.71958 5.83719
233 3 13.0834 7.09714 7.76024
80 2 15.5183 7.72927 6.68097
16 4 14.1605 6.54527 6.69421
41 4 19.4382 9.85217 0.311037
150 2 17.0258 10.1936 7.05242
99 2 16.8781 12.1594 8.86522
25 4 16.4214 11.8489 7.16258
346 1 18.4185 8.79131 7.03693
87 2 17.0936 8.66464 7.98134
77 2 18.1265 8.38595 6.00942
249 3 18.8285 6.34252 5.20577
49 4 20.9142 12.8118 8.18568
228 3 13.3383 6.3279 5.08974
296 3 22.6667 10.7931 0.362572
107 2 12.6213 6.70847 1.87828
71 2 13.2685 8.28904 2.54497
299 3 19.9254 12.0128 9.27759
120 2 13.8667 6.78919 11.781
263 3 14.135 8.50474 9.9681
52 4 22.1229 12.0944 14.2783
266 3 15.6005 10.0759 11.5255
248 3 16.5948 6.26155 11.6115
118 2 12.6929 6.44109 13.1136
300 3 17.8742 11.5952 11.1031
45 4 16.6266 11.2764 12.0736
262 3 18.2407 6.88397 9.68514
65 4 19.3089 11.0407 10.3929
298 3 19.0776 9.58344 9.76279
222 1 20.5938 10.9227 11.7963
190 2 20.2393 10.0553 12.4069
286 3 21.0877 7.53469 11.8708
189 2 21.56 10.7715 11.2211
307 3 21.3003 11.3117 15.2857
265 3 20.5166 8.90463 14.4057
90 2 22.2731 11.1454 12.8624
108 2 14.4013 6.73971 16.7838
18 4 15.3268 6.63072 12.6714
73 2 15.9554 7.95327 14.7258
198 1 15.7526 8.15357 13.6404
119 2 14.8302 8.77131 13.3935
156 2 15.3466 9.84285 15.7615
82 2 20.7968 6.81218 16.7868
67 4 20.8907 9.73066 15.7204
155 2 16.4198 10.562 17.2515
144 2 18.1351 7.78334 13.8491
255 3 17.0141 6.37476 17.9984
121 2 16.7115 8.47066 13.0036
44 4 17.4579 10.9798 15.1847
154 2 17.7296 9.10179 15.6267
210 1 16.3889 10.0194 16.1693
267 3 17.1244 11.0877 13.6727
305 3 18.2603 12.1599 15.9375
143 2 18.6007 7.36188 12.1041
188 2 20.6926 11.9155 12.4373
206 1 18.7437 7.12673 13.17
308 3 19.7679 9.42928 16.8453
38 4 20.5498 7.54382 13.4876
320 2 17.5975 9.24429 17.9285
194 1 14.114 6.44685 17.8885
95 2 12.9327 6.2246 15.5453
321 2 23.8281 12.138 14.6352
142 2 18.6016 6.0282 13.4137
ITEM: TIMESTEP
100
ITEM: NUMBER OF ATOMS
371
ITEM: BOX BOUNDS xy xz yz pp pp pp
4.2379536921030159e-01 2.4215236894768605e+01 7.0376476225697173e+00
-7.6100078109605018e-01 1.3049914374414435e+01 2.8278464140913684e-01
2.4470688386626271e-01 1.8395593116133643e+01 -5.2598640668172791e-01
ITEM: ATOMS id type x y z
130 2 3.83014 0.87364 3.41647
93 2 11.4726 5.67363 6.90374
131 2 2.52195 1.20084 4.89172
202 1 2.75829 1.13371 3.73301
138 2 3.23489 3.84257 5.41021
103 2 2.4145 0.611571 6.43002
32 4 4.07487 4.3918 2.35737
333 2 5.79464 0.567725 5.85694
335 2 5.89424 2.31191 5.35604
137 2 4.85122 3.2216 4.83981
245 3 5.36021 3.51602 1.91946
204 1 4.75513 4.23395 4.26997
208 1 5.221 1.50506 5.77972
136 2 5.79412 4.58045 3.98393
74 2 4.33929 1.29767 5.02125
282 3 10.6721 4.23791 0.652432
132 2 7.32125 2.17126 3.24571
30 4 6.80002 2.87694 1.68024
159 2 7.68123 1.44246 5.03761
203 1 7.76563 4.43423 1.5296
134 2 6.91356 5.15662 1.84906
183 2 8.18118 5.37833 4.05936
102 2 2.25229 2.58443 6.15571
341 2 3.04867 3.6782 3.70692
133 2 8.54218 4.14028 2.4123
303 3 7.13087 5.97732 6.10153
158 2 8.79967 1.4009 7.45861
76 2 8.59354 0.107447 8.83549
157 2 7.93535 3.49257 4.68727
211 1 8.43237 2.29143 4.78228
59 4 8.83525 2.947 6.5564
182 2 9.69466 5.56962 5.132
184 2 9.87216 5.63582 3.25515
220 1 9.16292 5.8998 4.13728
258 3 4.15443 5.98829 2.12424
192 1 2.11248 1.587 6.90157
104 2 2.60364 1.7343 7.91022
250 3 4.1111 5.53488 7.31562
246 3 3.92253 3.60512 8.65415
149 2 4.7551 1.80368 6.80083
237 3 5.41095 1.30953 9.0898
33 4 4.82437 4.89815 8.5335
6 4 5.94142 -0.0736855 8.46265
171 2 8.05574 4.35986 7.49567
170 2 7.63984 2.07876 8.6487
81 2 6.42567 4.26819 8.12387
216 1 7.4299 2.68853 7.71714
101 2 7.20552 0.325765 7.01032
172 2 6.55042 2.28188 7.02915
287 3 10.6371 5.08739 6.67803
337 2 6.66515 -0.0528238 2.08529
3 2 2.27153 1.94829 3.09058
85 2 4.93852 6.08779 4.71689
342 2 4.25307 5.99604 0.300967
243 3 6.98919 2.06778 0.260263
10 4 1.97391 0.299325 10.8432
238 3 3.17119 1.2215 10.3008
224 3 2.33022 -0.406218 12.2785
26 4 4.36502 2.33703 9.83566
241 3 5.00054 3.04952 11.2326
285 3 4.96686 5.87088 9.80073
343 1 4.69947 5.63909 17.3204
160 2 8.62351 3.04515 11.0781
161 2 9.19764 4.77864 10.8182
212 1 9.49871 3.79595 11.1426
94 2 10.9308 5.07667 11.6644
127 2 5.72317 -0.189999 11.9003
78 2 2.4276 1.88759 16.2782
251 3 2.83612 2.59871 15.6621
340 2 3.81178 4.34324 16.4692
28 4 4.2439 1.4404 15.1096
252 3 4.60483 2.4947 13.8812
36 4 5.24415 5.04076 15.5437
29 4 5.61739 2.67426 12.6261
240 3 5.52863 1.36123 16.1305
239 3 3.78321 -0.061087 14.5455
366 2 11.4468 5.88136 16.821
319 2 7.80915 -0.328424 14.589
165 2 6.5239 4.82839 12.8098
242 3 6.70504 1.04715 12.4351
135 2 8.16734 3.59355 17.8247
213 1 6.83273 3.85762 13.3353
163 2 7.90496 3.54186 13.025
164 2 6.32869 3.62707 15.0154
24 4 7.03609 1.27718 16.5981
278 3 8.0607 2.16345 15.731
27 4 8.08702 0.394633 13.0041
339 1 7.67416 -0.416848 16.2081
173 2 7.74687 5.5421 13.8545
367 2 9.66862 5.69302 16.7988
162 2 9.82033 3.78664 12.2236
53 4 9.4633 2.25599 14.8424
289 3 9.97088 3.9231 14.5837
276 3 9.17885 1.61651 13.1981
168 2 6.42384 5.35258 17.0081
271 3 9.51936 1.20122 9.75495
60 4 11.4156 4.42033 14.3759
356 2 9.83815 0.961849 17.895
56 4 9.65486 4.55195 18.336
338 2 8.61853 -0.606175 16.7502
254 3 1.73494 0.910462 18.3834
186 2 6.17083 8.11336 5.89525
122 2 8.44323 9.3226 3.31707
123 2 8.0571 8.33302 4.97296
199 1 8.78297 9.11693 4.37951
365 2 6.6361 8.28111 1.36731
20 4 12.6537 7.99883 9.10308
148 2 14.5777 11.7127 6.6198
191 1 15.0113 12.6459 8.20493
1 4 9.01519 12.9595 2.82235
4 3 9.99246 12.2519 1.72614
370 3 8.72411 11.9422 4.00928
313 1 11.1886 9.90052 1.26138
309 4 10.9269 11.6245 0.59947
317 2 10.8898 10.0844 2.35221
331 2 11.0039 11.9981 5.84949
312 2 10.6727 8.89054 0.821429
334 1 10.6223 10.967 6.14606
332 2 11.3506 10.1298 5.70445
105 2 11.5039 7.76702 2.78684
98 2 8.97977 7.02581 4.13154
19 4 8.87424 10.8177 5.25366
124 2 9.87674 8.79911 4.38106
361 2 9.02798 6.64584 1.38502
106 2 10.9004 6.7883 4.46954
310 2 12.3643 9.86355 1.06733
193 1 12.5902 7.38073 2.67663
146 2 12.4308 8.83592 3.98895
358 2 13.7161 11.0384 1.00898
215 1 6.82818 8.06459 0.246485
201 1 14.3297 12.0283 0.964845
23 4 15.019 12.2073 2.7898
88 2 14.5685 11.0361 9.12549
311 2 12.4656 12.4591 0.506203
221 1 6.77986 7.10581 5.96034
301 3 7.76914 10.8384 6.34503
64 4 6.87377 9.38942 8.57771
185 2 7.45765 8.32963 7.27627
235 3 11.9836 12.0575 8.20704
21 4 10.9929 10.8125 7.88984
234 3 11.7968 9.4104 8.40686
112 2 9.41879 10.9985 8.93118
323 2 8.66588 9.32536 8.75145
259 3 14.4602 10.81 3.79319
147 2 13.8703 9.73071 6.34304
40 4 13.9604 9.52224 4.52006
256 3 4.97233 6.23842 14.405
58 4 5.72311 7.17411 10.7066
297 3 6.18323 8.45814 9.65974
324 2 7.84116 10.3884 10.8306
325 1 7.80966 10.6926 9.68967
292 3 7.11707 6.71127 11.4539
110 2 8.42292 12.4792 9.58038
75 2 11.0381 11.8061 10.413
22 4 12.0343 11.5692 11.7837
232 3 11.6682 7.2188 10.1289
291 3 9.56032 7.35671 11.7998
15 4 11.0646 6.77707 11.4807
264 3 13.1826 10.6025 11.4135
117 2 12.7976 8.35297 12.2921
100 2 14.0337 12.609 9.82039
43 4 14.3498 9.97386 10.572
97 2 6.17674 6.87672 17.9346
128 2 14.5231 12.0241 18.041
268 3 15.6418 12.6395 11.9094
177 2 6.84174 9.73039 12.1952
61 4 8.08386 7.53685 12.4129
218 1 7.80028 9.48656 12.7187
174 2 7.77183 7.07486 14.8936
176 2 7.67383 9.72946 13.8313
63 4 6.97459 9.26251 17.6257
306 3 5.90517 8.94663 16.2354
217 1 8.26485 6.60321 14.0747
169 2 8.20808 7.15892 18.2458
197 1 12.1443 7.60492 12.8208
8 4 9.98476 12.337 13.6615
126 2 11.1765 8.47638 15.9446
236 3 11.1445 11.104 13.0731
315 3 10.6899 10.9193 17.1767
314 4 9.55069 10.3248 16.1294
96 2 11.4684 8.04919 13.72
316 3 8.76299 11.4362 14.7095
200 1 10.3556 8.85733 15.2628
318 2 10.8115 9.60133 14.3621
175 2 9.41835 6.47323 14.2175
178 2 8.66687 10.0237 12.2266
362 1 10.1627 6.64297 18.1997
125 2 9.57971 7.92494 14.8246
363 2 9.83462 7.67914 17.9505
295 3 8.39071 9.63631 16.9004
116 2 11.3322 6.13024 14.3543
336 2 13.696 12.3154 16.5801
322 2 6.91765 11.4811 9.53121
118 2 12.6247 6.61906 13.1554
364 2 11.3158 6.54871 18.3581
47 4 9.78662 1.32384 3.93139
68 2 17.1099 0.353033 7.29377
280 3 10.4468 2.36801 2.86918
273 3 10.9371 0.867405 5.18257
55 4 11.3483 3.52082 2.06396
281 3 12.0331 4.6982 3.1313
350 2 11.3088 1.48164 0.5764
153 2 19.0084 3.80667 1.43456
7 4 16.6594 1.88372 6.64249
166 2 13.607 3.29296 1.64239
11 4 16.0407 4.47321 2.71972
225 3 15.0809 3.46972 3.60046
226 3 15.2404 5.38875 1.66643
223 3 16.1898 1.64186 5.18541
5 4 15.0348 1.95634 4.07749
89 2 15.4022 0.824784 2.69003
51 4 12.6128 1.54942 5.71277
214 1 12.7925 2.53061 1.38291
272 3 13.5869 1.57259 4.47837
349 2 14.2275 0.588909 0.762661
351 1 15.1331 0.118071 1.28785
360 2 12.716 1.68485 2.24371
49 4 13.7797 -0.396608 8.01738
249 3 18.7219 6.25674 5.28664
2 2 16.9408 0.121918 2.0991
70 2 17.0097 3.31308 1.79739
244 3 17.0153 5.54216 3.42939
274 3 13.0552 0.61902 6.84812
209 1 18.1868 2.53932 0.442366
352 2 15.7608 0.394921 9.06531
12 4 12.3921 6.02563 3.97047
284 3 12.3509 2.98562 6.24141
283 3 11.2023 3.42728 8.79981
57 4 11.362 3.8168 7.23087
229 3 14.9226 5.20054 7.2297
227 3 16.0021 2.76493 7.73891
14 4 15.3962 4.14284 8.31443
72 2 13.3269 3.7697 9.14477
347 2 10.0644 -0.341466 5.93456
348 2 16.0321 0.00448583 0.672584
35 4 20.0647 5.57146 5.76756
269 3 8.92579 0.0777649 3.32928
359 1 10.7462 0.360122 18.0939
329 2 16.7938 0.706245 16.0233
345 2 10.0301 0.484718 10.2956
50 4 10.7417 2.59319 10.2446
288 3 14.1793 3.55413 9.69307
91 2 14.1637 3.48119 11.3215
279 3 11.9519 2.1445 11.2894
355 2 14.4139 0.0665738 10.2806
69 2 16.2478 0.95826 10.9736
141 2 18.0787 3.52044 11.1176
195 1 17.1947 1.67031 11.0346
111 2 17.2284 2.28886 12.1008
34 4 17.2998 5.85882 10.3834
187 2 17.2653 2.3478 10.0577
140 2 19.3496 4.7387 10.3147
205 1 18.5766 4.62584 11.1388
139 2 19.0245 4.9483 12.1496
277 3 10.5781 1.37203 15.6441
48 4 11.4687 0.301658 16.3936
152 2 19.3887 5.93088 16.5699
17 4 15.8896 4.16233 14.8363
231 3 15.1944 5.39636 13.9117
230 3 14.7773 3.06115 15.2884
253 3 16.9073 4.74062 16.0958
54 4 12.9418 2.77028 12.2393
326 2 15.7489 0.542839 17.6564
368 2 12.6824 4.36032 16.2948
327 1 16.0057 1.16443 16.6644
92 2 13.7413 1.4599 13.0497
330 2 13.7307 5.5811 17.9879
9 4 14.4659 1.48351 15.7133
270 3 13.1729 1.05447 16.6879
275 3 14.5523 0.425643 14.0717
290 3 12.4384 3.83982 13.2816
37 4 17.8968 5.22806 17.1953
328 2 16.3007 2.27699 16.9608
115 2 17.6492 3.91659 12.8177
151 2 18.7124 3.8671 18.0217
113 2 16.5071 2.38485 13.5567
114 2 18.0572 3.01865 14.529
196 1 17.232 3.33394 13.7902
142 2 18.7901 5.82709 13.1735
353 2 14.5047 1.79615 9.49049
354 1 14.6833 0.608036 9.36534
369 1 12.1597 5.35615 15.9497
247 3 16.478 4.89672 9.32577
167 2 13.1752 1.50581 18.3879
304 3 22.1174 11.9928 7.33323
71 2 13.4033 8.21947 2.61858
66 4 22.6509 10.7674 6.5776
13 4 15.5894 6.61166 0.700082
83 2 14.8941 7.89138 4.19077
84 2 16.2221 9.32902 5.68243
207 1 15.3028 8.6309 5.80569
129 2 15.9004 11.5498 1.07729
344 2 19.6543 7.90066 7.41792
31 4 17.853 6.73237 4.07381
257 3 18.6073 7.64366 2.99674
79 2 16.6861 7.83336 4.75893
261 3 17.3592 9.6716 0.94674
145 2 17.5402 8.76555 1.21485
42 4 18.5669 8.31299 8.92679
180 2 19.3449 11.0597 5.33344
39 4 20.2146 7.71367 2.34968
179 2 19.6788 11.5685 3.586
219 1 19.4937 10.7036 4.28178
260 3 20.048 8.47635 0.928792
181 2 18.6967 10.0615 3.84291
371 3 19.9516 11.265 1.08852
107 2 12.6504 6.63117 1.73135
86 2 18.8908 9.86179 6.84278
293 3 21.2446 8.47902 3.40461
62 4 21.2465 9.88855 4.12608
46 4 21.6689 11.6128 1.58432
294 3 21.9086 11.1534 3.26489
302 3 21.8016 9.6981 6.003
233 3 13.2355 7.16307 7.84429
80 2 15.5833 7.728 6.48955
16 4 14.2013 6.55085 6.73136
41 4 19.4582 9.83717 0.331153
150 2 17.1537 10.2519 6.94723
99 2 16.8928 12.2734 8.56321
25 4 16.3003 11.8359 6.99545
346 1 18.438 8.79275 6.87179
87 2 16.9969 8.74235 7.91476
77 2 18.2447 8.51214 5.81334
296 3 22.6478 10.8243 0.562207
299 3 19.8699 12.0244 9.01906
228 3 13.4088 6.30175 5.20521
120 2 13.8081 6.98654 12.0116
263 3 13.9932 8.52805 10.0558
52 4 22.0727 12.1888 14.2487
266 3 15.6598 9.97059 11.4161
248 3 16.3624 6.22473 11.6468
95 2 12.9435 6.11152 15.5686
300 3 17.926 11.512 11.0506
45 4 16.5923 11.2766 12.0288
262 3 18.1307 6.93587 9.59781
65 4 19.3201 10.9937 10.2266
298 3 19.0912 9.52705 9.7256
222 1 20.7339 11.0768 11.5341
190 2 20.555 10.1282 12.1338
286 3 21.3033 7.61434 11.8946
189 2 21.588 10.8754 10.7784
307 3 21.2715 11.246 15.2445
265 3 20.5526 8.81553 14.2319
90 2 22.2926 11.495 12.6897
108 2 14.771 6.54766 16.6975
18 4 15.321 6.50127 12.8003
73 2 15.5657 8.09847 14.8204
198 1 15.5613 8.1047 13.7078
119 2 14.7656 8.82939 13.3015
156 2 15.2984 10.0811 15.2223
82 2 20.8634 6.6704 17.0435
67 4 21.0989 9.68136 15.6976
155 2 15.9223 10.7124 16.9546
144 2 18.3101 7.39393 14.1753
255 3 17.2617 6.31238 18.155
121 2 16.6176 8.29722 13.2271
44 4 17.506 10.7324 15.0806
154 2 17.3449 9.01192 16.0769
210 1 16.1345 10.1474 16.0229
267 3 16.9951 10.8706 13.642
305 3 18.1883 11.9533 15.9099
143 2 18.5026 7.42427 12.3769
188 2 20.7738 12.0483 12.1499
206 1 18.8679 6.97661 13.2828
308 3 19.9446 9.45733 16.8778
38 4 20.6734 7.48436 13.4394
320 2 17.6436 9.05561 17.9175
194 1 14.5003 6.42661 17.8129
321 2 23.8056 12.1068 14.4268
109 2 14.1263 7.45407 18.3195
357 2 17.6082 12.4943 18.345
ITEM: TIMESTEP
200
ITEM: NUMBER OF ATOMS
371
ITEM: BOX BOUNDS xy xz yz pp pp pp
4.2379536921030159e-01 2.4224312337884740e+01 7.0376476225697173e+00
-7.6100078109605018e-01 1.3049914374414435e+01 2.9186008452527190e-01
2.4470688386626271e-01 1.8395593116133643e+01 -5.2598640668172791e-01
ITEM: ATOMS id type x y z
130 2 3.66593 1.33962 3.28003
93 2 11.3105 5.87549 7.04282
131 2 2.41966 1.29503 4.82605
202 1 2.58338 1.3313 3.62961
138 2 3.37201 3.91846 5.60913
103 2 2.26368 0.283985 6.1763
32 4 4.15461 4.39876 2.3435
333 2 5.09588 0.466339 6.2134
335 2 6.11864 1.75812 5.16901
137 2 4.90304 3.37166 4.92098
245 3 5.36561 3.53833 1.89629
204 1 4.74852 4.42981 4.30917
208 1 5.05906 1.51356 5.73236
136 2 5.74319 4.86503 4.02936
74 2 4.18786 1.49196 4.95716
282 3 10.5472 4.33438 0.815646
132 2 7.55933 2.42469 3.16494
30 4 6.82922 2.97594 1.68682
159 2 7.43885 2.12355 4.83425
203 1 7.72331 4.60426 1.52477
134 2 6.86747 5.2618 1.8058
183 2 8.19303 5.50849 3.92584
102 2 2.46501 2.26515 6.31762
341 2 3.03008 3.8617 3.77753
133 2 8.51185 4.2814 2.40294
303 3 7.13413 6.02508 5.96559
158 2 8.54863 1.42323 7.59881
76 2 8.73911 -0.0395568 8.91497
157 2 8.99197 3.63542 4.55258
211 1 8.55687 2.36296 4.82404
59 4 8.88686 2.96781 6.63868
182 2 9.70477 5.60086 5.09991
184 2 9.86941 5.62302 3.25293
220 1 9.23626 6.00052 4.07398
258 3 4.08722 6.01981 1.98591
192 1 2.09955 1.18982 6.8399
104 2 2.4635 1.06998 7.91222
250 3 4.19739 5.75576 7.40617
246 3 4.0088 3.74013 8.92793
149 2 4.92956 2.2982 6.55358
237 3 5.50116 1.30949 8.92076
33 4 4.85695 5.05685 8.609
6 4 5.98705 -0.184967 8.59808
171 2 8.10058 4.41976 7.55077
170 2 7.44394 2.33853 8.64773
81 2 6.48875 4.52275 8.10443
216 1 7.28027 2.85562 7.63162
101 2 7.1271 0.0653717 7.11062
172 2 6.44378 2.37182 6.8922
287 3 10.4607 5.31792 6.73791
1 4 2.00509 -0.28617 2.89255
3 2 1.86877 2.05249 3.08712
85 2 4.97395 6.21736 4.83213
153 2 2.69825 3.64903 1.53285
243 3 7.0107 1.95582 0.397733
337 2 6.58701 -0.199665 2.24099
10 4 1.9849 0.532323 10.8916
238 3 3.11418 1.47208 10.2334
224 3 2.2224 -0.142988 12.2539
26 4 4.41957 2.3046 9.7727
241 3 5.30588 2.83204 11.1495
285 3 5.12266 5.96129 9.83327
343 1 4.86219 5.66827 17.2148
160 2 8.66358 3.03921 11.0899
161 2 9.3936 4.81722 10.6356
212 1 9.57305 3.79795 11.203
94 2 11.041 5.0605 11.2388
127 2 5.78808 -0.3759 12.4159
78 2 2.17064 1.93736 16.1314
251 3 2.67731 2.63296 15.6272
340 2 4.06193 4.12224 16.6358
28 4 4.0949 1.48712 15.054
252 3 4.50508 2.33133 13.6748
36 4 5.2915 4.95565 15.5432
29 4 5.69707 2.54355 12.6002
240 3 5.417 1.46057 16.0812
239 3 3.72403 0.0287238 14.462
366 2 11.6283 5.67637 16.5479
342 2 4.85823 5.61347 18.3888
165 2 6.23209 4.82742 12.7768
242 3 6.78418 0.926356 12.5823
135 2 8.05439 3.7355 17.864
213 1 6.76682 3.95492 13.271
163 2 7.84951 3.73485 13.0721
164 2 6.42174 3.61592 14.9235
24 4 7.07442 1.25262 16.7316
278 3 8.02168 2.33309 16.0004
27 4 8.1419 0.264154 13.0337
339 1 7.57088 -0.454836 16.2959
173 2 7.7477 5.73548 14.1641
367 2 9.71451 5.64793 16.5131
162 2 9.87115 3.9495 12.273
53 4 9.46035 2.21682 14.8978
289 3 10.0829 3.74442 14.6946
276 3 9.06504 1.45397 13.4915
168 2 6.61288 5.66511 16.6885
56 4 9.64298 4.60553 18.3307
60 4 11.4998 4.33895 14.346
254 3 1.80301 0.850794 18.243
338 2 8.60636 -0.589058 16.755
186 2 6.25643 8.2329 6.06019
122 2 8.12052 9.48509 3.16831
123 2 7.92671 8.36885 4.8233
199 1 8.63383 9.17804 4.15172
365 2 6.69331 8.4567 1.31731
20 4 12.6066 8.03868 8.90503
148 2 14.4612 11.5656 6.79293
191 1 15.1072 12.4657 8.37505
323 2 8.7873 9.31273 8.81404
4 3 10.1597 12.2766 1.70439
370 3 9.02958 12.0369 4.12709
313 1 11.1503 9.81301 0.933862
309 4 10.9712 11.6325 0.544084
317 2 10.6667 9.84577 2.04449
331 2 11.3732 11.4206 5.57418
215 1 6.87391 8.07601 0.296981
334 1 10.7349 10.5861 6.00098
332 2 11.1788 9.56337 5.68125
105 2 11.7855 7.90127 2.56523
98 2 9.08283 7.14468 4.0844
19 4 8.91854 10.761 5.15209
124 2 9.69899 8.78055 3.99787
361 2 9.02436 6.76063 1.12159
106 2 10.9451 6.98836 4.26807
310 2 12.2832 9.7138 0.944882
40 4 13.959 9.54889 4.57188
146 2 12.4976 9.04402 3.76311
358 2 14.074 11.0264 1.13333
147 2 13.8315 9.63722 6.40687
201 1 14.5095 12.0126 1.0612
23 4 15.1171 12.1607 2.96014
88 2 14.8176 10.8626 9.16048
311 2 12.6434 12.2835 0.528516
221 1 6.87798 7.1826 6.07585
301 3 7.81004 10.8642 6.27871
64 4 6.96452 9.3522 8.65668
185 2 7.6524 8.40441 7.26427
235 3 12.0437 11.9577 8.17421
21 4 11.0092 10.6796 7.76921
234 3 11.6428 9.34516 8.27676
112 2 9.25176 10.926 8.52468
256 3 4.68596 6.03479 14.4908
58 4 5.65982 7.0858 10.7196
297 3 6.11855 8.4164 9.53937
324 2 7.87205 10.1988 10.7261
325 1 7.90181 10.6853 9.66795
292 3 6.97141 6.84887 11.5148
110 2 8.44218 12.59 9.81501
75 2 11.3208 12.0103 10.5419
22 4 12.1175 11.4533 11.8962
232 3 11.6838 7.1114 9.90817
291 3 9.75284 7.42005 11.8232
15 4 11.1417 6.82641 11.3512
264 3 13.2566 10.5351 11.3236
117 2 12.8878 8.15466 12.1451
100 2 14.0616 12.5458 9.9307
364 2 11.2825 6.49145 17.9004
97 2 6.25679 6.84307 18.0093
128 2 14.6643 11.9945 18.1439
322 2 7.06038 11.5003 9.43155
177 2 6.8647 9.60072 11.9289
61 4 8.30247 7.4476 12.3734
218 1 7.81088 9.30824 12.5456
174 2 7.80106 7.46631 14.9378
176 2 7.56252 9.22212 13.6775
63 4 6.90737 9.20537 17.5273
306 3 5.88186 8.90288 16.2916
217 1 8.28945 6.73533 14.2389
169 2 8.3251 7.11889 18.1749
197 1 12.2467 7.49079 12.8608
8 4 9.95193 12.2201 13.7062
126 2 11.2034 8.73954 15.8776
236 3 11.014 10.9669 12.9572
315 3 10.607 11.0363 17.2081
314 4 9.544 10.3845 16.1392
96 2 11.6045 8.05784 13.7201
316 3 8.86783 11.5675 14.6733
200 1 10.3807 9.04904 15.1432
318 2 10.7042 9.78196 14.1938
175 2 9.35757 6.56446 14.5012
178 2 8.68842 10.0683 12.4735
362 1 10.1974 6.5098 17.7202
125 2 9.60168 8.15385 14.809
363 2 9.87282 7.54506 17.4681
295 3 8.34876 9.6763 16.8565
116 2 11.373 6.06659 14.4728
336 2 13.8509 12.1188 16.7558
312 2 10.8664 8.58026 18.358
118 2 12.5962 6.47216 13.0887
319 2 14.7686 12.5901 14.5007
47 4 9.8399 1.33958 3.98976
68 2 17.0156 0.179613 7.37425
280 3 10.4616 2.44388 2.90579
273 3 10.9397 0.872004 5.0724
55 4 11.4813 3.51548 2.17203
281 3 11.9852 4.77547 3.27247
350 2 11.4087 1.33327 0.65041
35 4 20.0304 5.61608 5.88689
7 4 16.7368 1.74095 6.66881
166 2 13.7143 3.37347 1.47834
11 4 16.1279 4.53686 2.65261
225 3 15.3957 3.34332 3.42091
226 3 15.1816 5.37087 1.62151
223 3 16.0383 1.57743 5.23893
5 4 14.9792 1.99272 4.11137
89 2 15.355 0.636418 2.97222
51 4 12.5388 1.63142 5.67128
214 1 12.8651 2.53656 1.40859
272 3 13.507 1.64567 4.43441
349 2 14.2395 0.610519 0.895375
351 1 15.0814 0.076998 1.45107
360 2 12.9268 1.64307 2.19402
49 4 13.6567 -0.293778 7.96883
348 2 15.9989 -0.0841891 0.79667
2 2 16.8605 -0.0405779 2.31169
70 2 17.2901 3.71853 1.59069
244 3 17.0017 5.55135 3.46071
274 3 13.0807 0.72833 6.87682
209 1 18.1694 2.42942 0.536582
228 3 13.3868 6.21961 5.25432
12 4 12.3921 6.09641 3.97399
284 3 12.1522 3.04704 6.25441
283 3 11.0288 3.34233 8.78164
57 4 11.189 3.92668 7.24041
229 3 14.8656 5.2253 7.32207
227 3 16.1122 2.83195 7.57283
14 4 15.353 4.08359 8.3056
72 2 13.317 3.52095 9.04266
167 2 12.7222 2.23891 0.323997
269 3 8.99903 0.0182998 3.51319
347 2 10.0538 -0.0846469 6.23432
359 1 10.8758 0.108726 18.2551
329 2 16.783 0.658319 16.2346
345 2 10.2446 0.410994 10.2549
50 4 10.7411 2.60201 10.2021
288 3 14.1151 3.43969 9.66241
91 2 14.2213 3.35028 11.2937
279 3 11.9192 2.05895 11.211
355 2 13.9394 0.0166863 10.3451