ITEM: TIMESTEP
0
ITEM: NUMBER OF ATOMS
371
ITEM: BOX BOUNDS xy xz yz pp pp pp
4.2379536921030159e-01 2.4206161451652470e+01 7.0376476225697173e+00
-7.6100078109605018e-01 1.3049914374414435e+01 2.7370919829300294e-01
2.4470688386626271e-01 1.8395593116133643e+01 -5.2598640668172791e-01
ITEM: ATOMS id type x y z
130 2 3.84727 0.839633 3.43068
93 2 11.5451 5.56677 6.92216
131 2 2.55694 1.17346 4.89043
202 1 2.76729 1.03806 3.70416
138 2 3.33995 3.77656 5.5202
103 2 3.03262 0.711088 6.60478
32 4 4.1863 4.42315 2.27844
333 2 5.62136 0.406163 6.016
335 2 6.00219 2.13109 5.28834
137 2 4.92936 3.23053 4.88577
245 3 5.28468 3.43014 1.74337
204 1 4.80865 4.20906 4.39353
208 1 5.21439 1.44346 5.78082
136 2 5.83782 4.71128 4.39476
74 2 4.28143 1.31343 5.05273
282 3 10.7479 4.16905 0.606032
132 2 7.45047 2.27596 2.98156
30 4 6.78973 2.91299 1.55718
159 2 7.59507 1.50793 4.59099
203 1 7.77027 4.46656 1.4968
134 2 7.02439 5.26107 1.76505
183 2 8.14995 5.26171 4.0952
102 2 2.30656 2.51443 6.30964
341 2 3.15333 3.90634 3.68188
133 2 8.43415 4.16136 2.46336
303 3 6.91223 6.00493 6.20471
158 2 8.78058 1.47588 7.39615
76 2 8.69698 0.0987795 8.98624
157 2 8.18449 3.41867 4.30844
211 1 8.52092 2.34109 4.68208
59 4 8.88596 2.99203 6.47268
182 2 9.6558 5.42221 5.10117
184 2 9.70035 5.59384 3.25937
220 1 9.10071 5.83517 4.17055
258 3 4.17838 5.99577 2.01835
192 1 2.12791 1.3945 6.88804
104 2 2.17344 1.57831 8.05808
250 3 4.18928 5.674 7.32831
246 3 3.94418 3.53765 8.95111
149 2 4.92184 1.96046 6.75055
237 3 5.57922 1.35089 8.92397
33 4 4.84063 4.89313 8.56774
6 4 6.04579 -0.123168 8.66181
171 2 8.38075 4.39701 7.4824
170 2 7.59484 2.15643 8.60644
81 2 6.43636 4.31516 8.05402
216 1 7.446 2.76361 7.67677
101 2 7.13723 0.0920326 7.08647
172 2 6.553 2.3122 6.99777
287 3 10.6838 5.06741 6.62549
243 3 7.1719 1.99519 0.257816
3 2 2.19124 1.90123 3.08476
85 2 5.0072 6.12894 4.61818
56 4 9.44715 5.05801 0.309967
35 4 3.70699 5.55898 5.69885
10 4 1.90832 0.342713 10.9717
238 3 3.17665 1.27741 10.3613
224 3 2.10092 -0.291839 12.432
26 4 4.38824 2.30747 9.86208
241 3 4.9581 3.00869 11.2622
285 3 5.05018 5.86266 9.74135
343 1 4.85476 5.80819 17.0847
160 2 8.63291 3.09449 11.1931
161 2 9.11116 4.88325 10.8123
212 1 9.51186 3.93976 11.3165
94 2 11.0868 5.07593 11.2191
127 2 5.68941 -0.126328 11.8473
78 2 2.26317 1.64865 16.2384
251 3 2.83133 2.45999 16.0175
340 2 4.35544 4.26092 16.2251
28 4 4.24831 1.56569 15.1847
252 3 4.58015 2.35653 13.8913
36 4 5.53493 5.28824 15.4028
29 4 5.59496 2.68565 12.6015
240 3 5.51963 1.44907 16.2399
239 3 3.75138 0.0660827 14.6509
342 2 4.76606 5.71672 18.1564
319 2 7.66668 -0.176557 14.4397
165 2 5.97567 4.99406 12.7119
242 3 6.71271 1.13766 12.2016
135 2 8.24969 3.67369 17.819
213 1 6.7217 4.08406 13.0239
163 2 7.76622 4.06872 12.377
164 2 6.80407 3.90257 14.6943
24 4 7.09526 1.20487 16.6074
278 3 8.07613 2.15821 15.7612
27 4 8.02803 0.526459 12.8587
339 1 7.52623 -0.47793 16.0297
173 2 7.50699 5.71885 13.8701
367 2 9.78719 5.71708 16.8271
162 2 9.89372 4.04578 12.3885
53 4 9.39125 2.182 14.7537
289 3 10.0041 3.94707 14.7039
276 3 9.12189 1.76363 13.2059
168 2 6.64082 5.90697 16.7369
271 3 9.64712 1.31129 9.69523
60 4 11.3665 4.57427 14.5436
186 2 6.00336 8.13994 5.87061
122 2 8.70858 9.21437 3.39799
123 2 7.91012 8.29899 4.99815
199 1 8.77411 9.04783 4.5518
365 2 6.53539 8.56086 1.40693
20 4 12.6105 8.02975 8.97813
148 2 14.6777 11.5035 6.87702
191 1 15.0768 12.5845 8.36668
1 4 8.945 12.9012 2.86156
4 3 9.87333 12.2967 1.75368
370 3 8.8485 11.8317 4.09181
313 1 10.9611 9.80651 1.34761
309 4 10.9326 11.5217 0.593572
317 2 10.4271 10.103 2.37092
331 2 11.2502 11.6948 5.83123
312 2 10.5728 8.85686 0.803874
334 1 10.8111 10.7525 6.15828
332 2 11.5059 9.8302 5.87333
105 2 11.475 7.90633 2.84985
98 2 8.89849 6.98848 4.27491
19 4 8.84541 10.7282 5.29968
124 2 9.81944 8.71587 4.93337
361 2 9.08605 6.63421 1.39027
106 2 10.7463 6.73022 4.81761
310 2 12.1657 9.76696 1.46196
193 1 12.5007 7.48223 2.74248
146 2 12.3565 8.90783 4.08054
358 2 13.7732 11.0124 0.697625
215 1 6.83487 8.14774 0.382186
201 1 14.4306 11.954 0.795086
23 4 15.0051 12.1575 2.70427
337 2 13.5029 12.9695 2.00784
311 2 12.5205 12.2402 0.730916
221 1 6.54688 7.065 5.80307
301 3 7.72598 10.7437 6.47951
64 4 6.70566 9.25555 8.60728
185 2 7.14213 8.21981 7.23882
235 3 11.8888 12.1245 8.42383
21 4 11.0873 10.7799 7.94132
234 3 11.8916 9.35131 8.41669
112 2 9.43314 10.8656 8.87424
323 2 8.52148 9.11402 8.79718
259 3 14.4119 10.8284 3.71194
147 2 13.7907 9.55138 6.37968
88 2 14.7824 10.8698 9.22455
169 2 8.00492 7.83816 0.280679
256 3 4.85426 6.31822 14.338
58 4 5.55484 7.13934 10.6751
297 3 5.87299 8.33993 9.68691
324 2 7.67471 10.1549 10.7667
325 1 7.80428 10.6252 9.63988
292 3 7.02431 6.72145 11.425
110 2 8.70262 12.3261 9.78887
75 2 11.0302 12.057 10.383
22 4 12.0268 11.6086 11.6985
232 3 11.7084 7.22545 10.003
291 3 9.72646 7.50172 11.8958
15 4 11.1283 6.8383 11.4304
264 3 13.1035 10.5737 11.2717
117 2 13.1029 8.24331 12.2962
100 2 14.1675 12.6143 10.0569
366 2 11.4853 5.99031 16.8609
97 2 6.27605 6.89474 18.027
128 2 14.7322 11.9917 17.9199
268 3 15.6599 12.5481 12.0513
177 2 6.63649 9.49989 11.9494
61 4 8.08672 7.52753 12.4
218 1 7.52887 9.36855 12.6498
174 2 7.33771 7.39303 14.773
176 2 7.29053 9.37055 13.8109
63 4 7.03207 9.25853 17.4569
306 3 5.96204 9.09724 16.1827
217 1 8.06497 6.68232 14.2133
364 2 11.2184 6.67766 18.3202
197 1 12.2963 7.56541 12.7064
8 4 10.0648 12.2396 13.8144
126 2 11.1753 8.52956 15.6395
236 3 11.1022 11.1574 12.9755
315 3 10.6425 10.7972 17.1788
314 4 9.58091 10.2512 16.1655
96 2 11.5964 8.11922 13.5111
316 3 8.84779 11.5665 14.8561
200 1 10.3155 8.91178 15.0326
318 2 10.6803 9.56569 14.1625
175 2 8.99079 6.46633 14.7833
178 2 8.3582 10.0971 12.4475
362 1 10.1278 6.66029 18.1253
125 2 9.50464 8.00158 14.7176
363 2 9.75578 7.74124 17.9481
295 3 8.48623 9.44393 16.9627
116 2 11.2457 6.30861 14.4856
336 2 13.631 12.1404 16.2472
322 2 7.05325 11.4099 9.359
338 2 15.5073 12.5233 16.5367
43 4 14.328 9.89749 10.5662
47 4 9.83795 1.35946 3.85901
68 2 17.0102 0.358962 7.40475
280 3 10.5698 2.48359 2.81193
273 3 10.7993 0.886521 5.12756
55 4 11.5062 3.5133 2.05283
281 3 12.0397 4.8192 3.12503
350 2 11.3999 1.35989 0.554694
254 3 17.6953 1.6005 0.431521
7 4 16.646 1.8758 6.62277
166 2 13.7406 3.10127 1.73697
11 4 16.0694 4.52126 2.73622
225 3 15.1859 3.53124 3.69077
226 3 15.0808 5.35449 1.65485
223 3 16.0486 1.7421 5.18827
5 4 14.9371 2.01225 4.17766
89 2 15.3252 0.929419 2.73118
51 4 12.5457 1.37519 5.68495
214 1 12.8813 2.34275 1.4289
272 3 13.5467 1.32429 4.46171
349 2 14.1794 0.359842 0.490147
351 1 15.0967 0.0433079 1.19693
360 2 12.8799 1.43438 2.05868
167 2 12.8198 2.10087 0.327371
247 3 16.638 4.90552 9.17472
2 2 16.7797 -0.0988612 2.20972
70 2 17.1669 3.51427 1.80214
244 3 17.1753 5.3785 3.47936
274 3 12.9969 0.489838 6.91212
209 1 18.1916 2.63878 0.41196
352 2 15.8921 0.572025 8.8741
12 4 12.2174 6.1255 4.04919
284 3 12.3938 2.86017 6.23624
283 3 11.1254 3.37463 8.7707
57 4 11.3125 3.71896 7.20318
229 3 14.9309 5.29428 7.29369
227 3 16.119 2.95388 7.63344
14 4 15.4799 4.2555 8.35065
72 2 13.4515 3.8546 9.15862
347 2 10.1737 -0.286417 6.15444
348 2 16.0937 -0.100824 0.639171
354 1 14.8458 0.74473 9.27477
269 3 8.89894 0.041505 3.25267
153 2 19.1234 3.91864 1.42881
353 2 14.4869 1.83092 9.25251
359 1 10.7964 0.352529 18.0369
329 2 16.8655 0.40033 15.975
345 2 9.77279 0.644086 10.515
50 4 10.7289 2.66326 10.3758
288 3 14.2949 3.7831 9.78948
91 2 14.3006 3.51464 11.4248
279 3 11.8894 2.3424 11.3414
355 2 14.6317 0.222247 10.3258
69 2 16.106 0.627017 11.1858
141 2 18.0938 3.28162 11.1605
195 1 16.9388 1.47798 11.1589
111 2 16.9991 2.02994 12.2131
34 4 17.4717 5.62073 10.3535
187 2 17.0969 2.10415 10.1863
140 2 19.4879 4.4755 10.7417
205 1 18.5421 4.35483 11.3327
139 2 18.7014 4.67309 12.3968
277 3 10.6794 1.34222 15.4026
48 4 11.4885 0.368573 16.3293
369 1 12.2065 5.47521 16.0039
17 4 15.9745 4.18806 14.7652
231 3 15.3974 5.41158 13.7199
230 3 14.7798 3.02659 15.2458
253 3 16.8798 4.90517 15.8966
54 4 13.0211 2.82935 12.348
326 2 15.8247 0.382821 17.5595
368 2 12.6985 4.48699 16.3997
327 1 16.1051 0.926122 16.5669
92 2 13.7342 1.48993 13.118
330 2 13.3996 5.53323 17.9527
9 4 14.5776 1.40592 15.6383
270 3 13.1659 1.14691 16.5795
275 3 14.5992 0.303965 14.0664
290 3 12.322 3.92 13.3559
37 4 17.814 5.34918 17.0899
328 2 16.4745 2.07259 16.814
115 2 17.7464 3.4334 12.9824
151 2 18.2265 3.90821 17.9313
113 2 16.5649 2.12717 13.7884
114 2 18.0325 2.78555 14.8035
196 1 17.2306 3.03126 13.9583
356 2 9.92483 1.082 17.8862
152 2 19.4448 5.92786 16.7127
357 2 10.4563 -0.610763 18.392
304 3 21.8363 11.8366 7.37509
109 2 13.5879 7.98573 0.482351
66 4 22.6348 10.6654 6.64989
13 4 15.3289 6.56276 0.614679
83 2 14.8793 7.93055 4.10072
84 2 16.0352 9.18264 5.58612
207 1 15.1814 8.53678 5.82053
129 2 15.8261 11.4872 1.20847
344 2 19.886 7.83165 7.50975
31 4 17.831 6.75827 4.0228
257 3 18.4446 7.61903 2.82689
79 2 16.581 7.64935 4.76764
261 3 17.3556 9.77405 0.930866
145 2 17.3941 8.82512 1.14959
42 4 18.7929 8.22047 8.98698
180 2 19.014 10.6012 5.28345
39 4 20.0703 7.64478 2.25376
179 2 19.4984 11.5739 3.75919
219 1 19.3484 10.5296 4.25865
260 3 20.1183 8.42294 0.808121
181 2 18.5764 9.90762 3.70532
371 3 19.9195 11.1809 1.17768
40 4 13.9575 9.42721 4.46936
86 2 18.8687 9.79953 7.01622
293 3 20.9934 8.45054 3.29743
62 4 21.1305 9.96812 4.09286
46 4 21.7221 11.5274 1.48266
294 3 22.0707 11.0911 3.21384
302 3 21.7632 9.71958 5.83719
233 3 13.0834 7.09714 7.76024
80 2 15.5183 7.72927 6.68097
16 4 14.1605 6.54527 6.69421
41 4 19.4382 9.85217 0.311037
150 2 17.0258 10.1936 7.05242
99 2 16.8781 12.1594 8.86522
25 4 16.4214 11.8489 7.16258
346 1 18.4185 8.79131 7.03693
87 2 17.0936 8.66464 7.98134
77 2 18.1265 8.38595 6.00942
249 3 18.8285 6.34252 5.20577
49 4 20.9142 12.8118 8.18568
228 3 13.3383 6.3279 5.08974
296 3 22.6667 10.7931 0.362572
107 2 12.6213 6.70847 1.87828
71 2 13.2685 8.28904 2.54497
299 3 19.9254 12.0128 9.27759
120 2 13.8667 6.78919 11.781
263 3 14.135 8.50474 9.9681
52 4 22.1229 12.0944 14.2783
266 3 15.6005 10.0759 11.5255
248 3 16.5948 6.26155 11.6115
118 2 12.6929 6.44109 13.1136
300 3 17.8742 11.5952 11.1031
45 4 16.6266 11.2764 12.0736
262 3 18.2407 6.88397 9.68514
65 4 19.3089 11.0407 10.3929
298 3 19.0776 9.58344 9.76279
222 1 20.5938 10.9227 11.7963
190 2 20.2393 10.0553 12.4069
286 3 21.0877 7.53469 11.8708
189 2 21.56 10.7715 11.2211
307 3 21.3003 11.3117 15.2857
265 3 20.5166 8.90463 14.4057
90 2 22.2731 11.1454 12.8624
108 2 14.4013 6.73971 16.7838
18 4 15.3268 6.63072 12.6714
73 2 15.9554 7.95327 14.7258
198 1 15.7526 8.15357 13.6404
119 2 14.8302 8.77131 13.3935
156 2 15.3466 9.84285 15.7615
82 2 20.7968 6.81218 16.7868
67 4 20.8907 9.73066 15.7204
155 2 16.4198 10.562 17.2515
144 2 18.1351 7.78334 13.8491
255 3 17.0141 6.37476 17.9984
121 2 16.7115 8.47066 13.0036
44 4 17.4579 10.9798 15.1847
154 2 17.7296 9.10179 15.6267
210 1 16.3889 10.0194 16.1693
267 3 17.1244 11.0877 13.6727
305 3 18.2603 12.1599 15.9375
143 2 18.6007 7.36188 12.1041
188 2 20.6926 11.9155 12.4373
206 1 18.7437 7.12673 13.17
308 3 19.7679 9.42928 16.8453
38 4 20.5498 7.54382 13.4876
320 2 17.5975 9.24429 17.9285
194 1 14.114 6.44685 17.8885
95 2 12.9327 6.2246 15.5453
321 2 23.8281 12.138 14.6352
142 2 18.6016 6.0282 13.4137
ITEM: TIMESTEP
100
ITEM: NUMBER OF ATOMS
371
ITEM: BOX BOUNDS xy xz yz pp pp pp
4.2379536921030159e-01 2.4206161451652470e+01 7.0376476225697173e+00
-7.5192533797991690e-01 1.3049914374414435e+01 2.7370919829300294e-01
2.4470688386626271e-01 1.8395593116133643e+01 -5.1691096356559463e-01
ITEM: ATOMS id type x y z
130 2 3.82855 0.875226 3.41647
93 2 11.4693 5.67696 6.90374
131 2 2.51962 1.20316 4.89172
202 1 2.75654 1.13546 3.73301
138 2 3.23231 3.84515 5.41021
103 2 2.41141 0.614664 6.43002
32 4 4.07381 4.39286 2.35737
333 2 5.79183 0.570531 5.85694
335 2 5.89168 2.31446 5.35604
137 2 4.84892 3.22389 4.83981
245 3 5.35937 3.51686 1.91946
204 1 4.75311 4.23596 4.26997
208 1 5.21824 1.50783 5.77972
136 2 5.79225 4.58232 3.98393
74 2 4.3369 1.30006 5.02125
282 3 10.6718 4.23811 0.652432
132 2 7.31975 2.17276 3.24571
30 4 6.7993 2.87766 1.68024
159 2 7.67883 1.44486 5.03761
203 1 7.76499 4.43487 1.5296
134 2 6.91276 5.15743 1.84906
183 2 8.17927 5.38024 4.05936
102 2 2.24934 2.58739 6.15571
341 2 3.04694 3.67993 3.70692
133 2 8.5411 4.14137 2.4123
303 3 7.12794 5.98024 6.10153
158 2 8.79606 1.40451 7.45861
76 2 8.58925 0.111742 8.83549
157 2 7.93313 3.49479 4.68727
211 1 8.4301 2.2937 4.78228
59 4 8.83209 2.95015 6.5564
182 2 9.69222 5.57206 5.132
184 2 9.87065 5.63733 3.25515
220 1 9.16097 5.90175 4.13728
258 3 4.15349 5.98923 2.12424
192 1 2.10915 1.59033 6.90157
104 2 2.59981 1.73813 7.91022
250 3 4.10756 5.53842 7.31562
246 3 3.91832 3.60933 8.65415
149 2 4.75182 1.80696 6.80083
237 3 5.40653 1.31395 9.0898
33 4 4.82022 4.90229 8.5335
6 4 5.93731 -0.0695765 8.46265
171 2 8.05212 4.36348 7.49567
170 2 7.63563 2.08296 8.6487
81 2 6.42173 4.27213 8.12387
216 1 7.42616 2.69227 7.71714
101 2 7.20214 0.329148 7.01032
172 2 6.54703 2.28527 7.02915
287 3 10.6339 5.09061 6.67803
337 2 6.66423 -0.0519035 2.08529
3 2 2.27011 1.94971 3.09058
85 2 4.93628 6.09003 4.71689
342 2 4.25304 5.99607 0.300967
243 3 6.98918 2.06779 0.260263
10 4 1.96861 0.304624 10.8432
238 3 3.16616 1.22653 10.3008
224 3 2.32421 -0.400201 12.2785
26 4 4.36022 2.34183 9.83566
241 3 4.99504 3.05501 11.2326
285 3 4.96208 5.87566 9.80073
343 1 4.69093 5.64763 17.3204
160 2 8.61809 3.05056 11.0781
161 2 9.19235 4.78392 10.8182
212 1 9.49326 3.80139 11.1426
94 2 10.9251 5.08238 11.6644
127 2 5.71734 -0.184172 11.9003
78 2 2.41959 1.89561 16.2782
251 3 2.82841 2.60642 15.6621
340 2 3.80367 4.35135 16.4692
28 4 4.23646 1.44783 15.1096
252 3 4.59801 2.50152 13.8812
36 4 5.2365 5.04841 15.5437
29 4 5.6112 2.68045 12.6261
240 3 5.52069 1.36918 16.1305
239 3 3.77606 -0.0539366 14.5455
366 2 11.4385 5.88964 16.821
319 2 7.80198 -0.321251 14.589
165 2 6.51762 4.83468 12.8098
242 3 6.69895 1.05324 12.4351
135 2 8.15855 3.60234 17.8247
213 1 6.82618 3.86416 13.3353
163 2 7.89857 3.54825 13.025
164 2 6.3213 3.63446 15.0154
24 4 7.02792 1.28535 16.5981
278 3 8.05296 2.17119 15.731
27 4 8.08064 0.401013 13.0041
339 1 7.66618 -0.408866 16.2081
173 2 7.74006 5.54891 13.8545
367 2 9.66034 5.7013 16.7988
162 2 9.81434 3.79263 12.2236
53 4 9.456 2.26329 14.8424
289 3 9.96371 3.93027 14.5837
276 3 9.17238 1.62298 13.1981
168 2 6.41546 5.36097 17.0081
271 3 9.51461 1.20598 9.75495
60 4 11.4086 4.4274 14.3759
356 2 9.82932 0.970674 17.895
56 4 9.64581 4.561 18.336
338 2 8.61028 -0.597922 16.7502
254 3 1.72587 0.919531 18.3834
186 2 6.168 8.11618 5.89525
122 2 8.44169 9.32413 3.31707
123 2 8.05473 8.33538 4.97296
199 1 8.7809 9.11899 4.37951
365 2 6.63554 8.28167 1.36731
20 4 12.6492 8.00326 9.10308
148 2 14.5745 11.7159 6.6198
191 1 15.0073 12.6499 8.20493
1 4 9.0139 12.9608 2.82235
4 3 9.99172 12.2527 1.72614
370 3 8.72223 11.9441 4.00928
313 1 11.1881 9.90103 1.26138
309 4 10.9268 11.6246 0.59947
317 2 10.8888 10.0854 2.35221
331 2 11.0011 12.0009 5.84949
312 2 10.6724 8.89082 0.821429
334 1 10.6194 10.9699 6.14606
332 2 11.3479 10.1325 5.70445
105 2 11.5026 7.76829 2.78684
98 2 8.97782 7.02776 4.13154
19 4 8.87174 10.8202 5.25366
124 2 9.87467 8.80118 4.38106
361 2 9.0274 6.64641 1.38502
106 2 10.8983 6.79041 4.46954
310 2 12.3639 9.86396 1.06733
193 1 12.5889 7.38195 2.67663
146 2 12.429 8.83779 3.98895
358 2 13.7157 11.0387 1.00898
215 1 6.82818 8.06459 0.246485
201 1 14.3294 12.0287 0.964845
23 4 15.0177 12.2086 2.7898
88 2 14.5641 11.0405 9.12549
311 2 12.4655 12.4593 0.506203
221 1 6.77701 7.10867 5.96034
301 3 7.76609 10.8414 6.34503
64 4 6.8696 9.39359 8.57771
185 2 7.45413 8.33314 7.27627
235 3 11.9796 12.0614 8.20704
21 4 10.9891 10.8163 7.88984
234 3 11.7927 9.41448 8.40686
112 2 9.41445 11.0028 8.93118
323 2 8.66163 9.32961 8.75145
259 3 14.4584 10.8118 3.79319
147 2 13.8673 9.73375 6.34304
40 4 13.9583 9.52438 4.52006
256 3 4.96525 6.24551 14.405
58 4 5.71788 7.17934 10.7066
297 3 6.17852 8.46284 9.65974
324 2 7.83587 10.3937 10.8306
325 1 7.80493 10.6973 9.68967
292 3 7.11147 6.71688 11.4539
110 2 8.41826 12.4839 9.58038
75 2 11.0331 11.8111 10.413
22 4 12.0285 11.575 11.7837
232 3 11.6633 7.22375 10.1289
291 3 9.55454 7.36248 11.7998
15 4 11.059 6.78268 11.4807
264 3 13.177 10.6081 11.4135
117 2 12.7916 8.35899 12.2921
100 2 14.0289 12.6138 9.82039
43 4 14.3447 9.97902 10.572
97 2 6.1679 6.88557 17.9346
128 2 14.5142 12.033 18.041
268 3 15.636 12.6453 11.9094
177 2 6.83577 9.73636 12.1952
61 4 8.07777 7.54294 12.4129
218 1 7.79405 9.4928 12.7187
174 2 7.76451 7.08218 14.8936
176 2 7.66703 9.73625 13.8313
63 4 6.9659 9.27121 17.6257
306 3 5.89717 8.95463 16.2354
217 1 8.25793 6.61012 14.0747
169 2 8.19908 7.16792 18.2458
197 1 12.138 7.61121 12.8208
8 4 9.97805 12.3437 13.6615
126 2 11.1687 8.48423 15.9446
236 3 11.1381 11.1104 13.0731
315 3 10.6814 10.9278 17.1767
314 4 9.54275 10.3327 16.1294
96 2 11.4616 8.05593 13.72
316 3 8.75576 11.4434 14.7095
200 1 10.3481 8.86484 15.2628
318 2 10.8044 9.60839 14.3621
175 2 9.41137 6.48022 14.2175
178 2 8.66088 10.0297 12.2266
362 1 10.1537 6.65195 18.1997
125 2 9.57242 7.93223 14.8246
363 2 9.82577 7.688 17.9505
295 3 8.38239 9.64464 16.9004
116 2 11.3251 6.1373 14.3543
336 2 13.6879 12.3235 16.5801
322 2 6.91301 11.4857 9.53121
118 2 12.6183 6.62551 13.1554
364 2 11.3068 6.55776 18.3581
47 4 9.78477 1.32568 3.93139
68 2 17.1064 0.356557 7.29377
280 3 10.4455 2.36932 2.86918
273 3 10.9347 0.869874 5.18257
55 4 11.3474 3.52173 2.06396
281 3 12.0316 4.69964 3.1313
350 2 11.3087 1.48181 0.5764
153 2 19.0078 3.80726 1.43456
7 4 16.6562 1.88692 6.64249
166 2 13.6063 3.29366 1.64239
11 4 16.0394 4.47445 2.71972
225 3 15.0792 3.4714 3.60046
226 3 15.2397 5.38946 1.66643
223 3 16.1874 1.64434 5.18541
5 4 15.0329 1.95825 4.07749
89 2 15.4009 0.826007 2.69003
51 4 12.61 1.55215 5.71277
214 1 12.7919 2.53118 1.38291
272 3 13.5848 1.57471 4.47837
349 2 14.2273 0.589168 0.762661
351 1 15.1326 0.118592 1.28785
360 2 12.715 1.68584 2.24371
49 4 13.7758 -0.392722 8.01738
249 3 18.7194 6.25926 5.28664
2 2 16.9398 0.122845 2.0991
70 2 17.0089 3.31386 1.79739
244 3 17.0137 5.54375 3.42939
274 3 13.0519 0.622322 6.84812
209 1 18.1867 2.53942 0.442366
352 2 15.7564 0.399331 9.06531
12 4 12.3902 6.02749 3.97047
284 3 12.3479 2.98862 6.24141
283 3 11.198 3.43156 8.79981
57 4 11.3585 3.82029 7.23087
229 3 14.9191 5.20403 7.2297
227 3 15.9984 2.76868 7.73891
14 4 15.3921 4.14688 8.31443
72 2 13.3225 3.77415 9.14477
347 2 10.0616 -0.338621 5.93456
348 2 16.0318 0.00469977 0.672584
35 4 20.0619 5.57423 5.76756
269 3 8.92425 0.0793072 3.32928
359 1 10.7373 0.369046 18.0939
329 2 16.7859 0.714135 16.0233
345 2 10.0251 0.489743 10.2956
50 4 10.7367 2.59819 10.2446
288 3 14.1746 3.55885 9.69307
91 2 14.1582 3.48673 11.3215
279 3 11.9463 2.15002 11.2894
355 2 14.4089 0.0715917 10.2806
69 2 16.2424 0.963624 10.9736
141 2 18.0732 3.52588 11.1176
195 1 17.1893 1.6757 11.0346
111 2 17.2225 2.29478 12.1008
34 4 17.2948 5.86389 10.3834
187 2 17.2604 2.3527 10.0577
140 2 19.3446 4.74373 10.3147
205 1 18.5712 4.63129 11.1388
139 2 19.0185 4.95425 12.1496
277 3 10.5704 1.37973 15.6441
48 4 11.4606 0.309733 16.3936
152 2 19.3806 5.93904 16.5699
17 4 15.8823 4.16963 14.8363
231 3 15.1876 5.4032 13.9117
230 3 14.7698 3.06868 15.2884
253 3 16.8994 4.74854 16.0958
54 4 12.9358 2.77627 12.2393
326 2 15.7402 0.551545 17.6564
368 2 12.6744 4.36835 16.2948
327 1 15.9975 1.17264 16.6644
92 2 13.7349 1.46631 13.0497
330 2 13.7218 5.58997 17.9879
9 4 14.4582 1.49124 15.7133
270 3 13.1647 1.06269 16.6879
275 3 14.5453 0.432556 14.0717
290 3 12.4319 3.84634 13.2816
37 4 17.8883 5.23654 17.1953
328 2 16.2923 2.28534 16.9608
115 2 17.6429 3.92288 12.8177
151 2 18.7036 3.87599 18.0217
113 2 16.5005 2.39151 13.5567
114 2 18.05 3.02579 14.529
196 1 17.2252 3.34072 13.7902
142 2 18.7836 5.83356 13.1735
353 2 14.5001 1.80077 9.49049
354 1 14.6787 0.612596 9.36534
369 1 12.1518 5.36401 15.9497
247 3 16.4734 4.90127 9.32577
167 2 13.1661 1.51488 18.3879
304 3 22.1139 11.9963 7.33323
71 2 13.4022 8.22065 2.61858
66 4 22.6478 10.7706 6.5776
13 4 15.5891 6.61189 0.700082
83 2 14.8922 7.89335 4.19077
84 2 16.2194 9.33174 5.68243
207 1 15.3001 8.63368 5.80569
129 2 15.8999 11.5502 1.07729
344 2 19.6508 7.90425 7.41792
31 4 17.8511 6.73429 4.07381
257 3 18.606 7.64504 2.99674
79 2 16.6838 7.83561 4.75893
261 3 17.3589 9.67195 0.94674
145 2 17.5398 8.76603 1.21485
42 4 18.5625 8.31733 8.92679
180 2 19.3423 11.0623 5.33344
39 4 20.2136 7.71472 2.34968
179 2 19.6772 11.5702 3.586
219 1 19.4917 10.7056 4.28178
260 3 20.0477 8.47669 0.928792
181 2 18.6949 10.0633 3.84291
371 3 19.9512 11.2654 1.08852
107 2 12.6496 6.63191 1.73135
86 2 18.8875 9.86509 6.84278
293 3 21.243 8.4806 3.40461
62 4 21.2445 9.89049 4.12608
46 4 21.6682 11.6134 1.58432
294 3 21.9071 11.1549 3.26489
302 3 21.7987 9.70098 6.003
233 3 13.2317 7.16687 7.84429
80 2 15.5802 7.73113 6.48955
16 4 14.1981 6.5541 6.73136
41 4 19.4582 9.83721 0.331153
150 2 17.1503 10.2552 6.94723
99 2 16.8886 12.2776 8.56321
25 4 16.297 11.8392 6.99545
346 1 18.4347 8.79606 6.87179
87 2 16.9931 8.74618 7.91476
77 2 18.2419 8.51493 5.81334
296 3 22.6476 10.8244 0.562207
299 3 19.8655 12.0288 9.01906
228 3 13.4063 6.30423 5.20521
120 2 13.8023 6.99243 12.0116
263 3 13.9883 8.53296 10.0558
52 4 22.0657 12.1958 14.2487
266 3 15.6543 9.97618 11.4161
248 3 16.3567 6.23043 11.6468
95 2 12.9358 6.11918 15.5686
300 3 17.9206 11.5174 11.0506
45 4 16.5864 11.2824 12.0288
262 3 18.126 6.94055 9.59781
65 4 19.3152 10.9987 10.2266
298 3 19.0864 9.53179 9.7256
222 1 20.7283 11.0825 11.5341
190 2 20.549 10.1342 12.1338
286 3 21.2974 7.62016 11.8946
189 2 21.5827 10.8807 10.7784
307 3 21.264 11.2535 15.2445
265 3 20.5456 8.82252 14.2319
90 2 22.2864 11.5012 12.6897
108 2 14.7627 6.55589 16.6975
18 4 15.3148 6.50755 12.8003
73 2 15.5584 8.10576 14.8204
198 1 15.5546 8.11143 13.7078
119 2 14.7591 8.83592 13.3015
156 2 15.291 10.0886 15.2223
82 2 20.855 6.6788 17.0435
67 4 21.0912 9.68908 15.6976
155 2 15.9139 10.7207 16.9546
144 2 18.3031 7.40089 14.1753
255 3 17.2527 6.32133 18.155
121 2 16.6111 8.30371 13.2271
44 4 17.4986 10.7398 15.0806
154 2 17.337 9.01984 16.0769
210 1 16.1267 10.1553 16.0229
267 3 16.9884 10.8773 13.642
305 3 18.1805 11.9612 15.9099
143 2 18.4966 7.43034 12.3769
188 2 20.7678 12.0543 12.1499
206 1 18.8614 6.98313 13.2828
308 3 19.9363 9.46565 16.8778
38 4 20.6668 7.49095 13.4394
320 2 17.6348 9.06445 17.9175
194 1 14.4915 6.43539 17.8129
321 2 23.7985 12.1139 14.4268
109 2 14.1173 7.46311 18.3195
357 2 17.5992 12.5034 18.345
ITEM: TIMESTEP
200
ITEM: NUMBER OF ATOMS
371
ITEM: BOX BOUNDS xy xz yz pp pp pp
4.2379536921030159e-01 2.4206161451652470e+01 7.0376476225697173e+00
-7.4284989486378361e-01 1.3049914374414435e+01 2.7370919829300294e-01
2.4470688386626271e-01 1.8395593116133643e+01 -5.0783552044946134e-01
ITEM: ATOMS id type x y z
130 2 3.66205 1.34393 3.27981
93 2 11.3033 5.88144 7.04295
131 2 2.4149 1.29971 4.82555
202 1 2.57988 1.33473 3.62979
138 2 3.36676 3.92418 5.6086
103 2 2.25802 0.291293 6.1762
32 4 4.15231 4.40098 2.34391
333 2 5.09097 0.471118 6.21381
335 2 6.11135 1.76365 5.16776
137 2 4.89754 3.37686 4.9207
245 3 5.36378 3.54025 1.89608
204 1 4.74449 4.43427 4.30951
208 1 5.05342 1.5181 5.73218
136 2 5.7392 4.86877 4.02891
74 2 4.18235 1.49461 4.95709
282 3 10.5462 4.33513 0.814897
132 2 7.55703 2.428 3.16473
30 4 6.82752 2.97743 1.68661
159 2 7.43649 2.12684 4.83394
203 1 7.72229 4.60545 1.52406
134 2 6.86448 5.26387 1.80529
183 2 8.18805 5.51097 3.92232
102 2 2.45878 2.27193 6.31811
341 2 3.02743 3.86214 3.77825
133 2 8.51007 4.28365 2.40323
303 3 7.12948 6.03119 5.96442
158 2 8.54395 1.42901 7.59778
76 2 8.73059 -0.0308125 8.91639
157 2 8.98534 3.64095 4.55324
211 1 8.55261 2.36781 4.82468
59 4 8.88049 2.97446 6.63852
182 2 9.69755 5.60549 5.09843
184 2 9.86723 5.62864 3.25371
220 1 9.23142 6.00449 4.07344
258 3 4.08491 6.02154 1.9856
192 1 2.09367 1.19681 6.83992
104 2 2.4574 1.07676 7.91215
250 3 4.19258 5.76319 7.40591
246 3 3.99952 3.74876 8.92762
149 2 4.9231 2.30421 6.55255
237 3 5.49276 1.31822 8.92093
33 4 4.84909 5.0652 8.60981
6 4 5.97891 -0.176601 8.59819
171 2 8.09189 4.42822 7.55043
170 2 7.43988 2.34689 8.64896
81 2 6.48032 4.53032 8.10772
216 1 7.27327 2.86232 7.632
101 2 7.12043 0.0731967 7.11181
172 2 6.43445 2.37715 6.89399
287 3 10.4548 5.32409 6.7373
1 4 2.00229 -0.283379 2.89255
3 2 1.86395 2.05419 3.08668
85 2 4.96949 6.22288 4.83114
153 2 2.69639 3.65145 1.53196
243 3 7.01 1.95616 0.397658
337 2 6.58516 -0.198968 2.24152
10 4 1.97398 0.543636 10.891
238 3 3.10411 1.48184 10.2329
224 3 2.21138 -0.131427 12.2541
26 4 4.40988 2.31405 9.77277
241 3 5.29491 2.84215 11.149
285 3 5.11318 5.9708 9.83366
343 1 4.84525 5.68554 17.2153
160 2 8.65143 3.05058 11.0866
161 2 9.38378 4.82876 10.6354
212 1 9.56168 3.80907 11.2015
94 2 11.0296 5.07246 11.2413
127 2 5.77685 -0.363829 12.415
78 2 2.15491 1.95154 16.1321
251 3 2.66258 2.64789 15.6267
340 2 4.04607 4.13873 16.6367
28 4 4.08039 1.50176 15.0538
252 3 4.49102 2.34478 13.6748
36 4 5.27608 4.97078 15.5438
29 4 5.68457 2.556 12.6001
240 3 5.40188 1.47596 16.0808
239 3 3.71032 0.0428252 14.462
366 2 11.6128 5.69191 16.5482
342 2 4.84028 5.63199 18.3879
165 2 6.21781 4.84115 12.7756
242 3 6.77188 0.93845 12.5831
135 2 8.03547 3.75307 17.8638
213 1 6.75201 3.96946 13.2709
163 2 7.83451 3.74939 13.0724
164 2 6.40507 3.63008 14.9243
24 4 7.0583 1.26912 16.7313
278 3 8.00624 2.34887 16.0003
27 4 8.12956 0.27701 13.0336
339 1 7.55533 -0.438824 16.2957
173 2 7.73349 5.74919 14.1642
367 2 9.69999 5.66655 16.5124
162 2 9.85848 3.95918 12.2727
53 4 9.44587 2.2314 14.8978
289 3 10.0678 3.759 14.6939
276 3 9.05145 1.46802 13.491
168 2 6.59617 5.68 16.6905
56 4 9.62428 4.62358 18.3304
60 4 11.4855 4.35313 14.3457
254 3 1.78483 0.869462 18.2438
338 2 8.59087 -0.572368 16.7542
186 2 6.24997 8.23932 6.06075
122 2 8.11659 9.48828 3.16833
123 2 7.9211 8.37353 4.82402
199 1 8.62876 9.18223 4.15206
365 2 6.69354 8.4558 1.31829
20 4 12.598 8.04709 8.90539
148 2 14.4542 11.5732 6.7923
191 1 15.0986 12.4738 8.37534
323 2 8.77917 9.32007 8.8157
4 3 10.1579 12.2786 1.70464
370 3 9.02594 12.0405 4.12724
313 1 11.1496 9.81373 0.933697
309 4 10.9708 11.6331 0.544401
317 2 10.6612 9.84422 2.04158
331 2 11.3668 11.4268 5.57501
40 4 13.9545 9.55313 4.57175
334 1 10.7286 10.5924 6.00173
332 2 11.172 9.56952 5.68101
105 2 11.7848 7.90456 2.56826
98 2 9.07729 7.14933 4.08499
19 4 8.91325 10.7662 5.15214
124 2 9.69422 8.78434 3.99926
361 2 9.02496 6.75922 1.12282
106 2 10.94 6.99226 4.26839
310 2 12.2814 9.71742 0.949944
88 2 14.8046 10.8715 9.15896
146 2 12.4957 9.0485 3.7642
358 2 14.0744 11.0262 1.13485
147 2 13.8262 9.63969 6.40468
201 1 14.5096 12.0126 1.06163
23 4 15.1143 12.1639 2.96039
215 1 6.87489 8.07507 0.298203
311 2 12.6413 12.2832 0.528032
221 1 6.87197 7.18817 6.07709
301 3 7.80387 10.8709 6.27896
64 4 6.95664 9.3604 8.65616
185 2 7.64824 8.40569 7.27016
235 3 12.0359 11.966 8.17458
21 4 11.0017 10.6872 7.76975
234 3 11.6344 9.3533 8.27674
112 2 9.24371 10.934 8.52343
256 3 4.6719 6.04933 14.4913
58 4 5.64933 7.09632 10.7194
297 3 6.10894 8.42656 9.53971
324 2 7.86233 10.2086 10.7263
325 1 7.8927 10.6946 9.66751
292 3 6.96032 6.86047 11.5153
110 2 8.43201 12.6007 9.81691
75 2 11.3092 12.0202 10.5414
22 4 12.1057 11.465 11.8963
232 3 11.6741 7.12094 9.90902
291 3 9.74118 7.43216 11.8227
15 4 11.1306 6.83785 11.3516
264 3 13.2448 10.5455 11.3238
117 2 12.8756 8.16679 12.1457
100 2 14.0528 12.5556 9.93116
364 2 11.2656 6.50895 17.901
97 2 6.23924 6.85996 18.0109
128 2 14.6481 12.0116 18.1433
312 2 10.8529 8.59774 18.3542
177 2 6.85285 9.61216 11.9282
61 4 8.2906 7.45934 12.3734
218 1 7.79902 9.32019 12.5453
174 2 7.78815 7.47995 14.9385
176 2 7.5497 9.23507 13.677
63 4 6.89055 9.22298 17.5276
306 3 5.86531 8.91854 16.2923
217 1 8.276 6.74877 14.2391
169 2 8.30779 7.13562 18.1741
197 1 12.2341 7.50454 12.8611
8 4 9.93926 12.2333 13.7062
126 2 11.1887 8.75408 15.8772
236 3 11.0026 10.9794 12.958
315 3 10.5902 11.053 17.2083
314 4 9.52838 10.3997 16.1389
96 2 11.5914 8.07153 13.7201
316 3 8.85404 11.5809 14.6725
200 1 10.3658 9.06349 15.1434
318 2 10.6917 9.79717 14.1927
175 2 9.34358 6.57703 14.5012
178 2 8.67675 10.0804 12.4738
362 1 10.1801 6.52727 17.7199
125 2 9.58837 8.16732 14.8082
363 2 9.85568 7.56342 17.4691
295 3 8.33234 9.69277 16.8564
116 2 11.3582 6.08061 14.4718
336 2 13.8351 12.1354 16.7559
322 2 7.05024 11.5102 9.42904
118 2 12.5855 6.4888 13.0913
319 2 14.7556 12.604 14.5004
47 4 9.83625 1.34388 3.98989
68 2 17.0099 0.187237 7.3759
280 3 10.4587 2.44672 2.90583
273 3 10.9359 0.875801 5.07312
55 4 11.4795 3.51746 2.17237
281 3 11.9824 4.7781 3.27254
350 2 11.4103 1.33457 0.651327
35 4 20.0255 5.62178 5.88665
7 4 16.7308 1.74728 6.66937
166 2 13.7132 3.37587 1.48071
11 4 16.1256 4.53929 2.65257
225 3 15.3931 3.34563 3.4203
226 3 15.1813 5.37233 1.62024
223 3 16.0322 1.58154 5.24007
5 4 14.9748 1.99646 4.11162
89 2 15.3493 0.639051 2.97318
51 4 12.5334 1.63693 5.67184
214 1 12.8645 2.53874 1.41006
272 3 13.502 1.65142 4.43472
349 2 14.2356 0.607422 0.89556
351 1 15.0797 0.0777478 1.45033
360 2 12.9254 1.64472 2.19445
49 4 13.6497 -0.286453 7.96801
348 2 15.998 -0.0766622 0.797758
2 2 16.8596 -0.0373746 2.31216
70 2 17.2882 3.72146 1.58949
244 3 16.9979 5.55486 3.46113
274 3 13.0751 0.73519 6.87704
209 1 18.1678 2.4302 0.537644
228 3 13.3805 6.22534 5.25452
12 4 12.3884 6.10017 3.97272
284 3 12.1459 3.05289 6.25445
283 3 11.0199 3.34994 8.78109
57 4 11.1822 3.93342 7.24016
229 3 14.858 5.23187 7.32241
227 3 16.1059 2.83923 7.57302
14 4 15.3455 4.09123 8.30557
72 2 13.309 3.52815 9.0411
167 2 12.7207 2.24313 0.324989
269 3 8.99585 0.0217073 3.51379
347 2 10.049 -0.0785257 6.23564
359 1 10.8589 0.126423 18.2558
329 2 16.7677 0.674124 16.2352
345 2 10.2339 0.42067 10.2541
50 4 10.7308 2.6121 10.202
288 3 14.106 3.44753 9.66165
91 2 14.2091 3.36388 11.2937
279 3 11.9084 2.07085 11.2112