LAMMPS (2 Aug 2023 - Update 2)
  using 1 OpenMP thread(s) per MPI task
Reading data file ...
  triclinic box = (0 0 0) to (15.724 13.9031 17.2465) with tilt (-7.584 0.1778 0.4371)
WARNING: Triclinic box skew is large. LAMMPS will run inefficiently. (src/domain.cpp:220)
  1 by 2 by 2 MPI processor grid
  reading atoms ...
  366 atoms
Finding 1-2 1-3 1-4 neighbors ...
  special bond factors lj:    0        0        0       
  special bond factors coul:  0        0        0       
     0 = max # of 1-2 neighbors
     0 = max # of 1-3 neighbors
     0 = max # of 1-4 neighbors
     1 = max # of special neighbors
  special bonds CPU = 0.000 seconds
  read_data CPU = 0.007 seconds
WARNING: Van der Waals parameters for element SI indicate inner wall+shielding, but earlier atoms indicate a different van der Waals method. This may cause division-by-zero errors. Keeping van der Waals setting for earlier atoms. (src/REAXFF/reaxff_ffield.cpp:251)
*****Minimization starts.*****

CITE-CITE-CITE-CITE-CITE-CITE-CITE-CITE-CITE-CITE-CITE-CITE-CITE

Your simulation uses code contributions which should be cited:
- pair reaxff command: doi:10.1016/j.parco.2011.08.005
- fix qeq/reaxff command: doi:10.1016/j.parco.2011.08.005
The log file lists these citations in BibTeX format.

CITE-CITE-CITE-CITE-CITE-CITE-CITE-CITE-CITE-CITE-CITE-CITE-CITE

Switching to 'neigh_modify every 1 delay 0 check yes' setting during minimization
WARNING: Fix qeq/reaxff group is not charge neutral, net charge = -29.52 (src/REAXFF/fix_qeq_reaxff.cpp:392)
Neighbor list info ...
  update: every = 1 steps, delay = 0 steps, check = yes
  max neighbors/atom: 2000, page size: 100000
  master list distance cutoff = 12
  ghost atom cutoff = 12
  binsize = 6, bins = 4 3 3
  2 neighbor lists, perpetual/occasional/extra = 2 0 0
  (1) pair reaxff, perpetual
      attributes: half, newton off, ghost
      pair build: half/bin/newtoff/ghost
      stencil: full/ghost/bin/3d
      bin: standard
  (2) fix qeq/reaxff, perpetual, copy from (1)
      attributes: half, newton off
      pair build: copy
      stencil: none
      bin: none
Setting up cg style minimization ...
  Unit style    : real
  Current step  : 0
Per MPI rank memory allocation (min/avg/max) = 162.9 | 164.6 | 166.1 Mbytes
   Step          Temp          Press         Density         Volume         PotEng    
         0   0             -891.25897      1.8952586      3770.2978     -40261.317    
        43   0             -15924.322      1.8952586      3770.2978     -41381.081    
Loop time of 6.11401 on 4 procs for 43 steps with 366 atoms

97.7% CPU use with 4 MPI tasks x 1 OpenMP threads

Minimization stats:
  Stopping criterion = energy tolerance
  Energy initial, next-to-last, final = 
     -40261.3171097201  -41381.0564689357  -41381.0806981587
  Force two-norm initial, final = 1496.093 147.47464
  Force max component initial, final = 339.9256 68.09964
  Final line search alpha, max atom move = 0.0078573473 0.53508252
  Iterations, force evaluations = 43 133

MPI task timing breakdown:
Section |  min time  |  avg time  |  max time  |%varavg| %total
---------------------------------------------------------------
Pair    | 4.5172     | 4.6108     | 4.7733     |   4.9 | 75.41
Bond    | 0.00031736 | 0.00032097 | 0.00033069 |   0.0 |  0.01
Neigh   | 0          | 0          | 0          |   0.0 |  0.00
Comm    | 0.053891   | 0.21648    | 0.31001    |  22.6 |  3.54
Output  | 0.009334   | 0.011315   | 0.012458   |   1.1 |  0.19
Modify  | 1.2682     | 1.2682     | 1.2683     |   0.0 | 20.74
Other   |            | 0.006813   |            |       |  0.11

Nlocal:           91.5 ave          93 max          88 min
Histogram: 1 0 0 0 0 0 0 0 1 2
Nghost:         4172.5 ave        4209 max        4132 min
Histogram: 1 1 0 0 0 0 0 0 0 2
Neighs:        60451.5 ave       61385 max       58229 min
Histogram: 1 0 0 0 0 0 0 0 1 2

Total # of neighbors = 241806
Ave neighs/atom = 660.67213
Ave special neighs/atom = 0
Neighbor list builds = 0
Dangerous builds = 0
System init for write_data ...
##### Equilibration starts.##### 
WARNING: Compute rdf cutoff less than neighbor cutoff - forcing a needless neighbor list build (src/compute_rdf.cpp:179)
Neighbor list info ...
  update: every = 10 steps, delay = 0 steps, check = yes
  max neighbors/atom: 2000, page size: 100000
  master list distance cutoff = 12
  ghost atom cutoff = 12
  binsize = 6, bins = 4 3 3
  3 neighbor lists, perpetual/occasional/extra = 2 1 0
  (1) pair reaxff, perpetual
      attributes: half, newton off, ghost
      pair build: half/bin/newtoff/ghost
      stencil: full/ghost/bin/3d
      bin: standard
  (2) compute rdf, occasional
      attributes: half, newton on, cut 7
      pair build: half/bin/newton/tri
      stencil: half/bin/3d/tri
      bin: standard
  (3) fix qeq/reaxff, perpetual, copy from (1)
      attributes: half, newton off
      pair build: copy
      stencil: none
      bin: none
Setting up Verlet run ...
  Unit style    : real
  Current step  : 0
  Time step     : 0.5
Per MPI rank memory allocation (min/avg/max) = 167.8 | 169.1 | 170.3 Mbytes
   Step          Temp          Press          PotEng         TotEng    
         0   300           -11967.819     -41381.081     -41054.682    
       100   205.54356      8169.0766     -41249.453     -41025.822    
       200   224.48558     -10289.337     -41204.12      -40959.88     
       300   268.72228      13738.693     -41184.871     -40892.502    
       400   289.512        14842.065     -41147.779     -40832.791    
       500   324.52302      4985.5418     -41153.145     -40800.065    
       600   303.3855       1844.981      -41134.43      -40804.348    
       700   291.58985     -39.56022      -41136.919     -40819.67     
       800   303.57386      3023.2476     -41142.874     -40812.587    
       900   305.47171      10601.275     -41129.538     -40797.186    
      1000   304.05143      3047.0669     -41120.748     -40789.941    
      1100   300.83253     -529.76792     -41119.781     -40792.477    
      1200   300.62227      10793.811     -41136.065     -40808.989    
      1300   307.36191      2817.6226     -41153.486     -40819.078    
      1400   299.12264     -111.28043     -41156.187     -40830.743    
      1500   286.97849      6625.237      -41133.355     -40821.124    
      1600   311.56902     -3669.4876     -41137.095     -40798.109    
      1700   299.3938      -10153.237     -41120.956     -40795.217    
      1800   293.56773      2758.4584     -41133.142     -40813.742    
      1900   293.36048     -251.68239     -41165.888     -40846.713    
      2000   286.35967      5503.0844     -41155.279     -40843.721    
      2100   303.27025     -6699.968      -41155.178     -40825.221    
      2200   298.50186     -340.1374      -41140.362     -40815.593    
      2300   287.36952     -1894.9558     -41125.435     -40812.779    
      2400   310.94673      10764.92      -41138.82      -40800.511    
      2500   302.75294      3481.9375     -41124.88      -40795.486    
      2600   289.28909      543.12188     -41126.405     -40811.66     
      2700   283.71298     -3096.5444     -41143.9       -40835.221    
      2800   312.44753     -1294.8693     -41178.183     -40838.241    
      2900   319.41744      3742.6232     -41169.351     -40821.826    
      3000   308.3353      -1522.7394     -41135.2       -40799.733    
      3100   295.76374     -2741.9571     -41122.364     -40800.575    
      3200   275.26043      6133.6375     -41137.549     -40838.066    
      3300   305.49591      5187.6211     -41176.725     -40844.346    
      3400   301.97729     -3494.3309     -41163.256     -40834.706    
      3500   298.27329      9280.9287     -41137.671     -40813.151    
      3600   292.93053     -374.13081     -41116.262     -40797.554    
      3700   313.98475      2607.2645     -41129.732     -40788.118    
      3800   291.96428      14452.159     -41109.759     -40792.103    
      3900   288.82419     -5973.2099     -41130.86      -40816.621    
      4000   282.66108      8461.5146     -41145.872     -40838.338    
      4100   294.46336     -12224.627     -41154.738     -40834.363    
      4200   301.62787     -9513.9828     -41129.722     -40801.552    
      4300   314.69841      3653.4425     -41133.939     -40791.548    
      4400   311.22811     -8205.4349     -41150.031     -40811.416    
      4500   284.27296      5947.2051     -41146.246     -40836.958    
      4600   278.19453     -4257.1146     -41143.516     -40840.841    
      4700   300.04586      3811.851      -41148.928     -40822.479    
      4800   302.72836      444.27245     -41132.787     -40803.42     
      4900   325.98565     -10611         -41162.952     -40808.281    
      5000   275.69455      7393.4745     -41157.449     -40857.495    
      5100   311.59212      7170.4381     -41183.901     -40844.89     
      5200   290.12201     -5219.9543     -41139.102     -40823.45     
      5300   306.53636      4213.9492     -41137.455     -40803.945    
      5400   308.66631     -14650.203     -41124.915     -40789.088    
      5500   307.75674     -5856.2069     -41140.392     -40805.555    
      5600   285.96974     -9231.7688     -41159.006     -40847.872    
      5700   276.92351      706.97307     -41143.652     -40842.361    
      5800   309.63541     -4917.8437     -41159.997     -40823.115    
      5900   323.006       -4142.9989     -41155.753     -40804.324    
      6000   303.21689     -1768.8964     -41137.633     -40807.734    
      6100   289.01878     -6122.7497     -41144.04      -40829.589    
      6200   301.20518      8290.4382     -41157.419     -40829.709    
      6300   298.70497      7548.277      -41150.586     -40825.596    
      6400   315.15872      1527.4914     -41157.917     -40815.025    
      6500   298.01881     -6481.9185     -41133.176     -40808.933    
      6600   314.83106     -3428.1944     -41151.232     -40808.697    
      6700   313.70429     -4654.6718     -41148.278     -40806.969    
      6800   303.30187     -3627.5556     -41133.398     -40803.407    
      6900   296.92419      1920.4641     -41129.519     -40806.467    
      7000   296.33193      6285.0247     -41159.565     -40837.157    
      7100   302.58869      6590.3128     -41177.074     -40847.858    
      7200   288.43226     -8226.8242     -41147.576     -40833.763    
      7300   298.37992      1704.8746     -41139.629     -40814.993    
      7400   286.84335     -16671.016     -41129.893     -40817.809    
      7500   309.07821     -4254.3799     -41163.668     -40827.393    
      7600   281.77788     -10167.444     -41154.466     -40847.893    
      7700   270.99404      1893.8175     -41145.486     -40850.646    
      7800   324.18389      13436.767     -41157.757     -40805.046    
      7900   312.71337      6541.7495     -41143.04      -40802.809    
      8000   303.63428      2531.3488     -41148.974     -40818.621    
      8100   301.31063     -1757.7424     -41164.076     -40836.251    
      8200   291.33225      866.89599     -41156.463     -40839.495    
      8300   308.17916      12220.391     -41151.688     -40816.39     
      8400   298.31393     -6569.0233     -41117.103     -40792.538    
      8500   292.88009     -1655.8174     -41119.047     -40800.394    
      8600   292.91483     -558.42228     -41147.935     -40829.245    
      8700   269.20306     -225.6443      -41140.164     -40847.273    
      8800   295.07554     -368.43017     -41162.983     -40841.943    
      8900   301.44871      1277.9957     -41153.625     -40825.65     
      9000   328.29684     -5523.1344     -41163.151     -40805.965    
      9100   320.87488      3745.4294     -41170.568     -40821.457    
      9200   296.90684      8236.2135     -41178.778     -40855.744    
      9300   304.87326     -9802.7712     -41173.619     -40841.919    
      9400   297.90265     -4237.8719     -41143.362     -40819.246    
      9500   298.85347      2287.8836     -41128.511     -40803.359    
      9600   305.03887      7432.9186     -41118.227     -40786.346    
      9700   305.04445     -7252.5807     -41120.663     -40788.776    
      9800   308.99433     -1874.8787     -41170.577     -40834.393    
      9900   294.39814     -1073.5287     -41156.675     -40836.371    
     10000   308.06463      2768.9619     -41158.236     -40823.063    
     10100   321.17057     -7886.3625     -41150.449     -40801.016    
     10200   303.68593     -4444.0783     -41130.617     -40800.208    
     10300   292.15187     -3588.7915     -41156.864     -40839.004    
     10400   282.12306      8308.9231     -41163.077     -40856.128    
     10500   296.09712     -2846.9312     -41163.55      -40841.398    
     10600   305.3607       9821.6673     -41146.871     -40814.64     
     10700   288.40033      5592.8814     -41127.824     -40814.045    
     10800   292.35347     -15827.328     -41131.681     -40813.601    
     10900   315.60363     -1452.2431     -41157.749     -40814.374    
     11000   297.75502      8875.8183     -41169.492     -40845.536    
     11100   288.18364      781.91766     -41172.881     -40859.339    
     11200   292.62422      2241.0482     -41158.905     -40840.531    
     11300   314.91874     -896.05012     -41152.086     -40809.456    
     11400   305.26744      4060.1337     -41141.866     -40809.736    
     11500   307.60166     -3865.136      -41156.267     -40821.598    
     11600   305.99619      9166.6703     -41173.278     -40840.355    
     11700   285.48222      12185.516     -41173.218     -40862.614    
     11800   281.05997      9711.3953     -41173.421     -40867.629    
     11900   303.96279     -859.52513     -41166.621     -40835.911    
     12000   311.0175      -397.8552      -41154.028     -40815.642    
     12100   313.46593     -987.68662     -41146.685     -40805.635    
     12200   302.47487      7100.045      -41133.623     -40804.532    
     12300   281.25636      2792.0845     -41139.259     -40833.253    
     12400   281.92726     -756.26616     -41159.262     -40852.526    
     12500   296.25691      5178.6462     -41166.584     -40844.257    
     12600   308.494       -9250.6881     -41151.327     -40815.687    
     12700   298.25477      1005.0497     -41141.614     -40817.114    
     12800   305.48515     -2291.2181     -41153.871     -40821.504    
     12900   296.20486      2629.7393     -41155.452     -40833.183    
     13000   283.42182     -9923.481      -41149.914     -40841.553    
     13100   298.33593     -2670.2106     -41163.544     -40838.956    
     13200   303.86488      591.80985     -41144.114     -40813.51     
     13300   302.07658      6727.9491     -41132.743     -40804.085    
     13400   305.7379       3509.2706     -41148.863     -40816.222    
     13500   285.46367     -4183.4669     -41147.568     -40836.985    
     13600   269.50783      419.83953     -41147.226     -40854.003    
     13700   299.62465      2094.3569     -41158.77      -40832.779    
     13800   306.80494      5315.0346     -41132.739     -40798.936    
     13900   326.13973     -3564.1402     -41156.094     -40801.256    
     14000   315.11914     -2493.3615     -41167.188     -40824.34     
     14100   292.84345     -7609.4928     -41157.81      -40839.198    
     14200   297.48036      4977.9037     -41162.786     -40839.129    
     14300   299.87436     -5493.5425     -41159.807     -40833.545    
     14400   308.38785      711.09936     -41162.666     -40827.142    
     14500   294.78622     -9727.2164     -41149.441     -40828.715    
     14600   307.40983     -6900.5587     -41156.626     -40822.166    
     14700   317.78373      8307.2561     -41156.515     -40810.767    
     14800   318.89723      5163.2506     -41134.483     -40787.524    
     14900   304.85798      9932.345      -41131.704     -40800.02     
     15000   305.37525     -1364.36       -41162.737     -40830.491    
     15100   311.73167      1974.8495     -41175.193     -40836.03     
     15200   302.25474      880.10106     -41159.761     -40830.909    
     15300   300.85653     -364.93018     -41141.749     -40814.418    
     15400   326.10574     -2486.3478     -41140.519     -40785.718    
     15500   304.47356      4892.933      -41118.413     -40787.147    
     15600   307.20713      3880.2925     -41152.663     -40818.423    
     15700   289.8462      -3433.4619     -41142.945     -40827.594    
     15800   283.50831     -5728.0291     -41136.234     -40827.778    
     15900   311.84594     -2488.7055     -41149.771     -40810.484    
     16000   331.21894      620.30871     -41149.666     -40789.301    
     16100   276.99505     -9284.9264     -41122.13      -40820.76     
     16200   288.86942      8828.6617     -41155.239     -40840.95     
     16300   302.79553     -957.90477     -41165.281     -40835.84     
     16400   305.98036     -1927.6538     -41153.992     -40821.087    
     16500   313.34823      1555.8448     -41136.063     -40795.141    
     16600   308.9005      -4018.0164     -41138.126     -40802.043    
     16700   295.93687     -3929.668      -41166.715     -40844.737    
     16800   290.92295      7265.9642     -41164.055     -40847.532    
     16900   301.60382     -6561.279      -41148.217     -40820.073    
     17000   295.04861     -2415.3533     -41133.685     -40812.673    
     17100   326.18701      867.05354     -41169.127     -40814.237    
     17200   270.59594      14021.677     -41146.964     -40852.556    
     17300   282.86196     -1518.124      -41169.399     -40861.647    
     17400   300.90113      3070.2363     -41176.432     -40849.053    
     17500   299.3953      -2595.3528     -41149.827     -40824.086    
     17600   309.9277       10162.481     -41157.661     -40820.461    
     17700   298.31169      3672.0752     -41147.219     -40822.658    
     17800   307.82744      7810.5195     -41143.576     -40808.661    
     17900   306.02907     -602.06747     -41114.155     -40781.197    
     18000   311.17922     -6700.2224     -41133.591     -40795.03     
     18100   305.73079     -546.73488     -41164.286     -40831.652    
     18200   298.22127     -1544.8236     -41163.186     -40838.723    
     18300   290.5834       9079.5783     -41154.608     -40838.455    
     18400   290.01333      3480.473      -41135.214     -40819.681    
     18500   304.89233     -8772.6143     -41123.859     -40792.137    
     18600   301.52095      1929.4462     -41130.987     -40802.933    
     18700   297.36729      4451.1536     -41142.104     -40818.57     
     18800   300.28301     -5336.5082     -41150.92      -40824.213    
     18900   302.81472     -2470.6026     -41154.858     -40825.396    
     19000   298.46449     -7452.296      -41146.314     -40821.586    
     19100   304.47757      3731.6727     -41152.935     -40821.664    
     19200   296.93659     -4573.823      -41137.925     -40814.859    
     19300   293.26639      4190.0282     -41144.395     -40825.323    
     19400   280.54752      2889.8081     -41148.966     -40843.731    
     19500   286.54885      1250.7224     -41166.809     -40855.046    
     19600   298.44393     -985.09303     -41173.268     -40848.563    
     19700   313.56815      11604.591     -41150.814     -40809.653    
     19800   303.72906     -988.72642     -41136.698     -40806.242    
     19900   306.57598      344.45915     -41137.147     -40803.593    
     20000   290.99        -7581.0556     -41137.046     -40820.45     
Loop time of 790.198 on 4 procs for 20000 steps with 366 atoms

Performance: 1.093 ns/day, 21.950 hours/ns, 25.310 timesteps/s, 9.264 katom-step/s
98.9% CPU use with 4 MPI tasks x 1 OpenMP threads

MPI task timing breakdown:
Section |  min time  |  avg time  |  max time  |%varavg| %total
---------------------------------------------------------------
Pair    | 665.75     | 675.74     | 687.91     |  33.1 | 85.52
Bond    | 0.043214   | 0.044901   | 0.04623    |   0.6 |  0.01
Neigh   | 9.712      | 9.8263     | 9.9664     |   2.9 |  1.24
Comm    | 4.794      | 16.995     | 27.027     | 209.7 |  2.15
Output  | 0.075334   | 0.17609    | 0.33502    |  25.9 |  0.02
Modify  | 86.811     | 86.902     | 87.146     |   1.5 | 11.00
Other   |            | 0.51       |            |       |  0.06

Nlocal:           91.5 ave          98 max          85 min
Histogram: 1 0 0 1 0 0 1 0 0 1
Nghost:        4261.25 ave        4285 max        4233 min
Histogram: 1 0 0 0 1 0 1 0 0 1
Neighs:          61399 ave       65375 max       57284 min
Histogram: 1 0 0 1 0 0 1 0 0 1

Total # of neighbors = 245596
Ave neighs/atom = 671.02732
Ave special neighs/atom = 0
Neighbor list builds = 282
Dangerous builds = 0
System init for write_data ...
WARNING: Compute rdf cutoff less than neighbor cutoff - forcing a needless neighbor list build (src/compute_rdf.cpp:179)
Total wall time: 0:13:16
