LAMMPS (2 Aug 2023 - Update 2)
  using 1 OpenMP thread(s) per MPI task
Reading data file ...
  triclinic box = (0 0 0) to (14.7487 13.4318 16.6096) with tilt (-6.1972 -1.0047 -1.8606)
  2 by 2 by 2 MPI processor grid
  reading atoms ...
  271 atoms
Finding 1-2 1-3 1-4 neighbors ...
  special bond factors lj:    0        0        0       
  special bond factors coul:  0        0        0       
     0 = max # of 1-2 neighbors
     0 = max # of 1-3 neighbors
     0 = max # of 1-4 neighbors
     1 = max # of special neighbors
  special bonds CPU = 0.001 seconds
  read_data CPU = 0.008 seconds
WARNING: Van der Waals parameters for element SI indicate inner wall+shielding, but earlier atoms indicate a different van der Waals method. This may cause division-by-zero errors. Keeping van der Waals setting for earlier atoms. (src/REAXFF/reaxff_ffield.cpp:251)
System init for write_restart ...
WARNING: Fix qeq/reaxff group is not charge neutral, net charge = -9.02 (src/REAXFF/fix_qeq_reaxff.cpp:392)
Neighbor list info ...
  update: every = 1 steps, delay = 0 steps, check = yes
  max neighbors/atom: 2000, page size: 100000
  master list distance cutoff = 12
  ghost atom cutoff = 12
  binsize = 6, bins = 4 3 3
  2 neighbor lists, perpetual/occasional/extra = 2 0 0
  (1) pair reaxff, perpetual
      attributes: half, newton off, ghost
      pair build: half/bin/newtoff/ghost
      stencil: full/ghost/bin/3d
      bin: standard
  (2) fix qeq/reaxff, perpetual, copy from (1)
      attributes: half, newton off
      pair build: copy
      stencil: none
      bin: none
  using 1 OpenMP thread(s) per MPI task
Reading restart file ...
  restart file = 2 Aug 2023, LAMMPS = 2 Aug 2023
  restoring atom style full from restart
  triclinic box = (0 0 0) to (14.7487 13.4318 16.6096) with tilt (-6.1972 -1.0047 -1.8606)
  2 by 2 by 2 MPI processor grid
  pair style reaxff stores no restart info
  271 atoms
Finding 1-2 1-3 1-4 neighbors ...
  special bond factors lj:    0        0        0       
  special bond factors coul:  0        0        0       
     0 = max # of 1-2 neighbors
     0 = max # of 1-3 neighbors
     0 = max # of 1-4 neighbors
     1 = max # of special neighbors
  special bonds CPU = 0.000 seconds
  read_restart CPU = 0.004 seconds
*****Positive-deform 3 starts.*****
WARNING: Van der Waals parameters for element SI indicate inner wall+shielding, but earlier atoms indicate a different van der Waals method. This may cause division-by-zero errors. Keeping van der Waals setting for earlier atoms. (src/REAXFF/reaxff_ffield.cpp:251)

CITE-CITE-CITE-CITE-CITE-CITE-CITE-CITE-CITE-CITE-CITE-CITE-CITE

Your simulation uses code contributions which should be cited:
- pair reaxff command: doi:10.1016/j.parco.2011.08.005
- fix qeq/reaxff command: doi:10.1016/j.parco.2011.08.005
The log file lists these citations in BibTeX format.

CITE-CITE-CITE-CITE-CITE-CITE-CITE-CITE-CITE-CITE-CITE-CITE-CITE

WARNING: Compute rdf cutoff less than neighbor cutoff - forcing a needless neighbor list build (src/compute_rdf.cpp:179)
WARNING: Fix qeq/reaxff group is not charge neutral, net charge = -9.02 (src/REAXFF/fix_qeq_reaxff.cpp:392)
Neighbor list info ...
  update: every = 10 steps, delay = 0 steps, check = no
  max neighbors/atom: 2000, page size: 100000
  master list distance cutoff = 12
  ghost atom cutoff = 12
  binsize = 6, bins = 4 3 3
  3 neighbor lists, perpetual/occasional/extra = 2 1 0
  (1) pair reaxff, perpetual
      attributes: half, newton off, ghost
      pair build: half/bin/newtoff/ghost
      stencil: full/ghost/bin/3d
      bin: standard
  (2) compute rdf, occasional
      attributes: half, newton on, cut 7
      pair build: half/bin/newton/tri
      stencil: half/bin/3d/tri
      bin: standard
  (3) fix qeq/reaxff, perpetual, copy from (1)
      attributes: half, newton off
      pair build: copy
      stencil: none
      bin: none
Setting up Verlet run ...
  Unit style    : real
  Current step  : 0
  Time step     : 0.5
Per MPI rank memory allocation (min/avg/max) = 112.2 | 113.8 | 115.5 Mbytes
   Step          Temp          Press          Volume           Lz          Density    
         0   300            145380.38      3290.3881      16.6096        1.5329564    
       100   1198.7448     -5762.6111      3292.0333      16.617905      1.5321903    
       200   801.50666      2054.7381      3293.6785      16.62621       1.5314249    
       300   518.37522     -4706.9259      3295.3237      16.634514      1.5306604    
       400   359.75547      2194.0984      3296.9689      16.642819      1.5298966    
       500   429.8893       15867.094      3298.6141      16.651124      1.5291335    
       600   302.26737     -8036.4509      3300.2593      16.659429      1.5283713    
       700   245.62328      4451.0939      3301.9045      16.667734      1.5276097    
       800   257.64753      1709.5746      3303.5497      16.676038      1.526849     
       900   294.93748     -4405.0692      3305.1949      16.684343      1.526089     
      1000   326.48542     -2284.9651      3306.8401      16.692648      1.5253297    
      1100   300.98182     -1082.6317      3308.4853      16.700953      1.5245712    
      1200   343.50759     -2563.8285      3310.1305      16.709258      1.5238135    
      1300   298.71244     -6634.0254      3311.7757      16.717562      1.5230565    
      1400   261.49703     -7661.3426      3313.4209      16.725867      1.5223003    
      1500   245.90016      4863.7293      3315.0661      16.734172      1.5215448    
      1600   305.26216      168.50075      3316.7113      16.742477      1.5207901    
      1700   315.83158     -2179.3871      3318.3564      16.750782      1.5200361    
      1800   322.64598     -7718.6642      3320.0016      16.759086      1.5192828    
      1900   261.82223      1990.6013      3321.6468      16.767391      1.5185303    
      2000   257.05698      76.871822      3323.292       16.775696      1.5177786    
      2100   266.48447      2747.1475      3324.9372      16.784001      1.5170276    
      2200   321.66982      4946.523       3326.5824      16.792306      1.5162773    
      2300   317.8154       3964.6868      3328.2276      16.80061       1.5155278    
      2400   301.59544      20601.692      3329.8728      16.808915      1.514779     
      2500   301.63529     -14094.355      3331.518       16.81722       1.514031     
      2600   329.7545      -12014.289      3333.1632      16.825525      1.5132837    
      2700   279.0712      -8487.6224      3334.8084      16.83383       1.5125371    
      2800   299.25159     -11907.006      3336.4536      16.842134      1.5117913    
      2900   278.37818      6736.4597      3338.0988      16.850439      1.5110462    
      3000   314.25479     -13640.065      3339.744       16.858744      1.5103018    
      3100   276.91576     -6264.4762      3341.3892      16.867049      1.5095582    
      3200   293.76812     -7157.6706      3343.0344      16.875354      1.5088153    
      3300   327.88709     -1531.4106      3344.6796      16.883658      1.5080732    
      3400   308.40306      10103.387      3346.3247      16.891963      1.5073317    
      3500   304.02308      3257.6462      3347.9699      16.900268      1.506591     
      3600   287.86609     -4617.0804      3349.6151      16.908573      1.5058511    
      3700   278.84969     -12504.404      3351.2603      16.916878      1.5051118    
      3800   305.13805     -8700.9365      3352.9055      16.925182      1.5043733    
      3900   313.76149     -8568.2804      3354.5507      16.933487      1.5036355    
      4000   294.85734     -2041.38        3356.1959      16.941792      1.5028984    
      4100   287.6619      -12006.391      3357.8411      16.950097      1.502162     
      4200   266.58911     -4258.1133      3359.4863      16.958402      1.5014264    
      4300   278.82461     -8896.0378      3361.1315      16.966706      1.5006915    
      4400   250.51965     -5928.6116      3362.7767      16.975011      1.4999573    
      4500   292.90753     -11812.078      3364.4219      16.983316      1.4992238    
      4600   307.56487     -25.242419      3366.0671      16.991621      1.4984911    
      4700   323.91556     -153.15606      3367.7123      16.999926      1.497759     
      4800   295.73993     -380.37371      3369.3575      17.00823       1.4970277    
      4900   260.78808     -6122.0653      3371.0027      17.016535      1.4962971    
      5000   308.81506     -11051.657      3372.6479      17.02484       1.4955672    
      5100   304.75602      1715.5804      3374.293       17.033145      1.494838     
      5200   321.6197       3861.1695      3375.9382      17.04145       1.4941095    
      5300   290.65282      6844.9003      3377.5834      17.049754      1.4933818    
      5400   274.73344      436.67989      3379.2286      17.058059      1.4926547    
      5500   298.68593     -9423.1733      3380.8738      17.066364      1.4919283    
      5600   331.43615     -5145.689       3382.519       17.074669      1.4912027    
      5700   319.26387     -981.83073      3384.1642      17.082974      1.4904778    
      5800   303.14347      1749.1415      3385.8094      17.091278      1.4897535    
      5900   280.55629      3635.8031      3387.4546      17.099583      1.48903      
      6000   287.20566     -3019.5606      3389.0998      17.107888      1.4883072    
      6100   302.52259     -2835.3761      3390.745       17.116193      1.487585     
      6200   303.1742      -8249.8449      3392.3902      17.124498      1.4868636    
      6300   298.2915      -1954.003       3394.0354      17.132802      1.4861429    
      6400   312.98518     -1784.0681      3395.6806      17.141107      1.4854228    
      6500   308.78315     -6011.5798      3397.3258      17.149412      1.4847035    
      6600   294.61012      5762.2529      3398.971       17.157717      1.4839849    
      6700   258.98265     -13068.505      3400.6161      17.166022      1.4832669    
      6800   282.65676     -3152.2493      3402.2613      17.174326      1.4825497    
      6900   303.84201     -1762.1845      3403.9065      17.182631      1.4818331    
      7000   334.41743     -1308.5473      3405.5517      17.190936      1.4811173    
      7100   298.8087      -1651.5088      3407.1969      17.199241      1.4804021    
      7200   290.68736      7052.0849      3408.8421      17.207546      1.4796876    
      7300   271.59198     -1386.6373      3410.4873      17.21585       1.4789738    
      7400   312.80451     -2578.0726      3412.1325      17.224155      1.4782607    
      7500   278.50675     -12541.896      3413.7777      17.23246       1.4775483    
      7600   311.19832     -14347.488      3415.4229      17.240765      1.4768366    
      7700   299.51703     -11717.02       3417.0681      17.24907       1.4761255    
      7800   288.92686     -4960.5638      3418.7133      17.257374      1.4754152    
      7900   306.54096     -7925.1529      3420.3585      17.265679      1.4747055    
      8000   292.4142       1387.7813      3422.0037      17.273984      1.4739965    
      8100   299.98718      4929.1156      3423.6489      17.282289      1.4732882    
      8200   306.09961     -3686.2637      3425.2941      17.290594      1.4725806    
      8300   291.95282     -2964.9915      3426.9393      17.298898      1.4718736    
      8400   297.32586     -6020.0861      3428.5844      17.307203      1.4711673    
      8500   318.04599     -826.27408      3430.2296      17.315508      1.4704617    
      8600   300.36217      7833.8159      3431.8748      17.323813      1.4697568    
      8700   276.42679      2987.341       3433.52        17.332118      1.4690526    
      8800   303.99613     -5685.0174      3435.1652      17.340422      1.468349     
      8900   292.72238      982.75436      3436.8104      17.348727      1.4676461    
      9000   326.56713     -14554.96       3438.4556      17.357032      1.4669439    
      9100   289.54059     -10479.108      3440.1008      17.365337      1.4662423    
      9200   290.17185     -3350.974       3441.746       17.373642      1.4655415    
      9300   305.77696      2317.7113      3443.3912      17.381946      1.4648413    
      9400   313.30353     -5001.7767      3445.0364      17.390251      1.4641417    
      9500   331.22821     -16882.206      3446.6816      17.398556      1.4634428    
      9600   319.80244     -6563.5959      3448.3268      17.406861      1.4627446    
      9700   292.07467     -8335.2644      3449.972       17.415166      1.4620471    
      9800   294.2818      -400.61466      3451.6172      17.42347       1.4613502    
      9900   287.12737     -262.97399      3453.2624      17.431775      1.460654     
     10000   328.38238     -1139.8567      3454.9076      17.44008       1.4599584    
     10100   292.81216     -6605.7843      3456.5527      17.448385      1.4592636    
     10200   314.5791      -7365.3652      3458.1979      17.45669       1.4585693    
     10300   269.77997     -12616.367      3459.8431      17.464994      1.4578758    
     10400   301.10856     -13298.214      3461.4883      17.473299      1.4571829    
     10500   310.62047     -7703.4557      3463.1335      17.481604      1.4564906    
     10600   299.13985     -5404.8382      3464.7787      17.489909      1.455799     
     10700   287.07089     -6496.101       3466.4239      17.498214      1.4551081    
     10800   273.86503     -2661.6684      3468.0691      17.506518      1.4544178    
     10900   266.79215     -22343.272      3469.7143      17.514823      1.4537282    
     11000   300.23896     -14609.814      3471.3595      17.523128      1.4530392    
     11100   292.75978     -9120.1456      3473.0047      17.531433      1.4523509    
     11200   275.24704      349.16542      3474.6499      17.539738      1.4516632    
     11300   315.27481      5901.4995      3476.2951      17.548042      1.4509762    
     11400   297.97379     -10181.439      3477.9403      17.556347      1.4502899    
     11500   323.53081     -17092.561      3479.5855      17.564652      1.4496041    
     11600   307.86842     -2275.1289      3481.2307      17.572957      1.4489191    
     11700   304.52345     -11764.512      3482.8759      17.581262      1.4482346    
     11800   288.04624     -2595.9133      3484.521       17.589566      1.4475509    
     11900   291.35868     -4779.092       3486.1662      17.597871      1.4468677    
     12000   309.27612     -1682.1293      3487.8114      17.606176      1.4461853    
     12100   290.64577     -12165.196      3489.4566      17.614481      1.4455034    
     12200   322.10781     -11108.132      3491.1018      17.622786      1.4448222    
     12300   290.94616     -5996.2848      3492.747       17.63109       1.4441417    
     12400   279.88612     -10201.544      3494.3922      17.639395      1.4434617    
     12500   312.39444     -8004.6855      3496.0374      17.6477        1.4427825    
     12600   305.00153     -3636.8726      3497.6826      17.656005      1.4421038    
     12700   302.83971     -7880.9188      3499.3278      17.66431       1.4414258    
     12800   279.2534       11549.067      3500.973       17.672614      1.4407485    
     12900   279.16636     -4285.5115      3502.6182      17.680919      1.4400717    
     13000   273.17848     -13224.752      3504.2634      17.689224      1.4393957    
     13100   310.91722     -13008.951      3505.9086      17.697529      1.4387202    
     13200   291.68738     -7995.2854      3507.5538      17.705834      1.4380454    
     13300   308.09438      6474.0402      3509.199       17.714138      1.4373712    
     13400   308.01322     -8168.2667      3510.8442      17.722443      1.4366976    
     13500   289.95386     -7755.2812      3512.4893      17.730748      1.4360247    
     13600   285.05926     -17115.201      3514.1345      17.739053      1.4353524    
     13700   299.45416     -16329.257      3515.7797      17.747358      1.4346807    
     13800   320.33311     -5347.611       3517.4249      17.755662      1.4340097    
     13900   296.11133     -10221.347      3519.0701      17.763967      1.4333393    
     14000   304.16055     -16687.016      3520.7153      17.772272      1.4326695    
     14100   295.95895     -5048.5136      3522.3605      17.780577      1.4320003    
     14200   302.53762     -8821.1697      3524.0057      17.788882      1.4313318    
     14300   298.32898     -9064.3684      3525.6509      17.797186      1.4306639    
     14400   301.2291      -15450.422      3527.2961      17.805491      1.4299966    
     14500   269.88276      1454.3453      3528.9413      17.813796      1.42933      
     14600   253.86737      984.69099      3530.5865      17.822101      1.4286639    
     14700   306.20084     -4219.2652      3532.2317      17.830406      1.4279985    
     14800   305.79261     -4076.1106      3533.8769      17.83871       1.4273337    
     14900   323.26184     -10368.336      3535.5221      17.847015      1.4266695    
     15000   325.94502     -748.36644      3537.1673      17.85532       1.4260059    
     15100   265.1903      -1726.6042      3538.8125      17.863625      1.425343     
     15200   299.2354       6010.351       3540.4576      17.87193       1.4246806    
     15300   309.45336      928.35862      3542.1028      17.880234      1.4240189    
     15400   312.39565     -10885.017      3543.748       17.888539      1.4233578    
     15500   347.00151     -4425.5357      3545.3932      17.896844      1.4226973    
     15600   335.66604     -1729.316       3547.0384      17.905149      1.4220375    
     15700   295.73146     -7075.2467      3548.6836      17.913454      1.4213782    
     15800   318.50991     -11035.433      3550.3288      17.921758      1.4207195    
     15900   287.5596      -7192.0014      3551.974       17.930063      1.4200615    
     16000   321.28324     -8512.6379      3553.6192      17.938368      1.419404     
     16100   301.53833     -4594.6237      3555.2644      17.946673      1.4187472    
     16200   311.06832     -4677.4613      3556.9096      17.954978      1.418091     
     16300   315.05745      1895.8999      3558.5548      17.963282      1.4174354    
     16400   295.06989     -7232.9648      3560.2         17.971587      1.4167804    
     16500   303.39847     -447.62476      3561.8452      17.979892      1.416126     
     16600   278.96475     -11481.141      3563.4904      17.988197      1.4154722    
     16700   302.94694     -8176.3455      3565.1356      17.996502      1.414819     
     16800   280.5091      -8377.8982      3566.7808      18.004806      1.4141664    
     16900   302.79391     -4550.9444      3568.4259      18.013111      1.4135144    
     17000   319.77248      2561.8308      3570.0711      18.021416      1.412863     
     17100   321.28846     -8057.0338      3571.7163      18.029721      1.4122122    
     17200   296.78272     -822.01623      3573.3615      18.038026      1.411562     
     17300   297.21494     -2190.0818      3575.0067      18.04633       1.4109124    
     17400   290.31921     -7420.0516      3576.6519      18.054635      1.4102635    
     17500   331.81483     -8311.4645      3578.2971      18.06294       1.4096151    
     17600   300.41134     -11622.079      3579.9423      18.071245      1.4089673    
     17700   301.77614      3830.548       3581.5875      18.07955       1.40832      
     17800   298.84008      1484.232       3583.2327      18.087854      1.4076734    
     17900   282.65823     -2503.9629      3584.8779      18.096159      1.4070274    
     18000   313.15317     -7799.4915      3586.5231      18.104464      1.406382     
     18100   316.84265     -13910.263      3588.1683      18.112769      1.4057372    
     18200   328.24431     -4507.6312      3589.8135      18.121074      1.4050929    
     18300   296.65661     -11915.607      3591.4587      18.129378      1.4044493    
     18400   317.33186      5917.3862      3593.1039      18.137683      1.4038062    
     18500   289.14543     -9395.0141      3594.7491      18.145988      1.4031637    
     18600   298.74075     -8828.2445      3596.3942      18.154293      1.4025218    
     18700   310.95365     -9303.2922      3598.0394      18.162598      1.4018805    
     18800   319.4218       1117.7408      3599.6846      18.170902      1.4012398    
     18900   299.34113     -6558.5481      3601.3298      18.179207      1.4005997    
     19000   289.41881      1103.2227      3602.975       18.187512      1.3999602    
     19100   299.39089     -3931.1704      3604.6202      18.195817      1.3993212    
     19200   304.05052     -6508.0136      3606.2654      18.204122      1.3986828    
     19300   325.42768     -63.484305      3607.9106      18.212426      1.398045     
     19400   315.03282     -5296.9159      3609.5558      18.220731      1.3974078    
     19500   282.56685      229.22876      3611.201       18.229036      1.3967712    
     19600   278.66241     -6023.8736      3612.8462      18.237341      1.3961351    
     19700   317.09507     -3815.1445      3614.4914      18.245646      1.3954997    
     19800   294.92085     -2534.6168      3616.1366      18.25395       1.3948648    
     19900   289.1848      -3221.5814      3617.7818      18.262255      1.3942304    
     20000   276.8638      -10088.285      3619.427       18.27056       1.3935967    
     20100   306.01087     -7545.3845      3621.0722      18.278865      1.3929635    
     20200   327.36487     -8686.4931      3622.7173      18.28717       1.3923309    
     20300   304.7471      -13248.152      3624.3625      18.295474      1.3916989    
     20400   276.07569     -8404.5207      3626.0077      18.303779      1.3910675    
     20500   279.85872     -9113.4177      3627.6529      18.312084      1.3904366    
     20600   303.71946      159.11767      3629.2981      18.320389      1.3898063    
     20700   337.85303     -8364.1138      3630.9433      18.328694      1.3891766    
     20800   305.28882     -7245.9152      3632.5885      18.336998      1.3885474    
     20900   277.1352      -1489.3121      3634.2337      18.345303      1.3879189    
     21000   302.24414     -9589.382       3635.8789      18.353608      1.3872908    
     21100   280.4589      -8011.124       3637.5241      18.361913      1.3866634    
     21200   288.57202     -6226.6542      3639.1693      18.370218      1.3860365    
     21300   320.1135      -15082.286      3640.8145      18.378522      1.3854102    
     21400   312.57064     -1520.7739      3642.4597      18.386827      1.3847844    
     21500   286.41798     -9305.983       3644.1049      18.395132      1.3841593    
     21600   275.34744     -15251.173      3645.7501      18.403437      1.3835346    
     21700   309.03928     -3186.8221      3647.3953      18.411742      1.3829106    
     21800   289.05157     -5978.8625      3649.0405      18.420046      1.3822871    
     21900   298.94551      516.09484      3650.6856      18.428351      1.3816641    
     22000   326.42279     -10555.749      3652.3308      18.436656      1.3810418    
     22100   292.44461     -4884.9284      3653.976       18.444961      1.38042      
     22200   298.24084      3834.2483      3655.6212      18.453266      1.3797987    
     22300   304.43699      3793.0675      3657.2664      18.46157       1.379178     
     22400   302.89035     -16756.028      3658.9116      18.469875      1.3785579    
     22500   296.64646      578.63366      3660.5568      18.47818       1.3779383    
     22600   328.5272       2585.7947      3662.202       18.486485      1.3773193    
     22700   308.06949     -341.94868      3663.8472      18.49479       1.3767008    
     22800   283.85632     -8733.7657      3665.4924      18.503094      1.3760829    
     22900   276.70147     -1912.8355      3667.1376      18.511399      1.3754656    
     23000   274.5544      -13173.449      3668.7828      18.519704      1.3748488    
     23100   307.96335     -100.86719      3670.428       18.528009      1.3742325    
     23200   308.67721     -4585.7808      3672.0732      18.536314      1.3736168    
     23300   296.31776     -5592.5995      3673.7184      18.544618      1.3730017    
     23400   272.2978      -4522.682       3675.3636      18.552923      1.3723871    
     23500   289.0352      -592.58555      3677.0088      18.561228      1.371773     
     23600   305.06968     -2677.0166      3678.6539      18.569533      1.3711595    
     23700   313.17705     -6776.5133      3680.2991      18.577838      1.3705466    
     23800   314.12778     -12118.888      3681.9443      18.586142      1.3699342    
     23900   306.06209     -613.39455      3683.5895      18.594447      1.3693224    
     24000   277.95865     -6894.018       3685.2347      18.602752      1.368711     
     24100   293.54605     -9359.3546      3686.8799      18.611057      1.3681003    
     24200   336.57738     -17292.85       3688.5251      18.619362      1.3674901    
     24300   324.83892     -9980.6161      3690.1703      18.627666      1.3668804    
     24400   300.70072     -21201.925      3691.8155      18.635971      1.3662713    
     24500   278.90092     -10576.367      3693.4607      18.644276      1.3656627    
     24600   306.64435     -3746.6743      3695.1059      18.652581      1.3650547    
     24700   314.92516     -10250.666      3696.7511      18.660886      1.3644471    
     24800   321.94461     -1793.6964      3698.3963      18.66919       1.3638402    
     24900   295.44409     -2687.7385      3700.0415      18.677495      1.3632338    
     25000   290.83809      6962.5049      3701.6867      18.6858        1.3626279    
     25100   302.47175     -8731.6115      3703.3319      18.694105      1.3620225    
     25200   277.89331     -12343.229      3704.9771      18.70241       1.3614177    
     25300   311.68144     -3814.1451      3706.6222      18.710714      1.3608135    
     25400   296.20203      4.1394102      3708.2674      18.719019      1.3602097    
     25500   307.75131     -10999.284      3709.9126      18.727324      1.3596065    
     25600   290.18688     -4140.8287      3711.5578      18.735629      1.3590039    
     25700   290.84451     -13785.936      3713.203       18.743934      1.3584017    
     25800   282.06467      1997.1711      3714.8482      18.752238      1.3578002    
     25900   314.19281     -9277.7798      3716.4934      18.760543      1.3571991    
     26000   323.45568     -11035.254      3718.1386      18.768848      1.3565986    
     26100   288.55225      3625.0365      3719.7838      18.777153      1.3559986    
     26200   303.15435     -11704.621      3721.429       18.785458      1.3553991    
     26300   280.99582     -6546.2984      3723.0742      18.793762      1.3548002    
     26400   310.85275     -3434.837       3724.7194      18.802067      1.3542017    
     26500   309.32816     -3098.7033      3726.3646      18.810372      1.3536039    
     26600   313.20385     -1130.4085      3728.0098      18.818677      1.3530065    
     26700   335.93911     -10448.979      3729.655       18.826982      1.3524097    
     26800   302.7799      -5760.6671      3731.3002      18.835286      1.3518134    
     26900   292.31075     -2028.8789      3732.9454      18.843591      1.3512176    
     27000   300.63791      1279.9457      3734.5905      18.851896      1.3506224    
     27100   293.13093     -5245.2546      3736.2357      18.860201      1.3500276    
     27200   315.09845     -14908.975      3737.8809      18.868506      1.3494334    
     27300   340.30902     -16394.128      3739.5261      18.87681       1.3488397    
     27400   291.24191     -15262.846      3741.1713      18.885115      1.3482466    
     27500   282.8792      -23650.756      3742.8165      18.89342       1.347654     
     27600   295.77948     -4460.6234      3744.4617      18.901725      1.3470618    
     27700   314.35987     -9054.0806      3746.1069      18.91003       1.3464702    
     27800   311.54526     -11093.062      3747.7521      18.918334      1.3458792    
     27900   305.12173     -20489.179      3749.3973      18.926639      1.3452886    
     28000   287.59243     -7654.8539      3751.0425      18.934944      1.3446986    
     28100   310.14208     -4085.5396      3752.6877      18.943249      1.3441091    
     28200   338.64337     -4048.3133      3754.3329      18.951554      1.34352      
     28300   282.73789     -4970.4254      3755.9781      18.959858      1.3429316    
     28400   292.95381     -5675.0789      3757.6233      18.968163      1.3423436    
     28500   304.07888      6687.7319      3759.2685      18.976468      1.3417561    
     28600   295.48539     -5843.8465      3760.9137      18.984773      1.3411692    
     28700   291.08326     -6334.7554      3762.5588      18.993078      1.3405827    
     28800   322.78828     -5995.1088      3764.204       19.001382      1.3399968    
     28900   293.38126     -4955.9543      3765.8492      19.009687      1.3394114    
     29000   288.64917     -2893.9746      3767.4944      19.017992      1.3388265    
     29100   293.18346     -4239.4939      3769.1396      19.026297      1.3382421    
     29200   293.14957     -13600.926      3770.7848      19.034602      1.3376583    
     29300   282.76646     -8377.3174      3772.43        19.042906      1.3370749    
     29400   284.4228      -49.300289      3774.0752      19.051211      1.336492     
     29500   294.18141     -20324.524      3775.7204      19.059516      1.3359097    
     29600   282.55174     -3853.0149      3777.3656      19.067821      1.3353279    
     29700   284.96477     -10234.726      3779.0108      19.076126      1.3347465    
     29800   310.03663     -13658.365      3780.656       19.08443       1.3341657    
     29900   300.18266     -10291.369      3782.3012      19.092735      1.3335854    
     30000   302.75521     -1866.7908      3783.9464      19.10104       1.3330055    
     30100   283.16593     -5746.9531      3785.5916      19.109345      1.3324262    
     30200   302.23124     -19132.349      3787.2368      19.11765       1.3318474    
     30300   284.77083     -1715.074       3788.882       19.125954      1.3312691    
     30400   320.91896     -15776.821      3790.5271      19.134259      1.3306913    
     30500   305.14931     -14437.348      3792.1723      19.142564      1.330114     
     30600   304.75556     -3206.6675      3793.8175      19.150869      1.3295372    
     30700   286.26123     -5759.3909      3795.4627      19.159174      1.3289609    
     30800   295.34895     -6347.7428      3797.1079      19.167478      1.3283851    
     30900   290.97075     -8394.5868      3798.7531      19.175783      1.3278098    
     31000   294.94294     -3272.5444      3800.3983      19.184088      1.327235     
     31100   335.93388     -18185.032      3802.0435      19.192393      1.3266606    
     31200   325.93374     -11992.677      3803.6887      19.200698      1.3260868    
     31300   298.94452     -995.82664      3805.3339      19.209002      1.3255135    
     31400   310.94232     -7605.8678      3806.9791      19.217307      1.3249407    
     31500   286.02192     -10488.549      3808.6243      19.225612      1.3243684    
     31600   283.50502     -13698.931      3810.2695      19.233917      1.3237965    
     31700   291.32047     -8736.3042      3811.9147      19.242222      1.3232252    
     31800   303.37344     -14695.494      3813.5599      19.250526      1.3226543    
     31900   309.86978     -12951.284      3815.2051      19.258831      1.322084     
     32000   299.43339     -12331.503      3816.8503      19.267136      1.3215141    
     32100   290.74231     -11609.243      3818.4954      19.275441      1.3209447    
     32200   291.37129     -19380.442      3820.1406      19.283746      1.3203759    
     32300   288.74758     -327.64995      3821.7858      19.29205       1.3198075    
     32400   288.98343      277.74616      3823.431       19.300355      1.3192396    
     32500   313.29802     -9580.4775      3825.0762      19.30866       1.3186721    
     32600   319.6857      -8408.5421      3826.7214      19.316965      1.3181052    
     32700   310.69577      282.72273      3828.3666      19.32527       1.3175388    
     32800   312.40416     -8443.3388      3830.0118      19.333574      1.3169728    
     32900   302.5885       8714.4213      3831.657       19.341879      1.3164074    
     33000   292.13413     -16294.491      3833.3022      19.350184      1.3158424    
     33100   291.93083     -2098.0615      3834.9474      19.358489      1.3152779    
     33200   306.57509     -16601.215      3836.5926      19.366794      1.3147139    
     33300   339.01443      3654.6466      3838.2378      19.375098      1.3141503    
     33400   301.57669     -13333.725      3839.883       19.383403      1.3135873    
     33500   299.98728     -16379.899      3841.5282      19.391708      1.3130247    
     33600   312.2226      -2940.298       3843.1734      19.400013      1.3124626    
     33700   313.96998     -24475.684      3844.8185      19.408318      1.311901     
     33800   287.57627     -9499.1743      3846.4637      19.416622      1.3113399    
     33900   290.10166     -8090.4645      3848.1089      19.424927      1.3107793    
     34000   306.58392     -8590.3844      3849.7541      19.433232      1.3102191    
     34100   329.18562     -16046.843      3851.3993      19.441537      1.3096594    
     34200   314.41208     -13290.76       3853.0445      19.449842      1.3091002    
     34300   310.25909     -8782.8526      3854.6897      19.458146      1.3085415    
     34400   302.73526     -12591.761      3856.3349      19.466451      1.3079833    
     34500   285.40786     -14459.701      3857.9801      19.474756      1.3074255    
     34600   291.93686     -7971.096       3859.6253      19.483061      1.3068682    
     34700   293.93303     -10021.92       3861.2705      19.491366      1.3063114    
     34800   312.13725     -182.85572      3862.9157      19.49967       1.305755     
     34900   344.37625      5294.3685      3864.5609      19.507975      1.3051991    
     35000   322.96404     -6375.4284      3866.2061      19.51628       1.3046437    
     35100   282.31104     -15590.978      3867.8513      19.524585      1.3040888    
     35200   308.42464     -17145.216      3869.4965      19.53289       1.3035343    
     35300   295.25935     -6978.2642      3871.1417      19.541194      1.3029803    
     35400   304.58987     -2260.6224      3872.7868      19.549499      1.3024268    
     35500   289.41816     -16053.595      3874.432       19.557804      1.3018738    
     35600   311.67983     -16230.757      3876.0772      19.566109      1.3013212    
     35700   277.28249     -1719.6793      3877.7224      19.574414      1.3007691    
     35800   299.06764     -9279.2652      3879.3676      19.582718      1.3002174    
     35900   311.93283     -17040.996      3881.0128      19.591023      1.2996663    
     36000   297.39947     -5125.2         3882.658       19.599328      1.2991156    
     36100   293.93794     -11712.495      3884.3032      19.607633      1.2985653    
     36200   293.04573     -14768.696      3885.9484      19.615938      1.2980156    
     36300   286.48204     -16554.673      3887.5936      19.624242      1.2974662    
     36400   285.20803     -476.14349      3889.2388      19.632547      1.2969174    
     36500   290.92963     -4704.1426      3890.884       19.640852      1.296369     
     36600   337.06018     -10326.813      3892.5292      19.649157      1.2958211    
     36700   301.02307     -13697.642      3894.1744      19.657462      1.2952737    
     36800   281.92067     -18026.856      3895.8196      19.665766      1.2947267    
     36900   308.92936     -10555.306      3897.4648      19.674071      1.2941801    
     37000   290.84423     -8766.0127      3899.11        19.682376      1.2936341    
     37100   319.8558      -23516.51       3900.7551      19.690681      1.2930885    
     37200   308.95971     -15056.892      3902.4003      19.698986      1.2925433    
     37300   324.17712     -7646.0846      3904.0455      19.70729       1.2919986    
     37400   280.97205     -14511.765      3905.6907      19.715595      1.2914544    
     37500   312.78526     -3492.6661      3907.3359      19.7239        1.2909106    
     37600   276.31962     -9344.8878      3908.9811      19.732205      1.2903673    
     37700   295.35215     -10778.97       3910.6263      19.74051       1.2898245    
     37800   292.69575      2244.9221      3912.2715      19.748814      1.2892821    
     37900   318.30413     -12831.082      3913.9167      19.757119      1.2887401    
     38000   293.26266     -5170.3599      3915.5619      19.765424      1.2881986    
     38100   327.15258     -9865.3698      3917.2071      19.773729      1.2876576    
     38200   306.27857     -11084.207      3918.8523      19.782034      1.287117     
     38300   279.56194     -28641.062      3920.4975      19.790338      1.2865769    
     38400   311.06557     -6412.283       3922.1427      19.798643      1.2860372    
     38500   326.2719      -794.97194      3923.7879      19.806948      1.285498     
     38600   280.96022     -7968.0162      3925.4331      19.815253      1.2849592    
     38700   295.66054     -5790.7964      3927.0783      19.823558      1.2844209    
     38800   285.10729     -13665.572      3928.7234      19.831862      1.2838831    
     38900   302.78444     -20036.008      3930.3686      19.840167      1.2833456    
     39000   321.55051     -16231.869      3932.0138      19.848472      1.2828087    
     39100   295.51282     -12906.327      3933.659       19.856777      1.2822722    
     39200   303.1587      -16295.373      3935.3042      19.865082      1.2817361    
     39300   298.78905     -19029.974      3936.9494      19.873386      1.2812005    
     39400   297.63068     -3323.4542      3938.5946      19.881691      1.2806653    
     39500   353.85024     -1831.4811      3940.2398      19.889996      1.2801306    
     39600   316.55862     -23180.103      3941.885       19.898301      1.2795963    
     39700   297.70973     -7801.437       3943.5302      19.906606      1.2790625    
     39800   297.3854      -1477.817       3945.1754      19.91491       1.2785291    
     39900   295.8798      -8600.8049      3946.8206      19.923215      1.2779961    
     40000   317.40161     -16376.552      3948.4658      19.93152       1.2774636    
     40100   285.14692     -15184.416      3950.111       19.939825      1.2769316    
     40200   274.19177     -17666.901      3951.7562      19.94813       1.2764       
     40300   295.66627     -18774.553      3953.4014      19.956434      1.2758688    
     40400   289.15633     -3437.5111      3955.0466      19.964739      1.2753381    
     40500   295.32098     -18626.227      3956.6917      19.973044      1.2748078    
     40600   300.72009     -16639.552      3958.3369      19.981349      1.2742779    
     40700   289.06736      2032.2863      3959.9821      19.989654      1.2737485    
     40800   288.1622      -18081.006      3961.6273      19.997958      1.2732196    
     40900   304.67823      1478.8321      3963.2725      20.006263      1.2726911    
     41000   300.28011     -12325.601      3964.9177      20.014568      1.272163     
     41100   299.81162     -10842.733      3966.5629      20.022873      1.2716353    
     41200   290.94851     -17930.307      3968.2081      20.031178      1.2711081    
     41300   302.16367     -15617.953      3969.8533      20.039482      1.2705813    
     41400   288.41531     -2120.8934      3971.4985      20.047787      1.270055     
     41500   279.16608     -8669.6812      3973.1437      20.056092      1.2695291    
     41600   306.20568     -20352.958      3974.7889      20.064397      1.2690036    
     41700   298.33779     -10378.763      3976.4341      20.072702      1.2684786    
     41800   299.06144     -7166.33        3978.0793      20.081006      1.267954     
     41900   291.22861     -13597.225      3979.7245      20.089311      1.2674298    
     42000   277.62882     -13379.379      3981.3697      20.097616      1.2669061    
     42100   293.18019     -11305.597      3983.0149      20.105921      1.2663828    
     42200   298.17586     -18439.667      3984.66        20.114226      1.2658599    
     42300   296.13465     -15310.949      3986.3052      20.12253       1.2653375    
     42400   316.32735     -15987.939      3987.9504      20.130835      1.2648155    
     42500   313.68488     -12197.939      3989.5956      20.13914       1.2642939    
     42600   308.63998     -21649.245      3991.2408      20.147445      1.2637728    
     42700   289.92336     -7818.5901      3992.886       20.15575       1.2632521    
     42800   276.83323     -7154.3493      3994.5312      20.164054      1.2627318    
     42900   281.86048     -3855.83        3996.1764      20.172359      1.2622119    
     43000   284.81661     -10530.165      3997.8216      20.180664      1.2616925    
     43100   315.66835     -23487.145      3999.4668      20.188969      1.2611735    
     43200   303.61367     -20654.314      4001.112       20.197274      1.2606549    
     43300   296.71759     -13632.663      4002.7572      20.205578      1.2601368    
     43400   280.4174      -25382.804      4004.4024      20.213883      1.259619     
     43500   273.66277     -9886.7984      4006.0476      20.222188      1.2591017    
     43600   306.47054     -7759.8092      4007.6928      20.230493      1.2585849    
     43700   288.66728     -15245.621      4009.338       20.238798      1.2580684    
     43800   327.06139     -16013.511      4010.9832      20.247102      1.2575524    
     43900   304.59778     -15320.764      4012.6283      20.255407      1.2570368    
     44000   292.89206     -7432.6403      4014.2735      20.263712      1.2565216    
     44100   297.12966     -21662.632      4015.9187      20.272017      1.2560069    
     44200   312.94747     -11624.041      4017.5639      20.280322      1.2554925    
     44300   305.82862     -15429.063      4019.2091      20.288626      1.2549786    
     44400   322.90816     -9411.6588      4020.8543      20.296931      1.2544651    
     44500   303.79198     -1610.1442      4022.4995      20.305236      1.253952     
     44600   300.98996     -12006.554      4024.1447      20.313541      1.2534394    
     44700   284.06345     -13175.676      4025.7899      20.321846      1.2529272    
     44800   296.51238     -8026.7928      4027.4351      20.33015       1.2524153    
     44900   330.38525     -12646.597      4029.0803      20.338455      1.2519039    
     45000   291.59919     -6812.5959      4030.7255      20.34676       1.251393     
     45100   318.88924     -13011.913      4032.3707      20.355065      1.2508824    
     45200   286.29651     -14553.351      4034.0159      20.36337       1.2503722    
     45300   296.22519     -15337.411      4035.6611      20.371674      1.2498625    
     45400   308.35881     -19396.493      4037.3063      20.379979      1.2493532    
     45500   305.8235      -22342.841      4038.9515      20.388284      1.2488443    
     45600   300.22244     -16503.364      4040.5966      20.396589      1.2483358    
     45700   323.26982     -19997.705      4042.2418      20.404894      1.2478277    
     45800   287.47266     -32311.999      4043.887       20.413198      1.2473201    
     45900   294.62402     -13913.713      4045.5322      20.421503      1.2468128    
     46000   310.23976     -6361.5139      4047.1774      20.429808      1.246306     
     46100   313.85566     -13318.862      4048.8226      20.438113      1.2457996    
     46200   308.28624     -4363.8348      4050.4678      20.446418      1.2452936    
     46300   287.61454     -10244.524      4052.113       20.454722      1.244788     
     46400   294.733       -23481.846      4053.7582      20.463027      1.2442828    
     46500   290.41218     -18106.467      4055.4034      20.471332      1.243778     
     46600   285.74103     -16547.099      4057.0486      20.479637      1.2432736    
     46700   305.61269     -12510.53       4058.6938      20.487942      1.2427697    
     46800   300.35361     -14360.682      4060.339       20.496246      1.2422661    
     46900   300.46158     -19899.485      4061.9842      20.504551      1.241763     
     47000   279.87139     -22090.955      4063.6294      20.512856      1.2412602    
     47100   281.12366     -23935.24       4065.2746      20.521161      1.2407579    
     47200   310.74336     -15433.698      4066.9197      20.529466      1.240256     
     47300   331.04752     -10580.727      4068.5649      20.53777       1.2397544    
     47400   300.86121     -16269.094      4070.2101      20.546075      1.2392533    
     47500   283.09667     -11210.491      4071.8553      20.55438       1.2387526    
     47600   289.32853     -23479.524      4073.5005      20.562685      1.2382523    
     47700   291.39546     -17142.464      4075.1457      20.57099       1.2377524    
     47800   289.79188     -23106.452      4076.7909      20.579294      1.2372529    
     47900   287.55594     -23088.493      4078.4361      20.587599      1.2367538    
     48000   292.2466      -13711.099      4080.0813      20.595904      1.2362551    
     48100   298.7518      -17305.113      4081.7265      20.604209      1.2357568    
     48200   299.7738      -21099.059      4083.3717      20.612514      1.235259     
     48300   301.90649     -7948.6955      4085.0169      20.620818      1.2347615    
     48400   296.05093     -17357.293      4086.6621      20.629123      1.2342644    
     48500   318.47639     -18370.899      4088.3073      20.637428      1.2337677    
     48600   310.53793     -21295.564      4089.9525      20.645733      1.2332714    
     48700   319.26649     -16189.932      4091.5977      20.654038      1.2327755    
     48800   298.31461     -13933.823      4093.2429      20.662342      1.23228      
     48900   297.39954     -14638.039      4094.888       20.670647      1.231785     
     49000   302.54341     -17310.289      4096.5332      20.678952      1.2312903    
     49100   285.30825     -11954.216      4098.1784      20.687257      1.230796     
     49200   285.3001      -21103.627      4099.8236      20.695562      1.2303021    
     49300   300.03044     -11618.898      4101.4688      20.703866      1.2298086    
     49400   328.53998     -19327.328      4103.114       20.712171      1.2293155    
     49500   291.83852     -6377.5979      4104.7592      20.720476      1.2288227    
     49600   297.93361     -16619.409      4106.4044      20.728781      1.2283304    
     49700   297.10403     -14586.713      4108.0496      20.737086      1.2278385    
     49800   304.18901     -15961.855      4109.6948      20.74539       1.227347     
     49900   297.66331     -3496.7142      4111.34        20.753695      1.2268558    
     50000   330.2507      -19447.944      4112.9852      20.762         1.2263651    
     50100   319.44902     -16576.326      4114.6304      20.770305      1.2258747    
     50200   305.37279     -23983.258      4116.2756      20.77861       1.2253848    
     50300   292.55702     -19985.536      4117.9208      20.786914      1.2248952    
     50400   312.09896     -18570.4        4119.566       20.795219      1.224406     
     50500   289.27956     -20259.155      4121.2112      20.803524      1.2239173    
     50600   316.42394     -7736.3552      4122.8563      20.811829      1.2234289    
     50700   331.43645     -7387.1352      4124.5015      20.820134      1.2229409    
     50800   293.679       -12921.142      4126.1467      20.828438      1.2224532    
     50900   274.05007     -21843.2        4127.7919      20.836743      1.221966     
     51000   313.96923     -13108.159      4129.4371      20.845048      1.2214792    
     51100   303.31458     -15213.667      4131.0823      20.853353      1.2209927    
     51200   277.74716     -23245.079      4132.7275      20.861658      1.2205067    
     51300   326.4236      -26508.513      4134.3727      20.869962      1.220021     
     51400   303.29678     -20852.244      4136.0179      20.878267      1.2195357    
     51500   307.42323     -18435.33       4137.6631      20.886572      1.2190508    
     51600   291.73005     -12883.599      4139.3083      20.894877      1.2185663    
     51700   288.42298     -29077.284      4140.9535      20.903182      1.2180821    
     51800   280.32237     -16368.024      4142.5987      20.911486      1.2175984    
     51900   298.65145     -13947.731      4144.2439      20.919791      1.217115     
     52000   319.72324     -4565.464       4145.8891      20.928096      1.216632     
     52100   294.36841     -24070.219      4147.5343      20.936401      1.2161494    
     52200   295.53003     -21560.967      4149.1795      20.944706      1.2156672    
     52300   297.77907     -20097.889      4150.8246      20.95301       1.2151854    
     52400   304.69207     -21634.862      4152.4698      20.961315      1.2147039    
     52500   299.55777     -15275.824      4154.115       20.96962       1.2142229    
     52600   303.90018     -19144.539      4155.7602      20.977925      1.2137422    
     52700   281.98201     -15442.442      4157.4054      20.98623       1.2132619    
     52800   326.62744     -18833.36       4159.0506      20.994534      1.2127819    
     52900   317.82086     -18933.099      4160.6958      21.002839      1.2123024    
     53000   304.02297     -15672.708      4162.341       21.011144      1.2118232    
     53100   293.54161     -20444.964      4163.9862      21.019449      1.2113444    
     53200   313.51117     -13265.512      4165.6314      21.027754      1.210866     
     53300   308.98201     -19025.835      4167.2766      21.036058      1.210388     
     53400   303.70722     -18077.117      4168.9218      21.044363      1.2099103    
     53500   322.0597      -23381.987      4170.567       21.052668      1.209433     
     53600   296.15508     -16215.595      4172.2122      21.060973      1.2089561    
     53700   266.5925      -23430.241      4173.8574      21.069278      1.2084796    
     53800   283.79106     -9644.9163      4175.5026      21.077582      1.2080034    
     53900   320.5934      -12945.236      4177.1478      21.085887      1.2075277    
     54000   311.15678     -17839.73       4178.7929      21.094192      1.2070523    
     54100   289.0507      -17929.844      4180.4381      21.102497      1.2065772    
     54200   292.21788     -25231.828      4182.0833      21.110802      1.2061026    
     54300   289.51816     -31974.494      4183.7285      21.119106      1.2056283    
     54400   317.23362     -19920.828      4185.3737      21.127411      1.2051544    
     54500   339.45284     -15220.516      4187.0189      21.135716      1.2046808    
     54600   323.1649      -16965.008      4188.6641      21.144021      1.2042077    
     54700   310.57272     -12729.084      4190.3093      21.152326      1.2037349    
     54800   297.75759     -15472.004      4191.9545      21.16063       1.2032625    
     54900   287.84555     -8324.6814      4193.5997      21.168935      1.2027904    
     55000   299.09058     -15027.889      4195.2449      21.17724       1.2023187    
     55100   309.55943     -12580.421      4196.8901      21.185545      1.2018474    
     55200   280.35947     -21371.468      4198.5353      21.19385       1.2013765    
     55300   294.32844     -14808.201      4200.1805      21.202154      1.2009059    
     55400   295.0521      -18623.866      4201.8257      21.210459      1.2004357    
     55500   286.82145     -19076.083      4203.4709      21.218764      1.1999658    
     55600   295.29911     -18779.64       4205.1161      21.227069      1.1994964    
     55700   291.07592     -14165.967      4206.7612      21.235374      1.1990273    
     55800   300.6418      -24320.781      4208.4064      21.243678      1.1985585    
     55900   286.73687     -17598.917      4210.0516      21.251983      1.1980902    
     56000   287.20928     -30462.821      4211.6968      21.260288      1.1976222    
     56100   255.52095     -20072.983      4213.342       21.268593      1.1971545    
     56200   265.89548     -21532.981      4214.9872      21.276898      1.1966873    
     56300   285.38401     -20503.562      4216.6324      21.285202      1.1962203    
     56400   306.90573     -19043.095      4218.2776      21.293507      1.1957538    
     56500   311.7637      -14801.577      4219.9228      21.301812      1.1952876    
     56600   302.08807     -13820.048      4221.568       21.310117      1.1948218    
     56700   279.48668     -19823.931      4223.2132      21.318422      1.1943563    
     56800   279.42328     -19686.922      4224.8584      21.326726      1.1938913    
     56900   310.18826     -21766.032      4226.5036      21.335031      1.1934265    
     57000   333.58192     -22844.927      4228.1488      21.343336      1.1929622    
     57100   319.60393     -15036.207      4229.794       21.351641      1.1924982    
     57200   291.41185     -10797.086      4231.4392      21.359946      1.1920345    
     57300   300.04696     -16353.187      4233.0844      21.36825       1.1915712    
     57400   307.43321     -13765.752      4234.7295      21.376555      1.1911083    
     57500   314.27751     -17335.264      4236.3747      21.38486       1.1906457    
     57600   307.72493     -3018.9177      4238.0199      21.393165      1.1901835    
     57700   320.56117     -14364.345      4239.6651      21.40147       1.1897217    
     57800   302.19746     -17233.698      4241.3103      21.409774      1.1892602    
     57900   307.11001     -21193.719      4242.9555      21.418079      1.188799     
     58000   308.34067     -22385.409      4244.6007      21.426384      1.1883383    
     58100   334.1589      -25532.747      4246.2459      21.434689      1.1878779    
     58200   340.66601     -16608.328      4247.8911      21.442994      1.1874178    
     58300   317.44947     -13359.364      4249.5363      21.451298      1.1869581    
     58400   265.72872     -18338.821      4251.1815      21.459603      1.1864987    
     58500   305.74577     -8113.1517      4252.8267      21.467908      1.1860397    
     58600   334.2372      -24491.976      4254.4719      21.476213      1.1855811    
     58700   321.1718      -15428.514      4256.1171      21.484518      1.1851228    
     58800   278.48241     -11833.888      4257.7623      21.492822      1.1846649    
     58900   282.53804     -13978.758      4259.4075      21.501127      1.1842073    
     59000   284.37491     -11501.113      4261.0527      21.509432      1.1837501    
     59100   314.26428     -38110.857      4262.6978      21.517737      1.1832932    
     59200   289.26183     -28370.618      4264.343       21.526042      1.1828367    
     59300   289.73137     -25063.705      4265.9882      21.534346      1.1823805    
     59400   314.04796     -14597.219      4267.6334      21.542651      1.1819247    
     59500   304.01757     -14913.642      4269.2786      21.550956      1.1814693    
     59600   298.06857     -21707.762      4270.9238      21.559261      1.1810142    
     59700   299.33922     -28553.773      4272.569       21.567566      1.1805594    
     59800   302.61934     -25964.682      4274.2142      21.57587       1.180105     
     59900   290.615       -23383.087      4275.8594      21.584175      1.1796509    
     60000   299.3697      -28629.99       4277.5046      21.59248       1.1791972    
     60100   299.41821     -20873.662      4279.1498      21.600785      1.1787438    
     60200   313.12418     -29223.179      4280.795       21.60909       1.1782908    
     60300   336.34287     -19975.359      4282.4402      21.617394      1.1778382    
     60400   321.30361     -23036.098      4284.0854      21.625699      1.1773858    
     60500   316.00381     -24180.303      4285.7306      21.634004      1.1769339    
     60600   304.41523     -29920.07       4287.3758      21.642309      1.1764823    
     60700   294.99186     -29264.299      4289.0209      21.650614      1.176031     
     60800   287.0949      -25937.796      4290.6661      21.658918      1.17558      
     60900   282.34891     -30292.153      4292.3113      21.667223      1.1751295    
     61000   309.61472     -30096.098      4293.9565      21.675528      1.1746792    
     61100   327.84097     -16076.233      4295.6017      21.683833      1.1742293    
     61200   304.15082     -21955.313      4297.2469      21.692138      1.1737798    
     61300   297.57319     -16719.888      4298.8921      21.700442      1.1733306    
     61400   297.31631     -22493.297      4300.5373      21.708747      1.1728817    
     61500   297.8331      -26848.273      4302.1825      21.717052      1.1724332    
     61600   325.15624     -25022.208      4303.8277      21.725357      1.171985     
     61700   283.63535     -18462.375      4305.4729      21.733662      1.1715372    
     61800   297.79616     -36163.084      4307.1181      21.741966      1.1710897    
     61900   302.82058     -19934.49       4308.7633      21.750271      1.1706425    
     62000   313.35634     -29772.2        4310.4085      21.758576      1.1701957    
     62100   303.0402      -32774.246      4312.0537      21.766881      1.1697492    
     62200   310.98695     -28229.106      4313.6989      21.775186      1.1693031    
     62300   279.20099     -24400.507      4315.3441      21.78349       1.1688573    
     62400   285.85911     -18622.802      4316.9892      21.791795      1.1684119    
     62500   309.4682      -20863.052      4318.6344      21.8001        1.1679668    
     62600   299.28896     -24516.927      4320.2796      21.808405      1.167522     
     62700   311.41371     -20561.875      4321.9248      21.81671       1.1670776    
     62800   279.49271     -22263.544      4323.57        21.825014      1.1666335    
     62900   289.89244     -23789.745      4325.2152      21.833319      1.1661897    
     63000   283.32203     -18600.773      4326.8604      21.841624      1.1657463    
     63100   315.06184     -22589.486      4328.5056      21.849929      1.1653032    
     63200   308.21404     -33509.458      4330.1508      21.858234      1.1648605    
     63300   299.11418     -18446.693      4331.796       21.866538      1.1644181    
     63400   284.96579     -21579.823      4333.4412      21.874843      1.163976     
     63500   279.54901     -17038.722      4335.0864      21.883148      1.1635342    
     63600   286.73229     -23532.233      4336.7316      21.891453      1.1630928    
     63700   325.16027     -29250.606      4338.3768      21.899758      1.1626518    
     63800   315.63896     -21047.157      4340.022       21.908062      1.162211     
     63900   303.26319     -25172.514      4341.6672      21.916367      1.1617706    
     64000   297.007       -25481.818      4343.3124      21.924672      1.1613306    
     64100   270.52926     -19064.079      4344.9575      21.932977      1.1608909    
     64200   296.00615     -15038.881      4346.6027      21.941282      1.1604515    
     64300   301.19792     -25344.542      4348.2479      21.949586      1.1600124    
     64400   309.63665     -31545.848      4349.8931      21.957891      1.1595737    
     64500   283.05262     -16412.117      4351.5383      21.966196      1.1591353    
     64600   297.29065     -25373.21       4353.1835      21.974501      1.1586972    
     64700   291.37289     -20431.692      4354.8287      21.982806      1.1582594    
     64800   265.87264     -25707.389      4356.4739      21.99111       1.157822     
     64900   309.52474     -28969.983      4358.1191      21.999415      1.157385     
     65000   290.31608     -36552.073      4359.7643      22.00772       1.1569482    
     65100   288.8498      -18024.613      4361.4095      22.016025      1.1565118    
     65200   310.05392     -14956.324      4363.0547      22.02433       1.1560757    
     65300   281.52467     -14944.518      4364.6999      22.032634      1.1556399    
     65400   280.97087     -22012.144      4366.3451      22.040939      1.1552045    
     65500   297.27826     -26215.6        4367.9903      22.049244      1.1547694    
     65600   295.96684     -30481.989      4369.6355      22.057549      1.1543346    
     65700   306.12177     -31303.608      4371.2807      22.065854      1.1539002    
     65800   297.14861     -27517.186      4372.9258      22.074158      1.153466     
     65900   305.83231     -22411.544      4374.571       22.082463      1.1530322    
     66000   321.13796     -28209.165      4376.2162      22.090768      1.1525988    
     66100   318.87493     -18812.862      4377.8614      22.099073      1.1521656    
     66200   296.53988     -22521.515      4379.5066      22.107378      1.1517328    
     66300   283.98429     -26484.171      4381.1518      22.115682      1.1513003    
     66400   289.03132     -17666.434      4382.797       22.123987      1.1508681    
     66500   327.49277     -22530.821      4384.4422      22.132292      1.1504363    
     66600   313.67987     -29073.907      4386.0874      22.140597      1.1500048    
     66700   290.30477     -34880.078      4387.7326      22.148902      1.1495736    
     66800   282.19454     -32957.48       4389.3778      22.157206      1.1491427    
     66900   286.14314     -30253.704      4391.023       22.165511      1.1487122    
     67000   307.90839     -27614.265      4392.6682      22.173816      1.1482819    
     67100   305.02135     -23410.258      4394.3134      22.182121      1.147852     
     67200   343.30466     -31022.727      4395.9586      22.190426      1.1474224    
     67300   312.95333     -24078.428      4397.6038      22.19873       1.1469932    
     67400   301.23702     -25180.552      4399.249       22.207035      1.1465642    
     67500   318.27391     -26603.255      4400.8941      22.21534       1.1461356    
     67600   289.8778      -25981.626      4402.5393      22.223645      1.1457073    
     67700   313.35189     -19062.795      4404.1845      22.23195       1.1452793    
     67800   321.36925     -25624.793      4405.8297      22.240254      1.1448517    
     67900   323.84608     -24922.762      4407.4749      22.248559      1.1444243    
     68000   297.93383     -28116.121      4409.1201      22.256864      1.1439973    
     68100   290.26789     -43586.635      4410.7653      22.265169      1.1435706    
     68200   293.64362     -20545.227      4412.4105      22.273474      1.1431442    
     68300   317.56826     -20120.445      4414.0557      22.281778      1.1427181    
     68400   329.71906     -24471.592      4415.7009      22.290083      1.1422924    
     68500   271.67116     -21337.697      4417.3461      22.298388      1.1418669    
     68600   304.78537     -35285.351      4418.9913      22.306693      1.1414418    
     68700   300.09031     -25597.414      4420.6365      22.314998      1.141017     
     68800   303.96852     -38561.871      4422.2817      22.323302      1.1405925    
     68900   322.78932     -23119.941      4423.9269      22.331607      1.1401684    
     69000   296.43529     -33031.997      4425.5721      22.339912      1.1397445    
     69100   324.05088     -25514.883      4427.2173      22.348217      1.139321     
     69200   295.86569     -21528.847      4428.8624      22.356522      1.1388978    
     69300   298.95548     -20401.418      4430.5076      22.364826      1.1384748    
     69400   282.47739     -11151.567      4432.1528      22.373131      1.1380522    
     69500   297.02486     -25778.444      4433.798       22.381436      1.13763      
     69600   297.34117     -22672.192      4435.4432      22.389741      1.137208     
     69700   340.97083     -26161.016      4437.0884      22.398046      1.1367863    
     69800   314.01005     -16177.748      4438.7336      22.40635       1.136365     
     69900   311.3007      -32345.56       4440.3788      22.414655      1.135944     
     70000   293.93923     -26229.564      4442.024       22.42296       1.1355232    
     70100   304.0547      -24576.761      4443.6692      22.431265      1.1351028    
     70200   300.74739     -25423.269      4445.3144      22.43957       1.1346827    
     70300   329.2343      -25107.035      4446.9596      22.447874      1.1342629    
     70400   323.93398     -23572.491      4448.6048      22.456179      1.1338435    
     70500   310.48663     -15264.701      4450.25        22.464484      1.1334243    
     70600   302.47719     -22310.96       4451.8952      22.472789      1.1330054    
     70700   290.22526     -34162.055      4453.5404      22.481094      1.1325869    
     70800   303.29377     -27735.625      4455.1856      22.489398      1.1321687    
     70900   304.2584      -17423.082      4456.8307      22.497703      1.1317507    
     71000   318.97639     -24161.484      4458.4759      22.506008      1.1313331    
     71100   294.52488     -27028.892      4460.1211      22.514313      1.1309158    
     71200   297.61966     -22871.347      4461.7663      22.522618      1.1304988    
     71300   286.20885     -29214.49       4463.4115      22.530922      1.1300821    
     71400   287.43748     -15831.349      4465.0567      22.539227      1.1296657    
     71500   317.7653      -20173.008      4466.7019      22.547532      1.1292496    
     71600   335.31843     -24331.399      4468.3471      22.555837      1.1288339    
     71700   315.86119     -31464.826      4469.9923      22.564142      1.1284184    
     71800   312.50789     -25709.225      4471.6375      22.572446      1.1280032    
     71900   284.78291     -19379.044      4473.2827      22.580751      1.1275884    
     72000   281.45797     -23574.605      4474.9279      22.589056      1.1271738    
     72100   307.33883     -31927.741      4476.5731      22.597361      1.1267596    
     72200   304.03778     -25076.524      4478.2183      22.605666      1.1263456    
     72300   303.83456     -19704.732      4479.8635      22.61397       1.125932     
     72400   283.39059     -24935.453      4481.5087      22.622275      1.1255186    
     72500   288.11669     -25110.079      4483.1539      22.63058       1.1251056    
     72600   305.56728     -12404.553      4484.799       22.638885      1.1246929    
     72700   289.59498     -22996.184      4486.4442      22.64719       1.1242804    
     72800   298.90028     -28814.991      4488.0894      22.655494      1.1238683    
     72900   304.16175     -19047.776      4489.7346      22.663799      1.1234565    
     73000   297.49901     -26770.787      4491.3798      22.672104      1.123045     
     73100   303.08249     -20697.82       4493.025       22.680409      1.1226337    
     73200   285.98724     -31067.795      4494.6702      22.688714      1.1222228    
     73300   325.06461     -21956.307      4496.3154      22.697018      1.1218122    
     73400   319.66324     -22660.65       4497.9606      22.705323      1.1214019    
     73500   286.89683     -33580.124      4499.6058      22.713628      1.1209919    
     73600   295.02258     -20782.827      4501.251       22.721933      1.1205821    
     73700   287.52249     -24541.542      4502.8962      22.730238      1.1201727    
     73800   279.87458     -17521.521      4504.5414      22.738542      1.1197636    
     73900   306.54113     -23546.849      4506.1866      22.746847      1.1193548    
     74000   295.38219     -20437.852      4507.8318      22.755152      1.1189463    
     74100   310.06024     -27075.946      4509.477       22.763457      1.118538     
     74200   316.77373     -29019.919      4511.1221      22.771762      1.1181301    
     74300   288.81197     -28853.829      4512.7673      22.780066      1.1177225    
     74400   288.76927     -28533.072      4514.4125      22.788371      1.1173151    
     74500   308.46501     -37681.097      4516.0577      22.796676      1.1169081    
     74600   326.13375     -32035.117      4517.7029      22.804981      1.1165014    
     74700   292.34504     -31272.505      4519.3481      22.813286      1.1160949    
     74800   290.95204     -29545.677      4520.9933      22.82159       1.1156888    
     74900   285.49806     -31571.802      4522.6385      22.829895      1.1152829    
     75000   292.78681     -23101.344      4524.2837      22.8382        1.1148774    
     75100   313.29928     -27793.186      4525.9289      22.846505      1.1144721    
     75200   307.40853     -21065.449      4527.5741      22.85481       1.1140671    
     75300   301.21198     -28004.373      4529.2193      22.863114      1.1136625    
     75400   328.45462     -27628.055      4530.8645      22.871419      1.1132581    
     75500   317.43434     -20184.378      4532.5097      22.879724      1.112854     
     75600   307.83594     -26657.058      4534.1549      22.888029      1.1124502    
     75700   300.78437     -24232.526      4535.8001      22.896334      1.1120467    
     75800   312.7619      -27879.984      4537.4453      22.904638      1.1116435    
     75900   294.47377     -26577.788      4539.0904      22.912943      1.1112406    
     76000   283.81761     -30750.758      4540.7356      22.921248      1.110838     
     76100   286.18543     -24561.86       4542.3808      22.929553      1.1104356    
     76200   289.0388      -31695.495      4544.026       22.937858      1.1100336    
     76300   286.56193     -30218.139      4545.6712      22.946162      1.1096318    
     76400   296.945       -26863.408      4547.3164      22.954467      1.1092304    
     76500   283.18987     -26106.283      4548.9616      22.962772      1.1088292    
     76600   306.80499     -30585.793      4550.6068      22.971077      1.1084283    
     76700   296.60036     -25626.466      4552.252       22.979382      1.1080277    
     76800   294.51732     -29928.305      4553.8972      22.987686      1.1076274    
     76900   306.03815     -27528.226      4555.5424      22.995991      1.1072274    
     77000   285.75111     -29750.657      4557.1876      23.004296      1.1068277    
     77100   295.44339     -19434.042      4558.8328      23.012601      1.1064283    
     77200   295.4974      -25950.668      4560.478       23.020906      1.1060291    
     77300   308.61752     -33238.107      4562.1232      23.02921       1.1056303    
     77400   313.90945     -27978.635      4563.7684      23.037515      1.1052317    
     77500   306.54107     -21693.025      4565.4136      23.04582       1.1048334    
     77600   294.01511     -27332.015      4567.0587      23.054125      1.1044354    
     77700   299.64574     -29601.3        4568.7039      23.06243       1.1040377    
     77800   313.78801     -30827.074      4570.3491      23.070734      1.1036403    
     77900   300.78128     -25594.909      4571.9943      23.079039      1.1032432    
     78000   309.87731     -29514.717      4573.6395      23.087344      1.1028463    
     78100   297.95567     -21793.856      4575.2847      23.095649      1.1024497    
     78200   287.77011     -24148.465      4576.9299      23.103954      1.1020535    
     78300   280.42227     -26290.919      4578.5751      23.112258      1.1016575    
     78400   307.30619     -33288.302      4580.2203      23.120563      1.1012618    
     78500   301.05649     -22171.339      4581.8655      23.128868      1.1008663    
     78600   293.4208      -23959.572      4583.5107      23.137173      1.1004712    
     78700   298.36241     -32529.007      4585.1559      23.145478      1.1000763    
     78800   323.29241     -27045.767      4586.8011      23.153782      1.0996818    
     78900   282.58732     -17108.788      4588.4463      23.162087      1.0992875    
     79000   292.16991     -23077.366      4590.0915      23.170392      1.0988935    
     79100   272.75231     -27254.744      4591.7367      23.178697      1.0984997    
     79200   334.1309      -25368.793      4593.3819      23.187002      1.0981063    
     79300   298.7374      -22630.083      4595.027       23.195306      1.0977131    
     79400   311.10571     -32636.88       4596.6722      23.203611      1.0973202    
     79500   307.2432      -24758.992      4598.3174      23.211916      1.0969276    
     79600   286.74158     -23695.331      4599.9626      23.220221      1.0965353    
     79700   296.65226     -26885.632      4601.6078      23.228526      1.0961433    
     79800   310.58222     -25773.086      4603.253       23.23683       1.0957515    
     79900   308.22208     -29362.401      4604.8982      23.245135      1.09536      
     80000   299.27542     -32884.019      4606.5434      23.25344       1.0949688    
     80100   334.09531     -30072.497      4608.1886      23.261745      1.0945779    
     80200   304.61077     -24069.699      4609.8338      23.27005       1.0941873    
     80300   306.25357     -19812.677      4611.479       23.278354      1.0937969    
     80400   318.80135     -27440.768      4613.1242      23.286659      1.0934068    
     80500   317.50306     -34422.283      4614.7694      23.294964      1.093017     
     80600   288.21556     -26421.682      4616.4146      23.303269      1.0926275    
     80700   333.46396     -21006.664      4618.0598      23.311574      1.0922382    
     80800   335.0078      -21890.132      4619.705       23.319878      1.0918493    
     80900   300.59551     -17014.658      4621.3502      23.328183      1.0914606    
     81000   281.25382     -23007.581      4622.9953      23.336488      1.0910722    
     81100   294.31472     -30306.258      4624.6405      23.344793      1.090684     
     81200   302.30882     -31399.334      4626.2857      23.353098      1.0902961    
     81300   308.77606     -27681.997      4627.9309      23.361402      1.0899085    
     81400   319.76153     -26871.294      4629.5761      23.369707      1.0895212    
     81500   300.7972      -33366.002      4631.2213      23.378012      1.0891342    
     81600   296.04038     -28228.564      4632.8665      23.386317      1.0887474    
     81700   283.51282     -29319.334      4634.5117      23.394622      1.0883609    
     81800   312.23129     -21441.279      4636.1569      23.402926      1.0879747    
     81900   324.86404     -23557.566      4637.8021      23.411231      1.0875888    
     82000   305.44561     -23028.477      4639.4473      23.419536      1.0872031    
     82100   307.15965     -29695.423      4641.0925      23.427841      1.0868177    
     82200   309.11439     -26215.159      4642.7377      23.436146      1.0864326    
     82300   298.63841     -20194.223      4644.3829      23.44445       1.0860477    
     82400   297.82108     -24928.881      4646.0281      23.452755      1.0856632    
     82500   301.23518     -26900.016      4647.6733      23.46106       1.0852788    
     82600   330.294       -42504.141      4649.3185      23.469365      1.0848948    
     82700   321.47364     -28815.509      4650.9636      23.47767       1.0845111    
     82800   283.32908     -25161.865      4652.6088      23.485974      1.0841276    
     82900   279.67786     -30030.315      4654.254       23.494279      1.0837443    
     83000   305.95281     -28659.437      4655.8992      23.502584      1.0833614    
     83100   319.5849      -28127.464      4657.5444      23.510889      1.0829787    
     83200   319.8823      -27476.429      4659.1896      23.519194      1.0825963    
     83300   271.0556      -24428.309      4660.8348      23.527498      1.0822142    
     83400   284.79739     -18264.298      4662.48        23.535803      1.0818323    
     83500   297.54305     -26894.652      4664.1252      23.544108      1.0814507    
     83600   320.50509     -30082.123      4665.7704      23.552413      1.0810694    
     83700   281.43021     -21498.791      4667.4156      23.560718      1.0806883    
     83800   276.06842     -26638.146      4669.0608      23.569022      1.0803075    
     83900   280.61651     -35325.856      4670.706       23.577327      1.079927     
     84000   294.12175     -24991.607      4672.3512      23.585632      1.0795467    
     84100   310.10407     -19010.051      4673.9964      23.593937      1.0791668    
     84200   303.16585     -26323.181      4675.6416      23.602242      1.078787     
     84300   289.77741     -26338.445      4677.2868      23.610546      1.0784076    
     84400   286.53943     -23657.488      4678.9319      23.618851      1.0780284    
     84500   292.12727     -26291.695      4680.5771      23.627156      1.0776495    
     84600   291.90602     -21474.45       4682.2223      23.635461      1.0772708    
     84700   282.44754     -30297.948      4683.8675      23.643766      1.0768924    
     84800   278.65632     -33154.562      4685.5127      23.65207       1.0765143    
     84900   300.43255     -29046.79       4687.1579      23.660375      1.0761364    
     85000   302.22459     -24379.064      4688.8031      23.66868       1.0757589    
     85100   293.43444     -25054.243      4690.4483      23.676985      1.0753815    
     85200   301.19684     -26264.43       4692.0935      23.68529       1.0750045    
     85300   313.01772     -33826.298      4693.7387      23.693594      1.0746277    
     85400   311.45387     -29002.638      4695.3839      23.701899      1.0742511    
     85500   305.08262     -16156.411      4697.0291      23.710204      1.0738749    
     85600   308.758       -19966.664      4698.6743      23.718509      1.0734989    
     85700   310.21582     -19711.212      4700.3195      23.726814      1.0731231    
     85800   281.45227     -19173.86       4701.9647      23.735118      1.0727476    
     85900   300.52126     -22000.492      4703.6099      23.743423      1.0723724    
     86000   283.35422     -15104.982      4705.2551      23.751728      1.0719975    
     86100   292.64028     -14416.573      4706.9002      23.760033      1.0716228    
     86200   329.4571      -15217.387      4708.5454      23.768338      1.0712483    
     86300   321.12343     -9355.4793      4710.1906      23.776642      1.0708742    
     86400   309.78436     -12785.391      4711.8358      23.784947      1.0705003    
     86500   308.92112     -21055.886      4713.481       23.793252      1.0701266    
     86600   312.19965     -8881.9438      4715.1262      23.801557      1.0697532    
     86700   287.87666     -20842.132      4716.7714      23.809862      1.0693801    
     86800   312.30588     -15063.153      4718.4166      23.818166      1.0690072    
     86900   268.88921     -18210.371      4720.0618      23.826471      1.0686346    
     87000   279.51372     -9447.911       4721.707       23.834776      1.0682623    
[...]
     98600   316.81286     -19887.568      4912.5495      24.798133      1.0267625    
     98700   320.22655     -14979.113      4914.1947      24.806438      1.0264187    
     98800   293.95235     -24395.218      4915.8399      24.814742      1.0260752    
     98900   308.091       -26043.45       4917.4851      24.823047      1.0257319    
     99000   292.17404     -24967.824      4919.1303      24.831352      1.0253889    
     99100   271.64345     -23362.024      4920.7755      24.839657      1.0250461    
     99200   259.53645     -21618.765      4922.4207      24.847962      1.0247035    
     99300   287.02898     -19457.722      4924.0659      24.856266      1.0243611    
     99400   319.93151     -16770.486      4925.7111      24.864571      1.024019     
     99500   290.96787     -30102.086      4927.3563      24.872876      1.023677     
     99600   308.89251     -31710.295      4929.0014      24.881181      1.0233354    
     99700   283.86683     -22639.446      4930.6466      24.889486      1.0229939    
     99800   292.33393     -17436.007      4932.2918      24.89779       1.0226527    
     99900   308.0428      -19889.39       4933.937       24.906095      1.0223117    
    100000   294.56099     -25030.113      4935.5822      24.9144        1.0219709    
    100100   298.23915     -30239.068      4937.2274      24.922705      1.0216304    
    100200   274.45604     -15967.622      4938.8726      24.93101       1.0212901    
    100300   279.03922     -21223.535      4940.5178      24.939314      1.02095      
    100400   297.43125     -20800.89       4942.163       24.947619      1.0206101    
    100500   312.84185     -27089.067      4943.8082      24.955924      1.0202705    
    100600   328.12319     -30546.136      4945.4534      24.964229      1.0199311    
    100700   327.93411     -32339.509      4947.0986      24.972534      1.0195919    
    100800   284.94369     -25906.624      4948.7438      24.980838      1.0192529    
    100900   274.05824     -25735.547      4950.389       24.989143      1.0189142    
    101000   323.71756     -17688.789      4952.0342      24.997448      1.0185757    
    101100   310.8098      -19405.195      4953.6794      25.005753      1.0182374    
    101200   301.65797     -26285.042      4955.3245      25.014058      1.0178993    
    101300   283.6364      -24130.019      4956.9697      25.022362      1.0175615    
    101400   281.40094     -26220.68       4958.6149      25.030667      1.0172239    
    101500   280.07234     -18808.6        4960.2601      25.038972      1.0168865    
    101600   300.89093     -26566.612      4961.9053      25.047277      1.0165493    
    101700   323.07902     -21811          4963.5505      25.055582      1.0162124    
    101800   296.10141     -18349.606      4965.1957      25.063886      1.0158757    
    101900   286.50713     -21869.378      4966.8409      25.072191      1.0155392    
    102000   292.6504      -28098.667      4968.4861      25.080496      1.0152029    
    102100   288.53538     -21856.544      4970.1313      25.088801      1.0148668    
    102200   304.20664     -22308.563      4971.7765      25.097106      1.014531     
    102300   325.89502     -21791.564      4973.4217      25.10541       1.0141954    
    102400   304.90349     -23547.006      4975.0669      25.113715      1.01386      
    102500   284.76149     -23728.626      4976.7121      25.12202       1.0135249    
    102600   297.09081     -11911.829      4978.3573      25.130325      1.0131899    
    102700   287.6742      -32793.124      4980.0025      25.13863       1.0128552    
    102800   288.91689     -19508.436      4981.6477      25.146934      1.0125207    
    102900   278.58983     -22985.269      4983.2928      25.155239      1.0121864    
    103000   306.30269     -20972.417      4984.938       25.163544      1.0118524    
    103100   295.00204     -19339.572      4986.5832      25.171849      1.0115186    
    103200   312.55026     -24621.899      4988.2284      25.180154      1.0111849    
    103300   280.11571     -24139.097      4989.8736      25.188458      1.0108515    
    103400   288.90909     -23740.157      4991.5188      25.196763      1.0105184    
    103500   280.77533     -26751.488      4993.164       25.205068      1.0101854    
    103600   309.89721     -30877.379      4994.8092      25.213373      1.0098527    
    103700   319.80144     -24558.63       4996.4544      25.221678      1.0095202    
    103800   314.67167     -26698.87       4998.0996      25.229982      1.0091879    
    103900   289.31106     -21595.189      4999.7448      25.238287      1.0088558    
    104000   289.69722     -21638.45       5001.39        25.246592      1.0085239    
    104100   305.01141     -19722.645      5003.0352      25.254897      1.0081923    
    104200   305.78985     -29602.423      5004.6804      25.263202      1.0078609    
    104300   308.67744     -26767.081      5006.3256      25.271506      1.0075297    
    104400   318.90558     -15766.178      5007.9708      25.279811      1.0071987    
    104500   320.79871     -14332.313      5009.616       25.288116      1.0068679    
    104600   313.62759     -12381.32       5011.2611      25.296421      1.0065373    
    104700   311.22432     -12833.226      5012.9063      25.304726      1.006207     
    104800   309.5322      -21842.654      5014.5515      25.31303       1.0058769    
    104900   281.51285     -12893.086      5016.1967      25.321335      1.005547     
    105000   292.17729     -7112.5647      5017.8419      25.32964       1.0052173    
    105100   320.96538     -15200.255      5019.4871      25.337945      1.0048878    
    105200   324.92203     -10000.087      5021.1323      25.34625       1.0045586    
    105300   309.14388     -16630.73       5022.7775      25.354554      1.0042295    
    105400   321.90652     -19224.606      5024.4227      25.362859      1.0039007    
    105500   301.86614     -15112.222      5026.0679      25.371164      1.0035721    
    105600   277.80914     -25319.702      5027.7131      25.379469      1.0032437    
    105700   289.74601     -10116.793      5029.3583      25.387774      1.0029155    
    105800   323.8223      -12528.184      5031.0035      25.396078      1.0025876    
    105900   326.56358     -16478.074      5032.6487      25.404383      1.0022598    
    106000   301.05401     -6443.4156      5034.2939      25.412688      1.0019323    
    106100   304.65461     -13474.184      5035.9391      25.420993      1.0016049    
    106200   287.86446     -21302.125      5037.5843      25.429298      1.0012778    
    106300   279.67859     -14662.124      5039.2294      25.437602      1.0009509    
    106400   311.80173     -12195.2        5040.8746      25.445907      1.0006243    
    106500   314.41981     -15571.886      5042.5198      25.454212      1.0002978    
    106600   279.70969     -22922.534      5044.165       25.462517      0.99997154   
    106700   283.43839     -9850.3912      5045.8102      25.470822      0.9996455    
    106800   319.87651     -15053.928      5047.4554      25.479126      0.99931967   
    106900   300.23258     -5939.8734      5049.1006      25.487431      0.99899405   
    107000   270.09276     -10998.251      5050.7458      25.495736      0.99866865   
    107100   283.3099      -14993.423      5052.391       25.504041      0.99834345   
    107200   273.99998     -15379.309      5054.0362      25.512346      0.99801847   
    107300   286.22918     -4786.1525      5055.6814      25.52065       0.9976937    
    107400   296.67696     -19290.931      5057.3266      25.528955      0.99736914   
    107500   301.97845     -14418.159      5058.9718      25.53726       0.99704479   
    107600   283.20868     -9601.6883      5060.617       25.545565      0.99672066   
    107700   300.23186     -18877.442      5062.2622      25.55387       0.99639673   
    107800   318.12876     -10707.76       5063.9074      25.562174      0.99607302   
    107900   304.83548     -2930.4766      5065.5526      25.570479      0.99574951   
    108000   323.34217     -8583.5785      5067.1977      25.578784      0.99542622   
    108100   288.82111     -10964.518      5068.8429      25.587089      0.99510313   
    108200   284.27903     -14173.787      5070.4881      25.595394      0.99478025   
    108300   293.97006     -10281.925      5072.1333      25.603698      0.99445759   
    108400   308.07719     -17309.931      5073.7785      25.612003      0.99413513   
    108500   308.8855      -13826.059      5075.4237      25.620308      0.99381288   
    108600   350.87788     -20394.8        5077.0689      25.628613      0.99349084   
    108700   305.06694     -19944.706      5078.7141      25.636918      0.99316901   
    108800   324.06532     -21118.011      5080.3593      25.645222      0.99284739   
    108900   302.56985     -14336.092      5082.0045      25.653527      0.99252598   
    109000   298.41907     -15010.6        5083.6497      25.661832      0.99220477   
    109100   307.3824      -5309.3314      5085.2949      25.670137      0.99188377   
    109200   308.75885     -15439.612      5086.9401      25.678442      0.99156298   
    109300   321.08089     -9713.9327      5088.5853      25.686746      0.9912424    
    109400   319.69576     -19369.312      5090.2305      25.695051      0.99092202   
    109500   297.27573     -17763.14       5091.8757      25.703356      0.99060186   
    109600   295.8832      -15529.732      5093.5209      25.711661      0.99028189   
    109700   303.10332     -19591.993      5095.166       25.719966      0.98996214   
    109800   290.08883     -23224.98       5096.8112      25.72827       0.98964259   
    109900   277.18688     -20668.108      5098.4564      25.736575      0.98932325   
    110000   279.45955     -17654.81       5100.1016      25.74488       0.98900411   
    110100   311.0471      -11493.732      5101.7468      25.753185      0.98868518   
    110200   316.18863     -14549.906      5103.392       25.76149       0.98836646   
    110300   306.29818     -9569.893       5105.0372      25.769794      0.98804794   
    110400   296.38728     -11284.541      5106.6824      25.778099      0.98772962   
    110500   261.37942     -14044.197      5108.3276      25.786404      0.98741151   
    110600   282.48578     -14738.686      5109.9728      25.794709      0.98709361   
    110700   306.00064     -16236.484      5111.618       25.803014      0.98677591   
    110800   306.82015     -13574.64       5113.2632      25.811318      0.98645841   
    110900   301.58019     -16206.797      5114.9084      25.819623      0.98614112   
    111000   324.35452     -15907.356      5116.5536      25.827928      0.98582403   
    111100   312.65071     -16590.243      5118.1988      25.836233      0.98550715   
    111200   303.41639     -13915.164      5119.844       25.844538      0.98519047   
    111300   280.86613     -14721.24       5121.4892      25.852842      0.98487399   
    111400   294.29265     -12693.213      5123.1343      25.861147      0.98455772   
    111500   310.27961     -13550.187      5124.7795      25.869452      0.98424165   
    111600   304.90914     -7845.2967      5126.4247      25.877757      0.98392578   
    111700   320.03447     -15388.653      5128.0699      25.886062      0.98361012   
    111800   315.61464     -16961.953      5129.7151      25.894366      0.98329466   
    111900   288.39574     -10459.742      5131.3603      25.902671      0.9829794    
    112000   299.7764      -10120.418      5133.0055      25.910976      0.98266434   
    112100   329.01119     -12862.266      5134.6507      25.919281      0.98234949   
    112200   318.75156     -5909.0743      5136.2959      25.927586      0.98203483   
    112300   303.53774     -20028.705      5137.9411      25.93589       0.98172038   
    112400   255.56461     -7732.0377      5139.5863      25.944195      0.98140613   
    112500   298.41686     -25219.822      5141.2315      25.9525        0.98109208   
    112600   291.9736      -21418.658      5142.8767      25.960805      0.98077823   
    112700   303.61679     -13621.673      5144.5219      25.96911       0.98046458   
    112800   313.7859      -4492.134       5146.1671      25.977414      0.98015113   
    112900   313.03903     -13605.775      5147.8123      25.985719      0.97983789   
    113000   314.69741     -17674.972      5149.4575      25.994024      0.97952484   
    113100   291.25961     -15203.074      5151.1026      26.002329      0.97921199   
    113200   289.83065     -13476.848      5152.7478      26.010634      0.97889934   
    113300   293.93092     -13977.507      5154.393       26.018938      0.9785869    
    113400   293.87969     -18917.383      5156.0382      26.027243      0.97827465   
    113500   332.61182     -10080.613      5157.6834      26.035548      0.9779626    
    113600   316.09477     -9832.535       5159.3286      26.043853      0.97765075   
    113700   300.09132     -12009.97       5160.9738      26.052158      0.9773391    
    113800   311.3302      -18736.792      5162.619       26.060462      0.97702764   
    113900   292.41267     -15223.489      5164.2642      26.068767      0.97671639   
    114000   292.3061      -14366.937      5165.9094      26.077072      0.97640533   
    114100   316.68346     -16476.529      5167.5546      26.085377      0.97609447   
    114200   295.78374     -16262.367      5169.1998      26.093682      0.97578381   
    114300   305.36342     -17420.708      5170.845       26.101986      0.97547335   
    114400   295.32248     -22099.613      5172.4902      26.110291      0.97516309   
    114500   313.06436     -15441.922      5174.1354      26.118596      0.97485302   
    114600   289.233       -17679.95       5175.7806      26.126901      0.97454315   
    114700   286.35503     -16330.417      5177.4257      26.135206      0.97423347   
    114800   329.33194     -17324.365      5179.0709      26.14351       0.973924     
    114900   298.07143     -7053.8579      5180.7161      26.151815      0.97361472   
    115000   309.55128     -19529.576      5182.3613      26.16012       0.97330563   
    115100   294.13316     -19785.089      5184.0065      26.168425      0.97299675   
    115200   290.68662     -23486.338      5185.6517      26.17673       0.97268805   
    115300   300.87737     -18860.201      5187.2969      26.185034      0.97237956   
    115400   305.03075     -12237.251      5188.9421      26.193339      0.97207126   
    115500   311.01528     -17424.894      5190.5873      26.201644      0.97176315   
    115600   307.66655     -10701.433      5192.2325      26.209949      0.97145524   
    115700   286.99213     -17062.869      5193.8777      26.218254      0.97114753   
    115800   275.63192     -12683.513      5195.5229      26.226558      0.97084001   
    115900   291.69728     -13051.795      5197.1681      26.234863      0.97053268   
    116000   309.97818     -13024.541      5198.8133      26.243168      0.97022555   
    116100   318.25914     -16150.036      5200.4585      26.251473      0.96991862   
    116200   292.18306     -33177.881      5202.1037      26.259778      0.96961187   
    116300   286.39024     -18156.269      5203.7489      26.268082      0.96930533   
    116400   282.00202     -17370.887      5205.394       26.276387      0.96899897   
    116500   306.06241     -11832.318      5207.0392      26.284692      0.96869281   
    116600   316.47349     -23366.909      5208.6844      26.292997      0.96838684   
    116700   275.83286     -16828.791      5210.3296      26.301302      0.96808107   
    116800   293.73544     -21203.909      5211.9748      26.309606      0.96777549   
    116900   320.10149     -11748.859      5213.62        26.317911      0.9674701    
    117000   316.65157     -16271.933      5215.2652      26.326216      0.9671649    
    117100   315.36365     -14589.311      5216.9104      26.334521      0.9668599    
    117200   301.93001     -21689.533      5218.5556      26.342826      0.96655509   
    117300   287.59098     -18510.348      5220.2008      26.35113       0.96625047   
    117400   294.61524     -17718.485      5221.846       26.359435      0.96594604   
    117500   284.48272     -13008.013      5223.4912      26.36774       0.96564181   
    117600   297.94721     -9876.7345      5225.1364      26.376045      0.96533777   
    117700   319.85618     -13055.821      5226.7816      26.38435       0.96503391   
    117800   294.84045     -15686.068      5228.4268      26.392654      0.96473025   
    117900   288.58099     -23223.488      5230.072       26.400959      0.96442678   
    118000   305.39324     -25077.198      5231.7172      26.409264      0.9641235    
    118100   324.21024     -22115.098      5233.3623      26.417569      0.96382042   
    118200   334.89224     -18991.392      5235.0075      26.425874      0.96351752   
    118300   304.42317     -20757.72       5236.6527      26.434178      0.96321481   
    118400   301.26313     -22652.164      5238.2979      26.442483      0.96291229   
    118500   292.43925     -13519.703      5239.9431      26.450788      0.96260997   
    118600   303.72182     -17953.122      5241.5883      26.459093      0.96230783   
    118700   317.60787     -20495.552      5243.2335      26.467398      0.96200588   
    118800   304.04206     -17847.239      5244.8787      26.475702      0.96170412   
    118900   293.85444     -11080.012      5246.5239      26.484007      0.96140255   
    119000   289.32543     -19950.486      5248.1691      26.492312      0.96110117   
    119100   302.64514     -24196.451      5249.8143      26.500617      0.96079998   
    119200   282.61555     -10668.64       5251.4595      26.508922      0.96049898   
    119300   293.71267     -15027.733      5253.1047      26.517226      0.96019817   
    119400   314.09986     -23430.08       5254.7499      26.525531      0.95989754   
    119500   316.80402     -15224.479      5256.3951      26.533836      0.9595971    
    119600   293.0624      -23351.626      5258.0403      26.542141      0.95929685   
    119700   286.07548     -24252.826      5259.6855      26.550446      0.95899679   
    119800   291.21352     -22923.44       5261.3306      26.55875       0.95869692   
    119900   319.42521     -18853.583      5262.9758      26.567055      0.95839723   
    120000   309.74676     -18689.154      5264.621       26.57536       0.95809773   
Loop time of 3483.04 on 8 procs for 120000 steps with 271 atoms

Performance: 1.488 ns/day, 16.125 hours/ns, 34.453 timesteps/s, 9.337 katom-step/s
98.5% CPU use with 8 MPI tasks x 1 OpenMP threads

MPI task timing breakdown:
Section |  min time  |  avg time  |  max time  |%varavg| %total
---------------------------------------------------------------
Pair    | 2404.5     | 2644.2     | 2789.3     | 264.4 | 75.92
Bond    | 0.3222     | 0.35761    | 0.41069    |   5.4 |  0.01
Neigh   | 191.05     | 197.93     | 207.06     |  36.6 |  5.68
Comm    | 134.76     | 279.03     | 517.94     | 809.0 |  8.01
Output  | 0.57331    | 0.62138    | 0.6721     |   4.6 |  0.02
Modify  | 350.31     | 358.15     | 363.9      |  23.2 | 10.28
Other   |            | 2.755      |            |       |  0.08

Nlocal:         33.875 ave          54 max          10 min
Histogram: 2 0 0 1 1 0 0 2 1 1
Nghost:        1930.25 ave        2174 max        1625 min
Histogram: 1 2 0 1 0 0 0 0 0 4
Neighs:        12224.8 ave       20573 max        3520 min
Histogram: 2 0 1 0 1 1 0 0 1 2

Total # of neighbors = 97798
Ave neighs/atom = 360.87823
Ave special neighs/atom = 0
Neighbor list builds = 12000
Dangerous builds not checked
Total wall time: 0:58:03
