LAMMPS data file via write_data, version 2 Aug 2023, timestep = 1, units = real

365 atoms
4 atom types

0 17.6144 xlo xhi
0 14.9838 ylo yhi
0 17.4642 zlo zhi
-6.9346 2.088 0.8795 xy xz yz

Masses

1 12.0107
2 1.00794
3 15.9994
4 28.0855

Atoms # full

1 1 4 0 3.19128 1.14967 2.94275 0 0 0
2 1 4 0 1.8837099999999998 2.7569699999999986 0.83493 0 0 0
4 1 4 0 2.3456800000000007 3.71717 5.7905200000000026 0 0 0
8 1 4 0 -0.60163 4.53887 1.2653 0 0 0
10 1 4 0 1.8179199999999989 4.86868 8.59444 0 0 0
20 1 4 0 7.747290000000001 0.15003000000000008 2.4469200000000013 0 0 0
21 1 4 0 5.015550000000002 2.77635 4.7380400000000025 0 0 0
22 1 4 0 6.705450000000001 2.40518 0.38605 0 0 0
25 1 4 0 7.1223 3.03539 6.82337 0 0 0
29 1 4 0 6.278620000000002 4.6031499999999985 2.54172 0 0 0
32 1 4 0 5.955709999999997 5.741640000000003 8.08316 0 0 0
34 1 4 0 4.84816 7.48817 5.8316300000000005 0 0 0
68 1 1 0 -0.2130099999999996 6.7869600000000005 6.579250000000003 0 0 0
74 1 1 0 8.021079999999998 0.9547000000000001 4.08455 0 0 0
78 1 1 0 1.8338400000000008 6.629139999999997 2.71653 0 0 0
79 1 1 0 4.731189999999999 5.50941 2.25132 0 0 0
102 1 3 -0.82 2.7926299999999995 2.58294 2.20429 0 0 0
105 1 3 -0.82 0.9764599999999998 4.10921 0.87113 0 0 0
107 1 3 -0.82 2.2301099999999994 4.78858 7.02159 0 0 0
108 1 3 -0.82 -1.5995500000000005 7.026489999999997 3.99704 0 0 0
112 1 3 -0.82 1.86077 0.57304 3.7293500000000006 0 0 0
119 1 3 -0.82 4.334820000000001 1.46106 4.07521 0 0 0
120 1 3 -0.82 3.8593100000000016 3.84573 5.161620000000003 0 0 0
121 1 3 -0.82 7.02759 1.1738299999999993 1.37226 0 0 0
123 1 3 -0.82 5.85557 2.2996 6.05407 0 0 0
129 1 3 -0.82 6.04266 3.46595 3.69501 0 0 0
130 1 3 -0.82 6.84239 3.8287999999999998 1.2030400000000006 0 0 0
133 1 3 -0.82 6.61524 4.50161 7.31463 0 0 0
135 1 3 -0.82 3.4517900000000004 7.450639999999997 4.957220000000003 0 0 0
136 1 3 -0.82 4.843659999999999 6.39488 7.06649 0 0 0
191 1 2 0.41 1.3779499999999993 4.10036 4.73516 0 0 0
192 1 2 0.41 2.1076299999999994 2.3344 6.28126 0 0 0
193 1 2 0.41 1.0875999999999995 1.5262899999999993 0.7533500000000001 0 0 0
204 1 2 0.41 7.47355 2.18961 7.98323 0 0 0
206 1 2 0.41 -0.5169200000000007 5.730039999999997 2.12944 0 0 0
222 1 2 0.41 -0.3871400000000006 2.6823300000000008 2.8163900000000006 0 0 0
223 1 2 0.41 -2.4269900000000004 5.612779999999999 0.012170000000000004 0 0 0
224 1 2 0.41 0.3346199999999989 5.894560000000001 6.263030000000002 0 0 0
225 1 2 0.41 -1.0655800000000006 6.48341 7.192190000000002 0 0 0
226 1 2 0.41 0.4867300000000001 7.38531 7.1784 0 0 0
240 1 2 0.41 8.02092 2.03597 3.9463900000000014 0 0 0
241 1 2 0.41 9.002690000000001 0.66184 4.48156 0 0 0
242 1 2 0.41 7.259289999999997 0.70695 4.83081 0 0 0
252 1 2 0.41 1.58787 5.69077 3.22916 0 0 0
253 1 2 0.41 2.60478 6.428689999999999 1.97745 0 0 0
254 1 2 0.41 0.9323499999999993 6.96667 2.193450000000001 0 0 0
255 1 2 0.41 4.3540600000000005 5.83378 3.22865 0 0 0
256 1 2 0.41 3.979039999999999 4.84631 1.8131800000000007 0 0 0
257 1 2 0.41 4.857750000000001 6.39403 1.61867 0 0 0
342 10 2 0.41 -0.95712 4.606119999999997 4.76581 0 0 0
343 11 2 0.41 -0.27098000000000133 3.58002 6.86065 0 0 0
349 17 2 0.41 4.718639999999997 0.19236 1.25676 0 0 0
356 24 2 0.41 4.21079 0.8558200000000004 6.88961 0 0 0
3 1 4 0 1.7190700000000003 2.2162500000000005 10.10845 0 0 0
5 1 4 0 4.605559999999997 1.18379 14.445300000000001 0 0 0
7 1 4 0 3.444329999999999 3.07647 12.31398 0 0 0
12 1 4 0 1.71266 5.103249999999999 13.714930000000004 0 0 0
13 1 4 0 1.1729399999999999 8.00383 12.77751 0 0 0
24 1 4 0 5.692999999999997 3.6428800000000012 10.226 0 0 0
26 1 4 0 9.34936 0.92244 13.52501 0 0 0
27 1 4 0 6.167809999999999 3.203449999999999 16.14042 0 0 0
28 1 4 0 8.71565 3.0870100000000003 11.31235 0 0 0
33 1 4 0 2.6850500000000004 7.79646 9.37015 0 0 0
67 1 1 0 0.5721699999999994 5.955539999999999 17.18593 0 0 -1
69 1 1 0 2.996999999999997 5.56443 14.95557 0 0 0
77 1 1 0 6.807670000000001 4.28222 14.78854 0 0 0
80 1 1 0 5.578939999999997 6.82458 16.70853 0 0 0
82 1 1 0 5.073989999999999 6.8079 12.36742 0 0 0
103 1 3 -0.82 2.6915299999999998 1.93789 11.4046 0 0 0
104 1 3 -0.82 3.77635 2.46576 13.790740000000005 0 0 0
106 1 3 -0.82 2.36677 3.4980800000000003 9.309700000000005 0 0 0
109 1 3 -0.82 0.5637899999999982 4.078070000000001 14.240340000000005 0 0 0
110 1 3 -0.82 2.468199999999999 4.37707 12.4397 0 0 0
111 1 3 -0.82 0.9215199999999988 6.4425 13.19555 0 0 0
122 1 3 -0.82 4.82733 3.5522599999999995 11.605610000000002 0 0 0
124 1 3 -0.82 5.749650000000001 1.76132 15.47263 0 0 0
125 1 3 -0.82 7.28755 3.01181 17.31016 0 0 0
126 1 3 -0.82 4.86186 3.78047 16.94137 0 0 0
127 1 3 -0.82 7.247680000000001 3.3989100000000008 10.667490000000006 0 0 0
128 1 3 -0.82 8.59854 2.052330000000001 12.595720000000004 0 0 0
132 1 3 -0.82 5.4236699999999995 5.116729999999999 9.51812 0 0 0
134 1 3 -0.82 2.503710000000001 6.18206 9.25817 0 0 0
190 1 2 0.41 1.7120499999999992 1.00828 9.26686 0 0 0
195 1 2 0.41 0.35763999999999974 4.954039999999997 8.772370000000002 0 0 0
203 1 2 0.41 5.29312 2.56973 9.29423 0 0 0
216 1 2 0.41 6.68534 7.452530000000001 14.22412 0 0 0
227 1 2 0.41 3.076529999999999 6.655900000000001 15.033900000000001 0 0 0
228 1 2 0.41 3.9692500000000006 5.17465 14.6383 0 0 0
229 1 2 0.41 2.8088000000000006 5.17584 15.95869 0 0 0
238 1 2 0.41 -0.9379700000000031 8.290790000000001 16.00248 0 0 0
249 1 2 0.41 7.57131 3.70573 14.247610000000002 0 0 0
250 1 2 0.41 7.272739999999999 5.19955 15.16301 0 0 0
251 1 2 0.41 6.02956 4.5489 14.0614 0 0 0
258 1 2 0.41 5.358650000000001 6.414620000000001 15.719310000000002 0 0 0
259 1 2 0.41 4.965379999999998 6.268320000000002 17.42407 0 0 0
260 1 2 0.41 6.633900000000001 6.632059999999999 16.93314 0 0 0
261 1 2 0.41 2.8896700000000006 7.793669999999999 17.2294 0 0 0
263 1 2 0.41 6.0337700000000005 6.28393 12.453110000000004 0 0 0
264 1 2 0.41 4.349149999999999 6.112399999999999 11.929310000000005 0 0 0
265 1 2 0.41 4.738960000000002 7.075049999999999 13.37494 0 0 0
330 4 1 0 1.5312799999999998 2.28975 16.25392 0 0 0
331 4 2 0.41 2.5222999999999995 2.54763 15.875180000000002 0 0 0
332 4 2 0.41 1.3412599999999997 2.88073 17.15647 0 0 0
345 13 2 0.41 -0.42903 4.6647 11.889600000000005 0 0 0
353 21 2 0.41 0.27552999999999894 5.14566 16.51239 0 0 0
354 22 2 0.41 1.1863199999999987 6.66812 16.62076 0 0 0
358 26 2 0.41 6.112699999999999 0.7521000000000003 12.556190000000004 0 0 0
11 1 4 0 -0.6684500000000013 7.82451 5.130480000000003 0 0 0
14 1 4 0 -5.34386 13.16744 4.339 0 0 0
15 1 4 0 -1.9014700000000015 9.782419999999998 7.126720000000002 0 0 0
17 1 4 0 -2.71539 12.61961 6.03037 0 0 0
23 1 4 0 1.597299999999997 13.216869999999997 8.19347 0 0 0
30 1 4 0 2.2587200000000003 7.96367 3.8951900000000013 0 0 0
36 1 4 0 3.6328900000000015 9.64966 1.69088 0 0 0
37 1 4 0 -0.3553000000000003 12.030119999999998 4.01641 0 0 0
39 1 4 0 3.66953 9.68934 7.30774 0 0 0
40 1 4 0 2.4647699999999992 11.99427 5.560920000000001 0 0 0
71 1 1 0 -0.2934900000000006 10.0887 7.99668 0 0 0
72 1 1 0 -3.1243800000000035 13.99353 7.2113 0 0 0
75 1 1 0 -0.18833000000000344 13.665599999999998 8.14104 0 0 0
113 1 3 -0.82 -1.5890700000000004 9.087409999999998 5.648 0 0 0
114 1 3 -0.82 -3.9614700000000025 12.58171 4.97439 0 0 0
115 1 3 -0.82 -2.6989199999999984 11.19346 6.83566 0 0 0
131 1 3 -0.82 0.7965799999999997 8.3669 4.562350000000003 0 0 0
138 1 3 -0.82 2.8397199999999967 9.29182 3.0897900000000007 0 0 0
139 1 3 -0.82 3.6571799999999985 8.332690000000005 0.72873 0 0 0
140 1 3 -0.82 -0.2177500000000004 12.967769999999998 2.67862 0 0 0
141 1 3 -0.82 -1.31636 12.728509999999995 5.160260000000001 0 0 0
142 1 3 -0.82 2.942299999999998 10.904150000000003 0.90389 0 0 0
143 1 3 -0.82 2.693989999999996 8.51412 7.897900000000003 0 0 0
144 1 3 -0.82 4.920700000000002 8.974619999999994 6.52394 0 0 0
145 1 3 -0.82 1.1445399999999988 11.806350000000002 4.642250000000001 0 0 0
146 1 3 -0.82 2.7761299999999998 10.55807 6.26827 0 0 0
147 1 3 -0.82 2.2027599999999974 13.16615 6.661910000000001 0 0 0
181 1 3 -0.82 4.2560899999999995 10.58305 8.51264 0 0 0
194 1 2 0.41 -2.591610000000002 7.692629999999999 1.7987200000000008 0 0 0
209 1 2 0.41 -0.92279 10.74167 3.586650000000001 0 0 0
232 1 2 0.41 0.4744799999999979 10.48832 7.324900000000001 0 0 0
233 1 2 0.41 0.09933999999999688 9.1538 8.41537 0 0 0
235 1 2 0.41 -2.765019999999999 13.810069999999994 8.22843 0 0 0
236 1 2 0.41 -4.22129 14.06959 7.24209 0 0 0
244 1 2 0.41 -0.7951900000000041 12.75443 8.11517 0 0 0
245 1 2 0.41 -0.41196000000000055 14.241769999999999 7.23739 0 0 0
327 3 1 0 -3.15899 14.012239999999995 1.73145 0 0 0
328 3 2 0.41 -3.9237899999999986 13.911119999999995 0.95222 0 0 0
329 3 2 0.41 -3.0159800000000017 13.03366 2.20651 0 0 0
336 6 1 0 2.4543200000000023 13.805129999999995 1.7740400000000005 0 0 0
337 6 2 0.41 2.497489999999999 13.751719999999995 0.6843200000000004 0 0 0
338 6 2 0.41 2.822739999999997 12.87439 2.20888 0 0 0
357 25 2 0.41 -3.94045 11.68451 0.59796 0 0 0
359 27 2 0.41 0.8304399999999998 8.660409999999995 0.05166000000000002 0 0 0
16 1 4 0 -3.4077600000000006 12.10945 10.417 0 0 0
18 1 4 0 -0.19256000000000273 10.07293 14.53191 0 0 0
19 1 4 0 -1.8785599999999998 9.915909999999995 11.8532 0 0 0
31 1 4 0 5.12613 8.61468 16.78716 0 0 0
35 1 4 0 5.205420000000002 8.295849999999996 11.276480000000005 0 0 0
38 1 4 0 4.31334 12.264149999999997 16.96545 0 0 0
41 1 4 0 4.284049999999996 10.645620000000003 13.205590000000006 0 0 0
42 1 4 0 1.3642499999999977 12.791900000000002 15.222280000000001 0 0 0
43 1 4 0 2.7547499999999996 12.61878 11.67575 0 0 0
73 1 1 0 -0.8348900000000015 9.37877 16.11933 0 0 0
81 1 1 0 3.2576299999999985 8.75019 16.83281 0 0 0
83 1 1 0 0.9508699999999983 12.692379999999998 11.28008 0 0 0
116 1 3 -0.82 0.9969199999999998 9.05172 14.030370000000001 0 0 0
117 1 3 -0.82 -3.1360500000000036 10.94164 11.56429 0 0 0
118 1 3 -0.82 -1.3742600000000007 10.10843 13.39941 0 0 0
137 1 3 -0.82 4.089129999999997 8.13655 10.09241 0 0 0
148 1 3 -0.82 4.98278 9.71456 12.05804 0 0 0
149 1 3 -0.82 0.36024999999999974 11.612279999999998 14.667100000000005 0 0 0
150 1 3 -0.82 1.256079999999997 14.1686 14.31839 0 0 0
151 1 3 -0.82 2.890420000000001 11.298819999999994 12.6427 0 0 0
152 1 3 -0.82 3.1908399999999997 13.987259999999994 12.520160000000002 0 0 0
154 1 3 -0.82 2.393729999999997 14.3133 9.10371 0 0 0
173 1 3 -0.82 5.910630000000001 9.41613 15.542870000000004 0 0 0
182 1 3 -0.82 3.847219999999999 12.354110000000002 10.49245 0 0 0
196 1 2 0.41 0.15048999999999668 8.31716 11.75132 0 0 0
198 1 2 0.41 -2.09494 12.47571 9.8238 0 0 0
199 1 2 0.41 -4.007480000000001 13.30669 11.05911 0 0 0
200 1 2 0.41 -0.78897 10.2567 10.90633 0 0 0
202 1 2 0.41 1.846309999999999 11.8748 8.76178 0 0 0
207 1 2 0.41 1.5281799999999972 8.33749 10.10298 0 0 0
208 1 2 0.41 2.5640799999999997 8.16136 12.303760000000002 0 0 0
210 1 2 0.41 3.878759999999998 9.815789999999998 14.333340000000003 0 0 0
211 1 2 0.41 2.7506099999999982 12.304 15.097240000000005 0 0 0
212 1 2 0.41 3.929370000000003 11.035560000000006 16.25064 0 0 0
213 1 2 0.41 0.9908799999999991 13.10959 16.61522 0 0 0
234 1 2 0.41 -0.4280900000000012 10.7781 8.838710000000006 0 0 0
237 1 2 0.41 -0.14168000000000358 9.55962 16.95366 0 0 0
239 1 2 0.41 -1.8160300000000007 9.78005 16.39214 0 0 0
243 1 2 0.41 -0.4977700000000005 14.25531 9.01225 0 0 0
262 1 2 0.41 2.786270000000001 8.91899 15.85661 0 0 0
266 1 2 0.41 0.41866999999999877 12.498999999999995 12.21972 0 0 0
267 1 2 0.41 0.6578899999999965 11.90866 10.57275 0 0 0
268 1 2 0.41 0.6246499999999975 13.66442 10.89886 0 0 0
320 2 4 0 -3.37395 12.94223 16.11706 0 0 0
321 2 1 0 -1.7489500000000016 12.68844 16.97993 0 0 0
323 2 3 -0.82 -3.3744600000000005 14.40523 15.34624 0 0 0
324 2 2 0.41 -1.2432900000000002 11.80006 16.59358 0 0 0
325 2 2 0.41 -1.0839600000000016 13.542269999999998 16.81201 0 0 0
326 2 2 0.41 -3.0584200000000004 11.688500000000001 14.01853 0 0 0
333 5 1 0 -1.623570000000001 14.30051 13.05859 0 0 0
334 5 2 0.41 -2.4210300000000036 14.09278 12.331160000000006 0 0 0
335 5 2 0.41 -1.2083400000000024 13.34683 13.4044 0 0 0
341 9 2 0.41 3.1512900000000013 13.084439999999999 17.361250000000002 0 0 -1
9 1 4 0 14.73195 6.8494 2.97427 -1 0 0
47 1 4 0 14.106049999999994 3.8294699999999997 5.94012 0 0 0
51 1 4 0 11.108490000000005 4.481019999999999 1.63639 0 0 0
52 1 4 0 7.56947 6.98947 4.04973 0 0 0
54 1 4 0 11.44335 5.183919999999997 6.6244700000000005 0 0 0
56 1 4 0 10.39801 7.532699999999999 5.06904 0 0 0
66 1 1 0 16.38698 3.08779 2.2358800000000003 -1 0 0
76 1 1 0 8.520760000000001 3.52271 5.75636 0 0 0
85 1 1 0 13.470219999999994 2.17865 5.39412 0 0 0
89 1 1 0 9.984050000000003 3.79329 2.90031 0 0 0
90 1 1 0 10.94412 1.9200499999999998 7.5764700000000005 0 0 0
91 1 1 0 10.50299 5.1615699999999975 8.21306 0 0 0
162 1 3 -0.82 11.554249999999996 3.17694 0.71966 0 0 0
163 1 3 -0.82 12.345440000000002 5.304689999999997 2.41383 0 0 0
164 1 3 -0.82 7.408959999999997 5.644720000000002 3.13387 0 0 0
165 1 3 -0.82 6.192689999999997 7.249459999999997 4.90837 0 0 0
166 1 3 -0.82 10.439360000000006 5.599929999999997 0.63865 0 0 0
167 1 3 -0.82 13.015169999999998 4.73324 6.8083 0 0 0
168 1 3 -0.82 7.075980000000004 6.880339999999998 8.38767 0 0 0
170 1 3 -0.82 11.231310000000004 7.34519 3.6578700000000004 0 0 0
171 1 3 -0.82 8.906940000000006 6.792079999999999 4.98048 0 0 0
172 1 3 -0.82 11.317680000000003 6.7699 6.180930000000002 0 0 0
176 1 3 -0.82 8.357699999999998 7.352 0.6821 0 0 0
214 1 2 0.41 10.960259999999998 4.36591 5.49094 0 0 0
230 1 2 0.41 15.08202 7.79024 8.45342 -1 0 0
246 1 2 0.41 8.116439999999997 4.02512 4.87383 0 0 0
247 1 2 0.41 9.22034 2.75374 5.43781 0 0 0
248 1 2 0.41 9.04757 4.28577 6.33381 0 0 0
270 1 2 0.41 13.246630000000003 1.53169 6.24604 0 0 0
271 1 2 0.41 14.270460000000005 1.6976600000000004 4.8137500000000015 0 0 0
272 1 2 0.41 12.57546 2.22612 4.76026 0 0 0
282 1 2 0.41 10.507899999999996 3.00894 3.4640900000000006 0 0 0
283 1 2 0.41 9.109559999999991 3.34107 2.41683 0 0 0
284 1 2 0.41 9.64331 4.55768 3.60085 0 0 0
285 1 2 0.41 11.201990000000002 1.0205300000000004 6.998200000000002 0 0 0
286 1 2 0.41 11.818969999999997 2.57771 7.598300000000002 0 0 0
287 1 2 0.41 10.13322 2.42744 7.05349 0 0 0
290 1 2 0.41 9.493229999999999 5.557859999999998 8.03751 0 0 0
339 7 3 -0.82 12.16375 0.5674799999999997 0.5638500000000002 0 0 0
351 19 2 0.41 13.911430000000005 2.2948 1.5933100000000004 0 0 0
352 20 2 0.41 13.511810000000006 3.37327 2.93457 0 0 0
360 28 2 0.41 10.081929999999995 0.49229999999999996 2.09133 0 0 0
361 29 2 0.41 15.33057 0.36862 1.39511 0 0 0
362 30 2 0.41 14.445570000000005 0.6677 2.91774 0 0 0
6 1 4 0 15.743279999999999 2.7066000000000003 15.056510000000005 0 0 0
45 1 4 0 13.570860000000005 2.71033 17.24103 0 0 0
46 1 4 0 10.47593 1.36743 9.27331 0 0 0
48 1 4 0 14.218849999999994 1.12207 12.966 0 0 0
49 1 4 0 10.95323 2.80607 15.60359 0 0 0
50 1 4 0 14.52407999999999 3.4947300000000014 11.19276 0 0 0
53 1 4 0 11.297519999999999 7.14959 17.249290000000002 0 0 -1
55 1 4 0 7.787860000000002 7.74081 9.582320000000001 0 0 0
58 1 4 0 9.76746 7.1267499999999995 11.695590000000003 0 0 0
86 1 1 0 11.67004 4.10794 14.509390000000005 0 0 0
87 1 1 0 12.04162 0.93397 10.16218 0 0 0
88 1 1 0 13.4027 4.0352 9.825350000000002 0 0 0
94 1 1 0 11.488300000000002 6.51928 11.379220000000004 0 0 0
95 1 1 0 9.210320000000005 6.46482 13.333920000000004 0 0 0
153 1 3 -0.82 14.38143 3.0601300000000005 15.88225 0 0 0
155 1 3 -0.82 9.7281 2.54362 10.17009 0 0 0
156 1 3 -0.82 15.438960000000002 1.48021 14.00878 0 0 0
157 1 3 -0.82 10.33249 1.60302 14.64343 0 0 0
158 1 3 -0.82 12.071909999999997 2.30648 16.71802 0 0 0
159 1 3 -0.82 9.74022 3.3998 16.53339 0 0 0
160 1 3 -0.82 17.8099 2.55048 10.55671 -1 0 0
161 1 3 -0.82 13.725169999999997 2.54073 12.29319 0 0 0
174 1 3 -0.82 8.73747 6.722889999999999 10.45563 0 0 0
205 1 2 0.41 9.274630000000002 4.341039999999998 11.812700000000003 0 0 0
273 1 2 0.41 10.954859999999995 4.40467 13.73467 0 0 0
274 1 2 0.41 12.563439999999996 3.7227300000000008 14.00458 0 0 0
275 1 2 0.41 11.95666 5.00368 15.07696 0 0 0
276 1 2 0.41 12.47663 1.8929999999999998 10.45217 0 0 0
279 1 2 0.41 12.346700000000006 4.02311 10.11517 0 0 0
280 1 2 0.41 13.524959999999993 3.39086 8.94762 0 0 0
281 1 2 0.41 13.6546 5.058850000000001 9.51866 0 0 0
288 1 2 0.41 11.00087 5.876849999999998 8.8803 0 0 0
289 1 2 0.41 10.411789999999998 4.208799999999998 8.736020000000002 0 0 0
295 1 2 0.41 8.635300000000003 7.393330000000002 16.27125 0 0 0
297 1 2 0.41 11.971110000000003 6.966399999999999 10.501930000000003 0 0 0
298 1 2 0.41 11.457480000000002 5.43004 11.25039 0 0 0
299 1 2 0.41 12.11406 6.725720000000001 12.25991 0 0 0
300 1 2 0.41 9.350179999999998 5.38664 13.433640000000004 0 0 0
301 1 2 0.41 8.146980000000001 6.661919999999998 13.50353 0 0 0
302 1 2 0.41 9.792250000000005 6.945199999999997 14.133880000000003 0 0 0
346 14 2 0.41 10.37315 6.08993 16.79596 0 0 0
347 15 2 0.41 11.91774 7.8576999999999995 16.09264 0 0 0
350 18 2 0.41 17.06819 1.2308600000000003 16.52919 0 0 0
44 1 4 0 6.055980000000001 13.52656 1.4063700000000006 0 0 0
59 1 4 0 8.556299999999995 8.67029 1.6414900000000001 0 0 0
60 1 4 0 5.303840000000003 12.36856 4.20175 0 0 0
61 1 4 0 7.4954800000000015 11.15106 0.04859 0 0 0
63 1 4 0 7.581009999999995 13.03422 6.194200000000003 0 0 0
70 1 1 0 14.620920000000002 8.76581 8.24355 -1 0 0
84 1 1 0 7.661360000000001 14.0709 2.09434 0 0 0
92 1 1 0 10.10885 9.29441 5.53418 0 0 0
96 1 1 0 10.348369999999997 9.11288 1.5162700000000002 0 0 0
97 1 1 0 11.87875999999999 11.87439 3.07643 -1 0 0
98 1 1 0 5.997779999999998 10.66073 4.20909 0 0 0
175 1 3 -0.82 7.896620000000001 8.276239999999994 3.09381 0 0 0
177 1 3 -0.82 5.211189999999999 13.05731 2.72273 0 0 0
178 1 3 -0.82 3.7563599999999986 12.4661 4.71258 0 0 0
179 1 3 -0.82 7.6861 9.99475 1.19713 0 0 0
180 1 3 -0.82 6.297839999999994 12.18941 0.46009 0 0 0
183 1 3 -0.82 9.008339999999999 13.365529999999998 5.46497 0 0 0
184 1 3 -0.82 6.2889800000000005 13.252179999999994 5.19759 0 0 0
217 1 2 0.41 5.0195099999999995 10.007519999999994 1.97818 0 0 0
218 1 2 0.41 4.63818 13.0157 8.15503 0 0 0
219 1 2 0.41 7.4441500000000005 13.97269 7.33756 0 0 0
220 1 2 0.41 7.61641 11.62357 6.66876 0 0 0
269 1 2 0.41 8.07805 13.15864 2.52677 0 0 0
291 1 2 0.41 11.01553 9.90999 5.51202 0 0 0
292 1 2 0.41 9.692699999999993 9.33355 6.55218 0 0 0
293 1 2 0.41 9.363790000000002 9.74055 4.86382 0 0 0
303 1 2 0.41 10.442049999999998 9.95638 0.8231600000000002 0 0 0
304 1 2 0.41 10.914939999999998 8.26988 1.10756 0 0 0
305 1 2 0.41 10.826010000000005 9.39351 2.45511 0 0 0
306 1 2 0.41 12.66883 11.12619 3.18489 -1 0 0
307 1 2 0.41 11.89848 12.23798 2.04437 -1 0 0
308 1 2 0.41 6.499859999999995 10.45691 5.16302 0 0 0
309 1 2 0.41 6.721110000000001 10.52778 3.39634 0 0 0
310 1 2 0.41 5.223759999999998 9.90127 4.08202 0 0 0
355 23 2 0.41 11.53113 8.587019999999995 7.84221 0 0 0
363 31 2 0.41 8.83050999999999 11.36978 3.23939 0 0 0
57 1 4 0 7.2049199999999995 8.71596 14.77069 0 0 0
62 1 4 0 4.785939999999997 11.972750000000001 9.20557 0 0 0
64 1 4 0 9.20356 9.937260000000002 12.790820000000005 0 0 0
65 1 4 0 6.020099999999999 13.02656 14.498290000000004 0 0 0
93 1 1 0 8.549400000000002 8.45722 16.01529 0 0 0
99 1 1 0 6.547370000000003 11.74602 9.70696 0 0 0
100 1 1 0 9.103150000000001 11.525829999999994 11.84003 0 0 0
101 1 1 0 7.7817700000000025 12.611699999999995 14.7651 0 0 0
169 1 3 -0.82 6.665030000000001 8.42673 10.54512 0 0 0
185 1 3 -0.82 7.735479999999999 9.60598 13.49207 0 0 0
186 1 3 -0.82 9.690270000000009 8.7758 11.73445 0 0 0
187 1 3 -0.82 5.289009999999999 11.884760000000004 13.57794 0 0 0
188 1 3 -0.82 6.020880000000001 14.50073 13.7309 0 0 0
189 1 3 -0.82 5.261620000000001 13.15352 15.954640000000005 0 0 0
197 1 2 0.41 13.293699999999996 11.59323 9.36241 -1 0 0
201 1 2 0.41 15.26435 8.52852 11.68439 -1 0 0
215 1 2 0.41 8.579279999999997 8.802900000000005 8.93009 0 0 0
221 1 2 0.41 10.189940000000005 9.915430000000006 13.89041 0 0 0
231 1 2 0.41 14.508909999999998 9.29542 9.201810000000002 -1 0 0
277 1 2 0.41 5.826060000000001 15.428870000000002 9.491860000000004 0 -1 0
278 1 2 0.41 4.9849699999999935 15.332720000000002 11.07587 0 -1 0
294 1 2 0.41 9.5237 8.80253 15.647110000000001 0 0 0
296 1 2 0.41 8.328489999999999 8.99944 16.94173 0 0 0
311 1 2 0.41 7.133800000000001 11.360839999999994 8.86075 0 0 0
312 1 2 0.41 6.608450000000002 11.013609999999995 10.51985 0 0 0
313 1 2 0.41 7.000820000000005 12.686729999999999 10.04351 0 0 0
314 1 2 0.41 8.10089 11.95953 11.89894 0 0 0
315 1 2 0.41 9.322860000000002 11.333410000000006 10.78143 0 0 0
316 1 2 0.41 9.81923 12.27041 12.212460000000005 0 0 0
317 1 2 0.41 8.377030000000001 12.72221 13.85426 0 0 0
318 1 2 0.41 7.869390000000001 11.58261 15.11437 0 0 0
319 1 2 0.41 8.19198 13.2874 15.522320000000006 0 0 0
322 2 1 0 13.833469999999997 11.68257 14.840380000000005 -1 0 0
340 8 3 -0.82 10.94147 12.92507 17.26138 0 0 0
344 12 2 0.41 7.827139999999998 14.31622 11.939280000000002 0 0 0
348 16 2 0.41 9.2639 11.27524 16.30534 0 0 0
364 32 2 0.41 11.699350000000003 10.65857 15.23484 0 0 0
365 33 2 0.41 10.762019999999998 11.92439 14.41919 0 0 0

Velocities

1 0 0 0
2 0 0 0
4 0 0 0
8 0 0 0
10 0 0 0
20 0 0 0
21 0 0 0
22 0 0 0
25 0 0 0
29 0 0 0
32 0 0 0
34 0 0 0
68 0 0 0
74 0 0 0
78 0 0 0
79 0 0 0
102 0 0 0
105 0 0 0
107 0 0 0
108 0 0 0
112 0 0 0
119 0 0 0
120 0 0 0
121 0 0 0
123 0 0 0
129 0 0 0
130 0 0 0
133 0 0 0
135 0 0 0
136 0 0 0
191 0 0 0
192 0 0 0
193 0 0 0
204 0 0 0
206 0 0 0
222 0 0 0
223 0 0 0
224 0 0 0
225 0 0 0
226 0 0 0
240 0 0 0
241 0 0 0
242 0 0 0
252 0 0 0
253 0 0 0
254 0 0 0
255 0 0 0
256 0 0 0
257 0 0 0
342 0 0 0
343 0 0 0
349 0 0 0
356 0 0 0
3 0 0 0
5 0 0 0
7 0 0 0
12 0 0 0
13 0 0 0
24 0 0 0
26 0 0 0
27 0 0 0
28 0 0 0
33 0 0 0
67 0 0 0
69 0 0 0
77 0 0 0
80 0 0 0
82 0 0 0
103 0 0 0
104 0 0 0
106 0 0 0
109 0 0 0
110 0 0 0
111 0 0 0
122 0 0 0
124 0 0 0
125 0 0 0
126 0 0 0
127 0 0 0
128 0 0 0
132 0 0 0
134 0 0 0
190 0 0 0
195 0 0 0
203 0 0 0
216 0 0 0
227 0 0 0
228 0 0 0
229 0 0 0
238 0 0 0
249 0 0 0
250 0 0 0
251 0 0 0
258 0 0 0
259 0 0 0
260 0 0 0
261 0 0 0
263 0 0 0
264 0 0 0
265 0 0 0
330 0 0 0
331 0 0 0
332 0 0 0
345 0 0 0
353 0 0 0
354 0 0 0
358 0 0 0
11 0 0 0
14 0 0 0
15 0 0 0
17 0 0 0
23 0 0 0
30 0 0 0
36 0 0 0
37 0 0 0
39 0 0 0
40 0 0 0
71 0 0 0
72 0 0 0
75 0 0 0
113 0 0 0
114 0 0 0
115 0 0 0
131 0 0 0
138 0 0 0
139 0 0 0
140 0 0 0
141 0 0 0
142 0 0 0
143 0 0 0
144 0 0 0
145 0 0 0
146 0 0 0
147 0 0 0
181 0 0 0
194 0 0 0
209 0 0 0
232 0 0 0
233 0 0 0
235 0 0 0
236 0 0 0
244 0 0 0
245 0 0 0
327 0 0 0
328 0 0 0
329 0 0 0
336 0 0 0
337 0 0 0
338 0 0 0
357 0 0 0
359 0 0 0
16 0 0 0
18 0 0 0
19 0 0 0
31 0 0 0
35 0 0 0
38 0 0 0
41 0 0 0
42 0 0 0
43 0 0 0
73 0 0 0
81 0 0 0
83 0 0 0
116 0 0 0
117 0 0 0
118 0 0 0
137 0 0 0
148 0 0 0
149 0 0 0
150 0 0 0
151 0 0 0
152 0 0 0
154 0 0 0
173 0 0 0
182 0 0 0
196 0 0 0
198 0 0 0
199 0 0 0
200 0 0 0
202 0 0 0
207 0 0 0
208 0 0 0
210 0 0 0
211 0 0 0
212 0 0 0
213 0 0 0
234 0 0 0
237 0 0 0
239 0 0 0
243 0 0 0
262 0 0 0
266 0 0 0
267 0 0 0
268 0 0 0
320 0 0 0
321 0 0 0
323 0 0 0
324 0 0 0
325 0 0 0
326 0 0 0
333 0 0 0
334 0 0 0
335 0 0 0
341 0 0 0
9 0 0 0
47 0 0 0
51 0 0 0
52 0 0 0
54 0 0 0
56 0 0 0
66 0 0 0
76 0 0 0
85 0 0 0
89 0 0 0
90 0 0 0
91 0 0 0
162 0 0 0
163 0 0 0
164 0 0 0
165 0 0 0
166 0 0 0
167 0 0 0
168 0 0 0
170 0 0 0
171 0 0 0
172 0 0 0
176 0 0 0
214 0 0 0
230 0 0 0
246 0 0 0
247 0 0 0
248 0 0 0
270 0 0 0
271 0 0 0
272 0 0 0
282 0 0 0
283 0 0 0
284 0 0 0
285 0 0 0
286 0 0 0
287 0 0 0
290 0 0 0
339 0 0 0
351 0 0 0
352 0 0 0
360 0 0 0
361 0 0 0
362 0 0 0
6 0 0 0
45 0 0 0
46 0 0 0
48 0 0 0
49 0 0 0
50 0 0 0
53 0 0 0
55 0 0 0
58 0 0 0
86 0 0 0
87 0 0 0
88 0 0 0
94 0 0 0
95 0 0 0
153 0 0 0
155 0 0 0
156 0 0 0
157 0 0 0
158 0 0 0
159 0 0 0
160 0 0 0
161 0 0 0
174 0 0 0
205 0 0 0
273 0 0 0
274 0 0 0
275 0 0 0
276 0 0 0
279 0 0 0
280 0 0 0
281 0 0 0
288 0 0 0
289 0 0 0
295 0 0 0
297 0 0 0
298 0 0 0
299 0 0 0
300 0 0 0
301 0 0 0
302 0 0 0
346 0 0 0
347 0 0 0
350 0 0 0
44 0 0 0
59 0 0 0
60 0 0 0
61 0 0 0
63 0 0 0
70 0 0 0
84 0 0 0
92 0 0 0
96 0 0 0
97 0 0 0
98 0 0 0
175 0 0 0
177 0 0 0
178 0 0 0
179 0 0 0
180 0 0 0
183 0 0 0
184 0 0 0
217 0 0 0
218 0 0 0
219 0 0 0
220 0 0 0
269 0 0 0
291 0 0 0
292 0 0 0
293 0 0 0
303 0 0 0
304 0 0 0
305 0 0 0
306 0 0 0
307 0 0 0
308 0 0 0
309 0 0 0
310 0 0 0
355 0 0 0
363 0 0 0
57 0 0 0
62 0 0 0
64 0 0 0
65 0 0 0
93 0 0 0
99 0 0 0
100 0 0 0
101 0 0 0
169 0 0 0
185 0 0 0
186 0 0 0
187 0 0 0
188 0 0 0
189 0 0 0
197 0 0 0
201 0 0 0
215 0 0 0
221 0 0 0
231 0 0 0
277 0 0 0
278 0 0 0
294 0 0 0
296 0 0 0
311 0 0 0
312 0 0 0
313 0 0 0
314 0 0 0
315 0 0 0
316 0 0 0
317 0 0 0
318 0 0 0
319 0 0 0
322 0 0 0
340 0 0 0
344 0 0 0
348 0 0 0
364 0 0 0
365 0 0 0
