LAMMPS (2 Aug 2023 - Update 2)
OMP_NUM_THREADS environment is not set. Defaulting to 1 thread. (src/comm.cpp:98)
  using 1 OpenMP thread(s) per MPI task
Reading data file ...
  triclinic box = (0 0 0) to (17.6144 14.9838 17.4642) with tilt (-6.9346 2.088 0.8795)
  2 by 2 by 2 MPI processor grid
  reading atoms ...
  365 atoms
Finding 1-2 1-3 1-4 neighbors ...
  special bond factors lj:    0        0        0       
  special bond factors coul:  0        0        0       
     0 = max # of 1-2 neighbors
     0 = max # of 1-3 neighbors
     0 = max # of 1-4 neighbors
     1 = max # of special neighbors
  special bonds CPU = 0.001 seconds
  read_data CPU = 0.012 seconds
*****Minimization starts.*****
Setting up cg style minimization ...
  Unit style    : real
  Current step  : 0
WARNING: No pairwise cutoff or binsize set. Atom sorting therefore disabled. (src/atom.cpp:2366)
WARNING: Communication cutoff is 0.0. No ghost atoms will be generated. Atoms may get lost. (src/comm_brick.cpp:210)
Per MPI rank memory allocation (min/avg/max) = 6.365 | 6.365 | 6.365 Mbytes
   Step          Temp          E_pair         E_mol          TotEng         Press     
         0   0              0              0              0              0            
         1   0              0              0              0              0            
Loop time of 7.30911e-05 on 8 procs for 1 steps with 365 atoms

50.3% CPU use with 8 MPI tasks x 1 OpenMP threads

Minimization stats:
  Stopping criterion = search direction is not downhill
  Energy initial, next-to-last, final = 
                     0                  0                  0
  Force two-norm initial, final = 0 0
  Force max component initial, final = 0 0
  Final line search alpha, max atom move = 0 0
  Iterations, force evaluations = 1 0

MPI task timing breakdown:
Section |  min time  |  avg time  |  max time  |%varavg| %total
---------------------------------------------------------------
Pair    | 0          | 0          | 0          |   0.0 |  0.00
Bond    | 1.39e-07   | 3.015e-07  | 3.68e-07   |   0.0 |  0.41
Neigh   | 0          | 0          | 0          |   0.0 |  0.00
Comm    | 1.235e-06  | 1.7535e-06 | 2.318e-06  |   0.0 |  2.40
Output  | 0          | 0          | 0          |   0.0 |  0.00
Modify  | 0          | 0          | 0          |   0.0 |  0.00
Other   |            | 7.104e-05  |            |       | 97.19

Nlocal:         45.625 ave          54 max          36 min
Histogram: 1 1 0 1 2 0 0 0 0 3
Nghost:              0 ave           0 max           0 min
Histogram: 8 0 0 0 0 0 0 0 0 0
Neighs:              0 ave           0 max           0 min
Histogram: 8 0 0 0 0 0 0 0 0 0

Total # of neighbors = 0
Ave neighs/atom = 0
Ave special neighs/atom = 0
Neighbor list builds = 0
Dangerous builds = 0
System init for write_data ...
WARNING: Communication cutoff is 0.0. No ghost atoms will be generated. Atoms may get lost. (src/comm_brick.cpp:210)
WARNING: New thermo_style command, previous thermo_modify settings will be lost (src/output.cpp:903)

CITE-CITE-CITE-CITE-CITE-CITE-CITE-CITE-CITE-CITE-CITE-CITE-CITE

Your simulation uses code contributions which should be cited:
- pair reaxff command: doi:10.1016/j.parco.2011.08.005
- fix qeq/reaxff command: doi:10.1016/j.parco.2011.08.005
The log file lists these citations in BibTeX format.

CITE-CITE-CITE-CITE-CITE-CITE-CITE-CITE-CITE-CITE-CITE-CITE-CITE

WARNING: Fix qeq/reaxff group is not charge neutral, net charge = -6.56 (src/REAXFF/fix_qeq_reaxff.cpp:392)
Neighbor list info ...
  update: every = 10 steps, delay = 0 steps, check = no
  max neighbors/atom: 2000, page size: 100000
  master list distance cutoff = 12
  ghost atom cutoff = 12
  binsize = 6, bins = 5 3 3
  2 neighbor lists, perpetual/occasional/extra = 2 0 0
  (1) pair reaxff, perpetual
      attributes: half, newton off, ghost
      pair build: half/bin/newtoff/ghost
      stencil: full/ghost/bin/3d
      bin: standard
  (2) fix qeq/reaxff, perpetual, copy from (1)
      attributes: half, newton off
      pair build: copy
      stencil: none
      bin: none
Setting up Verlet run ...
  Unit style    : real
  Current step  : 0
  Time step     : 0.5
Per MPI rank memory allocation (min/avg/max) = 112.1 | 112.9 | 113.7 Mbytes
   Step          Temp          PotEng         Press         Density         Volume    
         0   300           -38406.192      65843.638      1.4343051      4609.3376    
       100   1239.8042     -40400.919     -16184.425      1.4343051      4609.3376    
       200   949.78382     -41198.956      533.52401      1.4343051      4609.3376    
       300   604.0002      -41573.279      6882.4478      1.4343051      4609.3376    
       400   423.79727     -41803.342      5640.8422      1.4343051      4609.3376    
       500   344.34292     -41970.58       1673.3306      1.4343051      4609.3376    
       600   280.27049     -42048.615     -18313.475      1.4343051      4609.3376    
       700   266.31702     -42090.755     -10996.757      1.4343051      4609.3376    
       800   260.23505     -42080.09      -5942.2738      1.4343051      4609.3376    
       900   320.13798     -42089.979     -2806.5149      1.4343051      4609.3376    
      1000   315.83177     -42049.896     -13377.794      1.4343051      4609.3376    
      1100   327.21092     -42093.907     -8441.221       1.4343051      4609.3376    
      1200   288.18983     -42124.473     -7454.7223      1.4343051      4609.3376    
      1300   283.51922     -42166.998     -7036.9822      1.4343051      4609.3376    
      1400   275.17581     -42173.297     -7412.931       1.4343051      4609.3376    
      1500   289.91792     -42161.055     -8698.8837      1.4343051      4609.3376    
      1600   330.48191     -42160.348     -7131.9216      1.4343051      4609.3376    
      1700   318.41557     -42135.781     -10813.812      1.4343051      4609.3376    
      1800   300.04543     -42146.337     -4575.8071      1.4343051      4609.3376    
      1900   292.56824     -42176.782     -9687.8017      1.4343051      4609.3376    
      2000   275.11145     -42189.93      -4060.3449      1.4343051      4609.3376    
      2100   281.44804     -42195.965      2729.4604      1.4343051      4609.3376    
      2200   344.22804     -42262.661     -5220.4212      1.4343051      4609.3376    
      2300   301.61721     -42252.48       956.67416      1.4343051      4609.3376    
      2400   294.91018     -42271.975     -7458.1685      1.4343051      4609.3376    
      2500   289.93625     -42269.146     -14100.777      1.4343051      4609.3376    
      2600   303.05        -42262.253     -8426.8815      1.4343051      4609.3376    
      2700   287.21314     -42224.676     -7263.8834      1.4343051      4609.3376    
      2800   326.64143     -42256.523     -10107.139      1.4343051      4609.3376    
      2900   285.37349     -42235.063     -14489.637      1.4343051      4609.3376    
      3000   289.52988     -42262.091      1081.3661      1.4343051      4609.3376    
      3100   301.20413     -42279.32      -10116.585      1.4343051      4609.3376    
      3200   288.37481     -42253.339     -6487.0828      1.4343051      4609.3376    
      3300   326.36844     -42275.627     -8642.3704      1.4343051      4609.3376    
      3400   302.46131     -42247.141     -5408.9866      1.4343051      4609.3376    
      3500   297.01834     -42256.742     -20370.533      1.4343051      4609.3376    
      3600   288.72207     -42266.573     -15119.236      1.4343051      4609.3376    
      3700   305.62563     -42285.787     -907.49366      1.4343051      4609.3376    
      3800   299.9967      -42260.54      -12400.867      1.4343051      4609.3376    
      3900   319.16938     -42256.203     -9323.2111      1.4343051      4609.3376    
      4000   323.68297     -42260.546     -8897.3232      1.4343051      4609.3376    
      4100   294.6705      -42264.29      -4040.9852      1.4343051      4609.3376    
      4200   276.70072     -42276.55      -4073.9805      1.4343051      4609.3376    
      4300   288.53485     -42284.155     -5138.2024      1.4343051      4609.3376    
      4400   300.93793     -42265.595      1260.2142      1.4343051      4609.3376    
      4500   324.22029     -42260.989     -12481.431      1.4343051      4609.3376    
      4600   308.35946     -42245.481     -9075.3041      1.4343051      4609.3376    
      4700   301.63285     -42269.826      554.08806      1.4343051      4609.3376    
      4800   275.23393     -42278.42      -17705.129      1.4343051      4609.3376    
      4900   291.70333     -42301.607     -15824.31       1.4343051      4609.3376    
      5000   304.76193     -42295.676     -1409.6849      1.4343051      4609.3376    
Loop time of 190.051 on 8 procs for 5000 steps with 365 atoms

Performance: 1.137 ns/day, 21.117 hours/ns, 26.309 timesteps/s, 9.603 katom-step/s
98.8% CPU use with 8 MPI tasks x 1 OpenMP threads

MPI task timing breakdown:
Section |  min time  |  avg time  |  max time  |%varavg| %total
---------------------------------------------------------------
Pair    | 103.53     | 123.1      | 155.74     | 199.1 | 64.77
Bond    | 0.0013457  | 0.0016158  | 0.0017824  |   0.3 |  0.00
Neigh   | 9.0087     | 10.597     | 12.889     |  48.0 |  5.58
Comm    | 2.5993     | 35.265     | 54.843     | 372.0 | 18.56
Output  | 0.0026858  | 0.0029175  | 0.0040502  |   0.8 |  0.00
Modify  | 18.725     | 21.002     | 22.589     |  34.1 | 11.05
Other   |            | 0.07954    |            |       |  0.04

Nlocal:         45.625 ave          54 max          34 min
Histogram: 1 0 0 2 0 0 0 2 2 1
Nghost:        2863.38 ave        2898 max        2838 min
Histogram: 1 1 1 1 1 0 2 0 0 1
Neighs:        24996.5 ave       29269 max       18854 min
Histogram: 1 0 0 2 0 0 2 0 2 1

Total # of neighbors = 199972
Ave neighs/atom = 547.86849
Ave special neighs/atom = 0
Neighbor list builds = 500
Dangerous builds not checked
System init for write_data ...
System init for write_restart ...
OMP_NUM_THREADS environment is not set. Defaulting to 1 thread. (src/comm.cpp:98)
  using 1 OpenMP thread(s) per MPI task
Reading restart file ...
  restart file = 2 Aug 2023, LAMMPS = 2 Aug 2023
  restoring atom style full from restart
  triclinic box = (0 0 0) to (17.6144 14.9838 17.4642) with tilt (-6.9346 2.088 0.8795)
  2 by 2 by 2 MPI processor grid
  pair style reaxff stores no restart info
  365 atoms
Finding 1-2 1-3 1-4 neighbors ...
  special bond factors lj:    0        0        0       
  special bond factors coul:  0        0        0       
     0 = max # of 1-2 neighbors
     0 = max # of 1-3 neighbors
     0 = max # of 1-4 neighbors
     1 = max # of special neighbors
  special bonds CPU = 0.000 seconds
  read_restart CPU = 0.003 seconds
*****debug*****
xy = -6.9345999999999996533, deltaxy = 0.69346
xz = 2.0880000000000000782, deltaxz = -0.2088
yz = 0.87949999999999994849, deltayz = -0.08795
*****
*****Negative-deform 1 starts.*****
Resetting global fix info from restart file:
  fix style: nvt, fix ID: fnvt
All restart file global fix info was re-assigned
Neighbor list info ...
  update: every = 10 steps, delay = 0 steps, check = no
  max neighbors/atom: 2000, page size: 100000
  master list distance cutoff = 12
  ghost atom cutoff = 12
  binsize = 6, bins = 5 3 3
  2 neighbor lists, perpetual/occasional/extra = 2 0 0
  (1) pair reaxff, perpetual
      attributes: half, newton off, ghost
      pair build: half/bin/newtoff/ghost
      stencil: full/ghost/bin/3d
      bin: standard
  (2) fix qeq/reaxff, perpetual, copy from (1)
      attributes: half, newton off
      pair build: copy
      stencil: none
      bin: none
Setting up Verlet run ...
  Unit style    : real
  Current step  : 0
  Time step     : 0.5
Per MPI rank memory allocation (min/avg/max) = 111.5 | 112.1 | 112.7 Mbytes
   Step          Temp          PotEng         Press          Volume           Lx             Ly             Lz      
         0   304.76193     -42295.676     -1409.6833      4609.3376      17.6144        14.9838        17.4642      
       100   301.0023      -42261.775      1681.421       4600.1189      17.579171      14.9838        17.4642      
       200   322.88008     -42258.501     -9938.4536      4590.9003      17.543942      14.9838        17.4642      
       300   306.1784      -42260.604     -5594.3033      4581.6816      17.508714      14.9838        17.4642      
       400   286.97136     -42279.595     -7965.9558      4572.4629      17.473485      14.9838        17.4642      
       500   302.26861     -42308.753     -59.178739      4563.2442      17.438256      14.9838        17.4642      
       600   302.32591     -42289.508      4624.7549      4554.0255      17.403027      14.9838        17.4642      
       700   303.4289      -42264.254     -6309.8093      4544.8069      17.367798      14.9838        17.4642      
       800   315.75615     -42263.111     -13936.332      4535.5882      17.33257       14.9838        17.4642      
       900   303.51977     -42280.273     -17803.615      4526.3695      17.297341      14.9838        17.4642      
      1000   290.69394     -42289.057     -4981.2794      4517.1508      17.262112      14.9838        17.4642      
      1100   307.84158     -42306.56       9861.2664      4507.9322      17.226883      14.9838        17.4642      
      1200   295.75795     -42289.294     -3783.4473      4498.7135      17.191654      14.9838        17.4642      
      1300   304.50871     -42294.021      1736.7677      4489.4948      17.156426      14.9838        17.4642      
      1400   283.06283     -42261.371     -8117.4964      4480.2761      17.121197      14.9838        17.4642      
      1500   293.80707     -42271.268      610.1255       4471.0575      17.085968      14.9838        17.4642      
      1600   288.57718     -42270.135     -4378.3253      4461.8388      17.050739      14.9838        17.4642      
      1700   309.56809     -42292.888     -9486.3672      4452.6201      17.01551       14.9838        17.4642      
      1800   310.88559     -42297.99      -259.46631      4443.4014      16.980282      14.9838        17.4642      
      1900   310.4953      -42305.057      200.53633      4434.1828      16.945053      14.9838        17.4642      
      2000   298.48631     -42296.955     -11749.722      4424.9641      16.909824      14.9838        17.4642      
      2100   287.05273     -42282.131     -10855.663      4415.7454      16.874595      14.9838        17.4642      
      2200   294.42336     -42279.689     -1389.4004      4406.5267      16.839366      14.9838        17.4642      
      2300   286.92645     -42267.133      6403.3626      4397.3081      16.804138      14.9838        17.4642      
      2400   277.89693     -42268.688      2632.2301      4388.0894      16.768909      14.9838        17.4642      
      2500   299.19592     -42314.606     -9506.4532      4378.8707      16.73368       14.9838        17.4642      
      2600   291.84091     -42325.098     -4022.3478      4369.652       16.698451      14.9838        17.4642      
      2700   301.82241     -42340.056     -14387.631      4360.4334      16.663222      14.9838        17.4642      
      2800   314.96722     -42337.145      9954.4321      4351.2147      16.627994      14.9838        17.4642      
      2900   296.98835     -42298.345      5249.1246      4341.996       16.592765      14.9838        17.4642      
      3000   310.47035     -42310.742      12238.949      4332.7773      16.557536      14.9838        17.4642      
      3100   300.92234     -42313.218     -2524.5027      4323.5587      16.522307      14.9838        17.4642      
      3200   265.76618     -42301.92       12296.241      4314.34        16.487078      14.9838        17.4642      
      3300   298.93198     -42345.544      4405.2014      4305.1213      16.45185       14.9838        17.4642      
      3400   288.86078     -42326.526      5610.5923      4295.9026      16.416621      14.9838        17.4642      
      3500   312.61942     -42335.937      5085.7971      4286.684       16.381392      14.9838        17.4642      
      3600   296.28639     -42306.08      -4205.468       4277.4653      16.346163      14.9838        17.4642      
      3700   288.66759     -42284.304      5284.5465      4268.2466      16.310934      14.9838        17.4642      
      3800   299.1941      -42283.812      14486.867      4259.0279      16.275706      14.9838        17.4642      
      3900   308.05166     -42314.32       11084.088      4249.8093      16.240477      14.9838        17.4642      
      4000   284.32237     -42302.408      11254.36       4240.5906      16.205248      14.9838        17.4642      
      4100   286.21641     -42299.203      3500.3479      4231.3719      16.170019      14.9838        17.4642      
      4200   301.75773     -42303.872      11628.758      4222.1532      16.13479       14.9838        17.4642      
      4300   294.52552     -42277.964     -5516.3075      4212.9346      16.099562      14.9838        17.4642      
      4400   309.35665     -42283.622      12741.944      4203.7159      16.064333      14.9838        17.4642      
      4500   298.3519      -42283.05      -3296.7519      4194.4972      16.029104      14.9838        17.4642      
      4600   305.49509     -42316.495      4964.9113      4185.2785      15.993875      14.9838        17.4642      
      4700   300.47679     -42318.54       1130.2593      4176.0599      15.958646      14.9838        17.4642      
      4800   292.5805      -42324.773     -3464.9661      4166.8412      15.923418      14.9838        17.4642      
      4900   310.96466     -42345.332     -13115.728      4157.6225      15.888189      14.9838        17.4642      
      5000   299.28131     -42327.215      4941.9151      4148.4038      15.85296       14.9838        17.4642      
Loop time of 204.797 on 8 procs for 5000 steps with 365 atoms

Performance: 1.055 ns/day, 22.755 hours/ns, 24.414 timesteps/s, 8.911 katom-step/s
98.8% CPU use with 8 MPI tasks x 1 OpenMP threads

MPI task timing breakdown:
Section |  min time  |  avg time  |  max time  |%varavg| %total
---------------------------------------------------------------
Pair    | 113.2      | 135.82     | 168.59     | 197.7 | 66.32
Bond    | 0.001497   | 0.0017026  | 0.0020753  |   0.4 |  0.00
Neigh   | 9.4672     | 11.391     | 13.757     |  50.0 |  5.56
Comm    | 2.2533     | 35.054     | 57.684     | 389.2 | 17.12
Output  | 0.016342   | 0.018387   | 0.020375   |   0.9 |  0.01
Modify  | 20.082     | 22.428     | 24.371     |  35.6 | 10.95
Other   |            | 0.08566    |            |       |  0.04

Nlocal:         45.625 ave          51 max          40 min
Histogram: 1 1 1 0 0 2 1 0 0 2
Nghost:        3092.62 ave        3129 max        3061 min
Histogram: 2 0 2 0 0 0 1 1 1 1
Neighs:        27923.5 ave       31071 max       24546 min
Histogram: 1 1 0 1 0 2 1 0 0 2

Total # of neighbors = 223388
Ave neighs/atom = 612.02192
Ave special neighs/atom = 0
Neighbor list builds = 500
Dangerous builds not checked
OMP_NUM_THREADS environment is not set. Defaulting to 1 thread. (src/comm.cpp:98)
  using 1 OpenMP thread(s) per MPI task
Reading restart file ...
  restart file = 2 Aug 2023, LAMMPS = 2 Aug 2023
  restoring atom style full from restart
  triclinic box = (0 0 0) to (17.6144 14.9838 17.4642) with tilt (-6.9346 2.088 0.8795)
  2 by 2 by 2 MPI processor grid
  pair style reaxff stores no restart info
  365 atoms
Finding 1-2 1-3 1-4 neighbors ...
  special bond factors lj:    0        0        0       
  special bond factors coul:  0        0        0       
     0 = max # of 1-2 neighbors
     0 = max # of 1-3 neighbors
     0 = max # of 1-4 neighbors
     1 = max # of special neighbors
  special bonds CPU = 0.000 seconds
  read_restart CPU = 0.004 seconds
*****Positive-deform 1 starts.*****
Resetting global fix info from restart file:
  fix style: nvt, fix ID: fnvt
All restart file global fix info was re-assigned
Neighbor list info ...
  update: every = 10 steps, delay = 0 steps, check = no
  max neighbors/atom: 2000, page size: 100000
  master list distance cutoff = 12
  ghost atom cutoff = 12
  binsize = 6, bins = 5 3 3
  2 neighbor lists, perpetual/occasional/extra = 2 0 0
  (1) pair reaxff, perpetual
      attributes: half, newton off, ghost
      pair build: half/bin/newtoff/ghost
      stencil: full/ghost/bin/3d
      bin: standard
  (2) fix qeq/reaxff, perpetual, copy from (1)
      attributes: half, newton off
      pair build: copy
      stencil: none
      bin: none
Setting up Verlet run ...
  Unit style    : real
  Current step  : 0
  Time step     : 0.5
Per MPI rank memory allocation (min/avg/max) = 111.5 | 112.1 | 112.7 Mbytes
   Step          Temp          PotEng         Press          Volume           Lx             Ly             Lz      
         0   304.76193     -42295.676     -1409.6833      4609.3376      17.6144        14.9838        17.4642      
       100   300.87791     -42261.854      1591.9292      4618.5563      17.649629      14.9838        17.4642      
       200   324.69363     -42260.868     -6561.6472      4627.775       17.684858      14.9838        17.4642      
       300   313.65196     -42262.49      -3410.8706      4636.9936      17.720086      14.9838        17.4642      
       400   300.15147     -42279.822     -12239.677      4646.2123      17.755315      14.9838        17.4642      
       500   296.65987     -42290.571     -5459.9689      4655.431       17.790544      14.9838        17.4642      
       600   293.4113      -42272.502     -13050.277      4664.6497      17.825773      14.9838        17.4642      
       700   322.39756     -42264.315     -15650.929      4673.8683      17.861002      14.9838        17.4642      
       800   314.33732     -42237.299     -7647.0841      4683.087       17.89623       14.9838        17.4642      
       900   304.49557     -42243.005     -4854.3186      4692.3057      17.931459      14.9838        17.4642      
      1000   301.1151      -42271.731     -6551.3468      4701.5244      17.966688      14.9838        17.4642      
      1100   280.76659     -42259.346     -7991.1304      4710.743       18.001917      14.9838        17.4642      
      1200   290.96318     -42253.287     -10750.182      4719.9617      18.037146      14.9838        17.4642      
      1300   306.44225     -42253.17      -11969.88       4729.1804      18.072374      14.9838        17.4642      
      1400   307.69298     -42241.116     -10363.804      4738.3991      18.107603      14.9838        17.4642      
      1500   301.43347     -42253.972     -7142.3936      4747.6177      18.142832      14.9838        17.4642      
      1600   289.64178     -42262.152     -10420.074      4756.8364      18.178061      14.9838        17.4642      
      1700   296.82189     -42277.979     -11884.734      4766.0551      18.21329       14.9838        17.4642      
      1800   294.25817     -42270.219     -11662.554      4775.2738      18.248518      14.9838        17.4642      
      1900   300.53336     -42255.59      -17948.928      4784.4924      18.283747      14.9838        17.4642      
      2000   318.86604     -42255.875     -11941.087      4793.7111      18.318976      14.9838        17.4642      
      2100   329.7545      -42264.377     -6013.0926      4802.9298      18.354205      14.9838        17.4642      
      2200   310.55287     -42255.409     -7852.3095      4812.1485      18.389434      14.9838        17.4642      
      2300   296.36957     -42257.679     -13017.852      4821.3671      18.424662      14.9838        17.4642      
      2400   291.84521     -42267.278     -12996.25       4830.5858      18.459891      14.9838        17.4642      
      2500   288.30643     -42260.435     -9975.4077      4839.8045      18.49512       14.9838        17.4642      
      2600   306.81487     -42260.513     -4359.9025      4849.0232      18.530349      14.9838        17.4642      
      2700   319.57542     -42258.523     -3968.2907      4858.2418      18.565578      14.9838        17.4642      
      2800   311.98718     -42246.822     -14056.267      4867.4605      18.600806      14.9838        17.4642      
      2900   306.05576     -42248.244     -18651.702      4876.6792      18.636035      14.9838        17.4642      
      3000   308.22505     -42256.129     -22206.514      4885.8979      18.671264      14.9838        17.4642      
      3100   292.38739     -42252.704     -10004.991      4895.1165      18.706493      14.9838        17.4642      
      3200   276.06363     -42245.041     -19797.034      4904.3352      18.741722      14.9838        17.4642      
      3300   292.63523     -42243.671     -8878.5058      4913.5539      18.77695       14.9838        17.4642      
      3400   308.46427     -42245.395     -5499.977       4922.7726      18.812179      14.9838        17.4642      
      3500   284.5395      -42212.747     -6217.103       4931.9912      18.847408      14.9838        17.4642      
      3600   292.72212     -42225.642     -18577.494      4941.2099      18.882637      14.9838        17.4642      
      3700   298.94541     -42229.688     -6724.3301      4950.4286      18.917866      14.9838        17.4642      
      3800   296.62961     -42235.568     -11081.208      4959.6473      18.953094      14.9838        17.4642      
      3900   284.40395     -42226.865     -10907.404      4968.8659      18.988323      14.9838        17.4642      
      4000   296.92271     -42226.583      4437.8773      4978.0846      19.023552      14.9838        17.4642      
      4100   301.59731     -42202.087     -14630.947      4987.3033      19.058781      14.9838        17.4642      
      4200   322.07748     -42213.321     -14814.111      4996.522       19.09401       14.9838        17.4642      
      4300   277.69145     -42198.559     -8450.6081      5005.7406      19.129238      14.9838        17.4642      
      4400   308.69017     -42233.042     -8925.8291      5014.9593      19.164467      14.9838        17.4642      
      4500   289.17241     -42217.579     -9896.3859      5024.178       19.199696      14.9838        17.4642      
      4600   295.88624     -42205.396     -7741.7949      5033.3967      19.234925      14.9838        17.4642      
      4700   283.33137     -42165.541     -15482.501      5042.6153      19.270154      14.9838        17.4642      
      4800   312.17279     -42195.626     -24393.109      5051.834       19.305382      14.9838        17.4642      
      4900   304.5126      -42223.5       -14210.845      5061.0527      19.340611      14.9838        17.4642      
      5000   302.84983     -42223.42      -14019.889      5070.2714      19.37584       14.9838        17.4642      
Loop time of 198.934 on 8 procs for 5000 steps with 365 atoms

Performance: 1.086 ns/day, 22.104 hours/ns, 25.134 timesteps/s, 9.174 katom-step/s
98.6% CPU use with 8 MPI tasks x 1 OpenMP threads

MPI task timing breakdown:
Section |  min time  |  avg time  |  max time  |%varavg| %total
---------------------------------------------------------------
Pair    | 122.22     | 148.39     | 163.85     | 117.5 | 74.59
Bond    | 0.0016889  | 0.0020301  | 0.0022546  |   0.4 |  0.00
Neigh   | 10.273     | 11.847     | 13.042     |  30.3 |  5.96
Comm    | 1.978      | 17.478     | 43.692     | 342.6 |  8.79
Output  | 0.017634   | 0.020097   | 0.021945   |   0.9 |  0.01
Modify  | 19.887     | 21.101     | 22.643     |  22.8 | 10.61
Other   |            | 0.09254    |            |       |  0.05

Nlocal:         45.625 ave          56 max          33 min
Histogram: 2 0 0 1 0 1 1 1 0 2
Nghost:         2713.5 ave        2781 max        2648 min
Histogram: 1 1 0 1 2 1 0 0 0 2
Neighs:        22663.4 ave       27674 max       16515 min
Histogram: 1 1 0 1 0 1 1 1 0 2

Total # of neighbors = 181307
Ave neighs/atom = 496.73151
Ave special neighs/atom = 0
Neighbor list builds = 500
Dangerous builds not checked
OMP_NUM_THREADS environment is not set. Defaulting to 1 thread. (src/comm.cpp:98)
  using 1 OpenMP thread(s) per MPI task
Reading restart file ...
  restart file = 2 Aug 2023, LAMMPS = 2 Aug 2023
  restoring atom style full from restart
  triclinic box = (0 0 0) to (17.6144 14.9838 17.4642) with tilt (-6.9346 2.088 0.8795)
  2 by 2 by 2 MPI processor grid
  pair style reaxff stores no restart info
  365 atoms
Finding 1-2 1-3 1-4 neighbors ...
  special bond factors lj:    0        0        0       
  special bond factors coul:  0        0        0       
     0 = max # of 1-2 neighbors
     0 = max # of 1-3 neighbors
     0 = max # of 1-4 neighbors
     1 = max # of special neighbors
  special bonds CPU = 0.000 seconds
  read_restart CPU = 0.003 seconds
*****debug*****
xy = -6.9345999999999996533, deltaxy = 0.69346
xz = 2.0880000000000000782, deltaxz = -0.2088
yz = 0.87949999999999994849, deltayz = -0.08795
*****
*****Negative-deform 2 starts.*****
Resetting global fix info from restart file:
  fix style: nvt, fix ID: fnvt
All restart file global fix info was re-assigned
Neighbor list info ...
  update: every = 10 steps, delay = 0 steps, check = no
  max neighbors/atom: 2000, page size: 100000
  master list distance cutoff = 12
  ghost atom cutoff = 12
  binsize = 6, bins = 5 3 3
  2 neighbor lists, perpetual/occasional/extra = 2 0 0
  (1) pair reaxff, perpetual
      attributes: half, newton off, ghost
      pair build: half/bin/newtoff/ghost
      stencil: full/ghost/bin/3d
      bin: standard
  (2) fix qeq/reaxff, perpetual, copy from (1)
      attributes: half, newton off
      pair build: copy
      stencil: none
      bin: none
Setting up Verlet run ...
  Unit style    : real
  Current step  : 0
  Time step     : 0.5
Per MPI rank memory allocation (min/avg/max) = 111.5 | 112.1 | 112.7 Mbytes
   Step          Temp          PotEng         Press          Volume           Lx             Ly             Lz      
         0   304.76193     -42295.676     -1409.6833      4609.3376      17.6144        14.9838        17.4642      
       100   300.99539     -42261.639      1594.828       4600.1189      17.6144        14.953832      17.4642      
       200   321.09023     -42259.721     -7233.0641      4590.9003      17.6144        14.923865      17.4642      
       300   305.95184     -42257.704     -10263.638      4581.6816      17.6144        14.893897      17.4642      
       400   305.01825     -42294.842     -13134.526      4572.4629      17.6144        14.86393       17.4642      
       500   291.70449     -42296.297     -3356.9375      4563.2442      17.6144        14.833962      17.4642      
       600   283.2158      -42270.392     -4881.2223      4554.0255      17.6144        14.803994      17.4642      
       700   313.72461     -42277.417     -12599.2        4544.8069      17.6144        14.774027      17.4642      
       800   318.54589     -42259.821     -15080.527      4535.5882      17.6144        14.744059      17.4642      
       900   303.625       -42256.104     -5894.0087      4526.3695      17.6144        14.714092      17.4642      
      1000   281.63865     -42253.767     -15698.257      4517.1508      17.6144        14.684124      17.4642      
      1100   314.6563      -42297.672     -8152.2662      4507.9322      17.6144        14.654156      17.4642      
      1200   281.82802     -42267.043      2185.2642      4498.7135      17.6144        14.624189      17.4642      
      1300   289.72652     -42269.78      -14027.163      4489.4948      17.6144        14.594221      17.4642      
      1400   326.65916     -42305.009     -2389.7395      4480.2761      17.6144        14.564254      17.4642      
      1500   292.65902     -42276.222     -3979.7534      4471.0575      17.6144        14.534286      17.4642      
      1600   294.64124     -42283.59       2185.1055      4461.8388      17.6144        14.504318      17.4642      
      1700   285.42938     -42283.489      3037.3479      4452.6201      17.6144        14.474351      17.4642      
      1800   296.98441     -42290.214     -3933.6775      4443.4014      17.6144        14.444383      17.4642      
      1900   294.96587     -42279.361     -1865.5424      4434.1828      17.6144        14.414416      17.4642      
      2000   294.92137     -42265.856     -2347.5365      4424.9641      17.6144        14.384448      17.4642      
      2100   297.62902     -42251.192     -5407.4402      4415.7454      17.6144        14.35448       17.4642      
      2200   328.71896     -42295.07      -1044.1651      4406.5267      17.6144        14.324513      17.4642      
      2300   311.44493     -42318.587      13966.453      4397.3081      17.6144        14.294545      17.4642      
      2400   294.45991     -42335.59       11124.317      4388.0894      17.6144        14.264578      17.4642      
      2500   280.04727     -42329.776     -410.00658      4378.8707      17.6144        14.23461       17.4642      
      2600   277.16341     -42311.572      3505.0799      4369.652       17.6144        14.204642      17.4642      
      2700   301.28727     -42295.973     -13708.607      4360.4334      17.6144        14.174675      17.4642      
      2800   309.39557     -42279.102      2112.7402      4351.2147      17.6144        14.144707      17.4642      
      2900   309.01099     -42284.682      3095.441       4341.996       17.6144        14.11474       17.4642      
      3000   312.95394     -42321.761      12888.672      4332.7773      17.6144        14.084772      17.4642      
      3100   281.11281     -42313.466     -4976.6985      4323.5587      17.6144        14.054804      17.4642      
      3200   289.07991     -42338.865     -5953.0186      4314.34        17.6144        14.024837      17.4642      
      3300   274.41336     -42313.056      7531.4812      4305.1213      17.6144        13.994869      17.4642      
      3400   296.81887     -42310.769     -16058.095      4295.9026      17.6144        13.964902      17.4642      
      3500   307.69041     -42306.741     -5949.6652      4286.684       17.6144        13.934934      17.4642      
      3600   289.65468     -42298.732     -1565.3501      4277.4653      17.6144        13.904966      17.4642      
      3700   297.09201     -42316.405     -1340.4328      4268.2466      17.6144        13.874999      17.4642      
      3800   284.48839     -42316.393     -8589.634       4259.0279      17.6144        13.845031      17.4642      
      3900   279.62263     -42311.115      10018.405      4249.8093      17.6144        13.815064      17.4642      
      4000   320.15056     -42319.239      3091.8222      4240.5906      17.6144        13.785096      17.4642      
      4100   351.67359     -42337.998      4459.2974      4231.3719      17.6144        13.755128      17.4642      
      4200   349.85952     -42378.146      14458.919      4222.1532      17.6144        13.725161      17.4642      
      4300   317.34907     -42382.663     -6726.8473      4212.9346      17.6144        13.695193      17.4642      
      4400   320.97232     -42425.117     -6222.1182      4203.7159      17.6144        13.665226      17.4642      
      4500   294.73819     -42430.241     -3002.4811      4194.4972      17.6144        13.635258      17.4642      
      4600   290.18591     -42431.582     -2304.5576      4185.2785      17.6144        13.60529       17.4642      
      4700   315.18237     -42452.865      8998.6055      4176.0599      17.6144        13.575323      17.4642      
      4800   315.63565     -42436.95      -2622.9754      4166.8412      17.6144        13.545355      17.4642      
      4900   294.523       -42405.499      3440.3966      4157.6225      17.6144        13.515388      17.4642      
      5000   292.08759     -42398.247     -4923.8435      4148.4038      17.6144        13.48542       17.4642      
Loop time of 224.295 on 8 procs for 5000 steps with 365 atoms

Performance: 0.963 ns/day, 24.922 hours/ns, 22.292 timesteps/s, 8.137 katom-step/s
98.7% CPU use with 8 MPI tasks x 1 OpenMP threads

MPI task timing breakdown:
Section |  min time  |  avg time  |  max time  |%varavg| %total
---------------------------------------------------------------
Pair    | 126.22     | 165.54     | 187.25     | 176.8 | 73.80
Bond    | 0.0016414  | 0.0019293  | 0.0021312  |   0.4 |  0.00
Neigh   | 10.15      | 12.958     | 14.512     |  45.8 |  5.78
Comm    | 1.8824     | 23.626     | 62.913     | 468.1 | 10.53
Output  | 0.018715   | 0.020821   | 0.02285    |   1.0 |  0.01
Modify  | 20.481     | 22.056     | 24.906     |  35.2 |  9.83
Other   |            | 0.09225    |            |       |  0.04

Nlocal:         45.625 ave          55 max          40 min
Histogram: 2 1 1 0 2 0 0 0 1 1
Nghost:        3179.75 ave        3216 max        3138 min
Histogram: 1 1 0 0 2 0 1 1 1 1
Neighs:        27883.1 ave       33133 max       24737 min
Histogram: 2 2 0 1 1 0 0 0 1 1

Total # of neighbors = 223065
Ave neighs/atom = 611.13699
Ave special neighs/atom = 0
Neighbor list builds = 500
Dangerous builds not checked
OMP_NUM_THREADS environment is not set. Defaulting to 1 thread. (src/comm.cpp:98)
  using 1 OpenMP thread(s) per MPI task
Reading restart file ...
  restart file = 2 Aug 2023, LAMMPS = 2 Aug 2023
  restoring atom style full from restart
  triclinic box = (0 0 0) to (17.6144 14.9838 17.4642) with tilt (-6.9346 2.088 0.8795)
  2 by 2 by 2 MPI processor grid
  pair style reaxff stores no restart info
  365 atoms
Finding 1-2 1-3 1-4 neighbors ...
  special bond factors lj:    0        0        0       
  special bond factors coul:  0        0        0       
     0 = max # of 1-2 neighbors
     0 = max # of 1-3 neighbors
     0 = max # of 1-4 neighbors
     1 = max # of special neighbors
  special bonds CPU = 0.000 seconds
  read_restart CPU = 0.004 seconds
*****Positive-deform 2 starts.*****
Resetting global fix info from restart file:
  fix style: nvt, fix ID: fnvt
All restart file global fix info was re-assigned
Neighbor list info ...
  update: every = 10 steps, delay = 0 steps, check = no
  max neighbors/atom: 2000, page size: 100000
  master list distance cutoff = 12
  ghost atom cutoff = 12
  binsize = 6, bins = 5 3 3
  2 neighbor lists, perpetual/occasional/extra = 2 0 0
  (1) pair reaxff, perpetual
      attributes: half, newton off, ghost
      pair build: half/bin/newtoff/ghost
      stencil: full/ghost/bin/3d
      bin: standard
  (2) fix qeq/reaxff, perpetual, copy from (1)
      attributes: half, newton off
      pair build: copy
      stencil: none
      bin: none
Setting up Verlet run ...
  Unit style    : real
  Current step  : 0
  Time step     : 0.5
Per MPI rank memory allocation (min/avg/max) = 111.5 | 112.1 | 112.7 Mbytes
   Step          Temp          PotEng         Press          Volume           Lx             Ly             Lz      
         0   304.76193     -42295.676     -1409.6833      4609.3376      17.6144        14.9838        17.4642      
       100   300.88798     -42261.987      1680.1818      4618.5563      17.6144        15.013768      17.4642      
       200   323.38533     -42259.794     -8323.327       4627.775       17.6144        15.043735      17.4642      
       300   311.27503     -42261.524     -5049.163       4636.9936      17.6144        15.073703      17.4642      
       400   285.64029     -42267.418     -9018.5139      4646.2123      17.6144        15.10367       17.4642      
       500   295.83361     -42290.604     -8568.4975      4655.431       17.6144        15.133638      17.4642      
       600   288.80993     -42262.755     -13299.193      4664.6497      17.6144        15.163606      17.4642      
       700   312.77394     -42253.437     -12546.129      4673.8683      17.6144        15.193573      17.4642      
       800   338.27451     -42264.881     -10164.384      4683.087       17.6144        15.223541      17.4642      
       900   312.97562     -42250.007     -10080.443      4692.3057      17.6144        15.253508      17.4642      
      1000   297.58389     -42262.137     -2043.1096      4701.5244      17.6144        15.283476      17.4642      
      1100   297.34216     -42277.976     -8043.0165      4710.743       17.6144        15.313444      17.4642      
      1200   266.63578     -42240.925     -1736.6271      4719.9617      17.6144        15.343411      17.4642      
      1300   309.42459     -42261.946     -16392.267      4729.1804      17.6144        15.373379      17.4642      
      1400   316.71083     -42250.756     -9369.4164      4738.3991      17.6144        15.403346      17.4642      
      1500   328.18233     -42273.869     -3823.9314      4747.6177      17.6144        15.433314      17.4642      
      1600   299.5476      -42267.746     -7784.9823      4756.8364      17.6144        15.463282      17.4642      
      1700   291.90988     -42270.23      -6547.3272      4766.0551      17.6144        15.493249      17.4642      
      1800   284.52764     -42261.701     -18462.162      4775.2738      17.6144        15.523217      17.4642      
      1900   291.87325     -42251.043     -11298.199      4784.4924      17.6144        15.553184      17.4642      
      2000   323.06189     -42258.545     -8138.3316      4793.7111      17.6144        15.583152      17.4642      
      2100   309.39017     -42248.499     -11468.537      4802.9298      17.6144        15.61312       17.4642      
      2200   281.69839     -42236.478     -24116.216      4812.1485      17.6144        15.643087      17.4642      
      2300   273.01671     -42234.768     -23310.121      4821.3671      17.6144        15.673055      17.4642      
      2400   299.26862     -42256.82      -12708.524      4830.5858      17.6144        15.703022      17.4642      
      2500   305.40671     -42244.144     -11814.82       4839.8045      17.6144        15.73299       17.4642      
      2600   304.36724     -42225.672     -20499.549      4849.0232      17.6144        15.762958      17.4642      
      2700   312.59107     -42233.637     -2883.3629      4858.2418      17.6144        15.792925      17.4642      
      2800   300.1549      -42244.777     -6220.0294      4867.4605      17.6144        15.822893      17.4642      
      2900   272.21351     -42234.72      -20356.029      4876.6792      17.6144        15.85286       17.4642      
      3000   289.01796     -42231.958     -25279.496      4885.8979      17.6144        15.882828      17.4642      
      3100   296.74045     -42206.397     -16968.849      4895.1165      17.6144        15.912796      17.4642      
      3200   297.9461      -42193.206     -16704.989      4904.3352      17.6144        15.942763      17.4642      
      3300   297.53429     -42208.569     -19096.178      4913.5539      17.6144        15.972731      17.4642      
      3400   280.85982     -42214.164     -18260.63       4922.7726      17.6144        16.002698      17.4642      
      3500   282.51192     -42221.326     -17313.688      4931.9912      17.6144        16.032666      17.4642      
      3600   297.77411     -42215.33      -26984.729      4941.2099      17.6144        16.062634      17.4642      
      3700   312.79885     -42211.389     -9761.1929      4950.4286      17.6144        16.092601      17.4642      
      3800   318.24525     -42216.155     -18435.396      4959.6473      17.6144        16.122569      17.4642      
      3900   301.85422     -42226.311     -17795.27       4968.8659      17.6144        16.152536      17.4642      
      4000   292.12637     -42219.752     -19216.767      4978.0846      17.6144        16.182504      17.4642      
      4100   304.16594     -42215.458     -16604.888      4987.3033      17.6144        16.212472      17.4642      
      4200   315.72226     -42214.198     -23006.022      4996.522       17.6144        16.242439      17.4642      
      4300   309.7191      -42189.032     -18871.032      5005.7406      17.6144        16.272407      17.4642      
      4400   312.97023     -42181.528     -8206.4352      5014.9593      17.6144        16.302374      17.4642      
      4500   296.21309     -42182.587     -14070.455      5024.178       17.6144        16.332342      17.4642      
      4600   297.98516     -42198.282     -13954.037      5033.3967      17.6144        16.36231       17.4642      
      4700   297.28698     -42203.368     -17667.229      5042.6153      17.6144        16.392277      17.4642      
      4800   301.35887     -42212.095     -13497.449      5051.834       17.6144        16.422245      17.4642      
      4900   282.57491     -42215.823     -24096.608      5061.0527      17.6144        16.452212      17.4642      
      5000   292.71954     -42223.81      -16313.323      5070.2714      17.6144        16.48218       17.4642      
Loop time of 193.483 on 8 procs for 5000 steps with 365 atoms

Performance: 1.116 ns/day, 21.498 hours/ns, 25.842 timesteps/s, 9.432 katom-step/s
98.5% CPU use with 8 MPI tasks x 1 OpenMP threads

MPI task timing breakdown:
Section |  min time  |  avg time  |  max time  |%varavg| %total
---------------------------------------------------------------
Pair    | 110.39     | 149.15     | 158.96     | 122.4 | 77.09
Bond    | 0.0015827  | 0.0020028  | 0.0022416  |   0.5 |  0.00
Neigh   | 8.6326     | 11.497     | 12.255     |  33.1 |  5.94
Comm    | 2.9989     | 12.835     | 51.552     | 416.8 |  6.63
Output  | 0.017225   | 0.019558   | 0.021439   |   0.9 |  0.01
Modify  | 19.102     | 19.885     | 22.798     |  25.6 | 10.28
Other   |            | 0.0933     |            |       |  0.05

Nlocal:         45.625 ave          55 max          33 min
Histogram: 1 0 1 1 0 1 1 0 1 2
Nghost:        2605.88 ave        2624 max        2590 min
Histogram: 2 0 1 0 1 2 0 0 0 2
Neighs:        22654.5 ave       27067 max       16863 min
Histogram: 1 0 1 1 0 1 1 1 0 2

Total # of neighbors = 181236
Ave neighs/atom = 496.53699
Ave special neighs/atom = 0
Neighbor list builds = 500
Dangerous builds not checked
OMP_NUM_THREADS environment is not set. Defaulting to 1 thread. (src/comm.cpp:98)
  using 1 OpenMP thread(s) per MPI task
Reading restart file ...
  restart file = 2 Aug 2023, LAMMPS = 2 Aug 2023
  restoring atom style full from restart
  triclinic box = (0 0 0) to (17.6144 14.9838 17.4642) with tilt (-6.9346 2.088 0.8795)
  2 by 2 by 2 MPI processor grid
  pair style reaxff stores no restart info
  365 atoms
Finding 1-2 1-3 1-4 neighbors ...
  special bond factors lj:    0        0        0       
  special bond factors coul:  0        0        0       
     0 = max # of 1-2 neighbors
     0 = max # of 1-3 neighbors
     0 = max # of 1-4 neighbors
     1 = max # of special neighbors
  special bonds CPU = 0.000 seconds
  read_restart CPU = 0.003 seconds
*****debug*****
xy = -6.9345999999999996533, deltaxy = 0.69346
xz = 2.0880000000000000782, deltaxz = -0.2088
yz = 0.87949999999999994849, deltayz = -0.08795
*****
*****Negative-deform 3 starts.*****
Resetting global fix info from restart file:
  fix style: nvt, fix ID: fnvt
All restart file global fix info was re-assigned
Neighbor list info ...
  update: every = 10 steps, delay = 0 steps, check = no
  max neighbors/atom: 2000, page size: 100000
  master list distance cutoff = 12
  ghost atom cutoff = 12
  binsize = 6, bins = 5 3 3
  2 neighbor lists, perpetual/occasional/extra = 2 0 0
  (1) pair reaxff, perpetual
      attributes: half, newton off, ghost
      pair build: half/bin/newtoff/ghost
      stencil: full/ghost/bin/3d
      bin: standard
  (2) fix qeq/reaxff, perpetual, copy from (1)
      attributes: half, newton off
      pair build: copy
      stencil: none
      bin: none
Setting up Verlet run ...
  Unit style    : real
  Current step  : 0
  Time step     : 0.5
Per MPI rank memory allocation (min/avg/max) = 111.5 | 112.1 | 112.7 Mbytes
   Step          Temp          PotEng         Press          Volume           Lx             Ly             Lz      
         0   304.76193     -42295.676     -1409.6833      4609.3376      17.6144        14.9838        17.4642      
       100   301.03763     -42261.583      1689.1792      4600.1189      17.6144        14.9838        17.429272    
       200   325.01367     -42262.78      -5076.2572      4590.9003      17.6144        14.9838        17.394343    
       300   308.24016     -42261.028     -5802.9487      4581.6816      17.6144        14.9838        17.359415    
       400   285.17536     -42275.545     -17082.902      4572.4629      17.6144        14.9838        17.324486    
       500   286.62839     -42295.917     -3617.8915      4563.2442      17.6144        14.9838        17.289558    
       600   295.28749     -42286.825     -210.79962      4554.0255      17.6144        14.9838        17.25463     
       700   310.35123     -42268.634     -6188.9389      4544.8069      17.6144        14.9838        17.219701    
       800   305.03367     -42251.208     -7144.7993      4535.5882      17.6144        14.9838        17.184773    
       900   289.61972     -42252.024     -14178.392      4526.3695      17.6144        14.9838        17.149844    
      1000   276.37504     -42260.521     -8070.4305      4517.1508      17.6144        14.9838        17.114916    
      1100   298.23517     -42281.581     -2195.4212      4507.9322      17.6144        14.9838        17.079988    
      1200   305.23173     -42283.597     -1854.9555      4498.7135      17.6144        14.9838        17.045059    
      1300   283.6075      -42274.539     -215.46407      4489.4948      17.6144        14.9838        17.010131    
      1400   293.58113     -42288.796      2892.5766      4480.2761      17.6144        14.9838        16.975202    
      1500   298.63425     -42276.024     -2438.559       4471.0575      17.6144        14.9838        16.940274    
      1600   316.09604     -42284.266     -7277.4384      4461.8388      17.6144        14.9838        16.905346    
      1700   282.26136     -42271.048     -3942.4001      4452.6201      17.6144        14.9838        16.870417    
      1800   294.7904      -42309.424     -5246.5909      4443.4014      17.6144        14.9838        16.835489    
      1900   294.36565     -42310.802     -934.08611      4434.1828      17.6144        14.9838        16.80056     
      2000   303.07535     -42313.642      1819.5444      4424.9641      17.6144        14.9838        16.765632    
      2100   307.96548     -42310.242     -13226.444      4415.7454      17.6144        14.9838        16.730704    
      2200   293.06205     -42286.978     -3706.7045      4406.5267      17.6144        14.9838        16.695775    
      2300   304.54652     -42301.408     -5855.8501      4397.3081      17.6144        14.9838        16.660847    
      2400   305.29318     -42324.083     -6332.9401      4388.0894      17.6144        14.9838        16.625918    
      2500   305.1502      -42317.397     -762.31277      4378.8707      17.6144        14.9838        16.59099     
      2600   309.10711     -42308.68      -9076.0049      4369.652       17.6144        14.9838        16.556062    
      2700   318.57437     -42313.652      797.2709       4360.4334      17.6144        14.9838        16.521133    
      2800   293.6494      -42307.74       5715.7436      4351.2147      17.6144        14.9838        16.486205    
      2900   279.07677     -42300.796     -392.73974      4341.996       17.6144        14.9838        16.451276    
      3000   301.06809     -42325.417     -5172.6628      4332.7773      17.6144        14.9838        16.416348    
      3100   289.86591     -42308.425     -8793.5442      4323.5587      17.6144        14.9838        16.38142     
      3200   300.57562     -42308.092      81.609544      4314.34        17.6144        14.9838        16.346491    
      3300   296.74932     -42295.108     -5482.9026      4305.1213      17.6144        14.9838        16.311563    
      3400   315.62762     -42306.849      2355.2096      4295.9026      17.6144        14.9838        16.276634    
      3500   275.97054     -42282.965     -6635.0334      4286.684       17.6144        14.9838        16.241706    
      3600   316.63649     -42342.171      7181.4329      4277.4653      17.6144        14.9838        16.206778    
      3700   307.20651     -42340.503     -6652.4719      4268.2466      17.6144        14.9838        16.171849    
      3800   311.92659     -42354.886     -878.29067      4259.0279      17.6144        14.9838        16.136921    
      3900   289.80427     -42333.017      3010.7193      4249.8093      17.6144        14.9838        16.101992    
      4000   302.94187     -42352.161      3963.8862      4240.5906      17.6144        14.9838        16.067064    
      4100   296.47685     -42357.655      2832.1827      4231.3719      17.6144        14.9838        16.032136    
      4200   277.9988      -42361.422      11989.035      4222.1532      17.6144        14.9838        15.997207    
      4300   303.09457     -42372.49      -3719.9606      4212.9346      17.6144        14.9838        15.962279    
      4400   277.46708     -42351.564     -10997.058      4203.7159      17.6144        14.9838        15.92735     
      4500   320.84412     -42377.497     -732.31162      4194.4972      17.6144        14.9838        15.892422    
      4600   330.93087     -42389.936     -7690.5459      4185.2785      17.6144        14.9838        15.857494    
      4700   293.26513     -42376.907     -1508.3078      4176.0599      17.6144        14.9838        15.822565    
      4800   288.58768     -42366.807     -5294.4823      4166.8412      17.6144        14.9838        15.787637    
      4900   300.92145     -42388.364     -5353.3159      4157.6225      17.6144        14.9838        15.752708    
      5000   291.72643     -42376.857     -6542.1759      4148.4038      17.6144        14.9838        15.71778     
Loop time of 220.732 on 8 procs for 5000 steps with 365 atoms

Performance: 0.979 ns/day, 24.526 hours/ns, 22.652 timesteps/s, 8.268 katom-step/s
98.7% CPU use with 8 MPI tasks x 1 OpenMP threads

MPI task timing breakdown:
Section |  min time  |  avg time  |  max time  |%varavg| %total
---------------------------------------------------------------
Pair    | 123.8      | 170.54     | 183.01     | 138.2 | 77.26
Bond    | 0.0016075  | 0.0020471  | 0.0023201  |   0.5 |  0.00
Neigh   | 9.8574     | 13.263     | 14.297     |  36.7 |  6.01
Comm    | 2.8972     | 15.409     | 62.115     | 459.7 |  6.98
Output  | 0.017138   | 0.019342   | 0.021316   |   0.9 |  0.01
Modify  | 20.344     | 21.4       | 24.853     |  29.3 |  9.69
Other   |            | 0.09535    |            |       |  0.04

Nlocal:         45.625 ave          55 max          33 min
Histogram: 1 0 0 2 0 1 1 0 2 1
Nghost:        3084.88 ave        3121 max        3053 min
Histogram: 1 0 2 0 2 0 1 1 0 1
Neighs:          27888 ave       33369 max       20427 min
Histogram: 1 0 0 2 0 1 1 0 2 1

Total # of neighbors = 223104
Ave neighs/atom = 611.24384
Ave special neighs/atom = 0
Neighbor list builds = 500
Dangerous builds not checked
OMP_NUM_THREADS environment is not set. Defaulting to 1 thread. (src/comm.cpp:98)
  using 1 OpenMP thread(s) per MPI task
Reading restart file ...
  restart file = 2 Aug 2023, LAMMPS = 2 Aug 2023
  restoring atom style full from restart
  triclinic box = (0 0 0) to (17.6144 14.9838 17.4642) with tilt (-6.9346 2.088 0.8795)
  2 by 2 by 2 MPI processor grid
  pair style reaxff stores no restart info
  365 atoms
Finding 1-2 1-3 1-4 neighbors ...
  special bond factors lj:    0        0        0       
  special bond factors coul:  0        0        0       
     0 = max # of 1-2 neighbors
     0 = max # of 1-3 neighbors
     0 = max # of 1-4 neighbors
     1 = max # of special neighbors
  special bonds CPU = 0.000 seconds
  read_restart CPU = 0.003 seconds
*****Positive-deform 3 starts.*****
Resetting global fix info from restart file:
  fix style: nvt, fix ID: fnvt
All restart file global fix info was re-assigned
Neighbor list info ...
  update: every = 10 steps, delay = 0 steps, check = no
  max neighbors/atom: 2000, page size: 100000
  master list distance cutoff = 12
  ghost atom cutoff = 12
  binsize = 6, bins = 5 3 3
  2 neighbor lists, perpetual/occasional/extra = 2 0 0
  (1) pair reaxff, perpetual
      attributes: half, newton off, ghost
      pair build: half/bin/newtoff/ghost
      stencil: full/ghost/bin/3d
      bin: standard
  (2) fix qeq/reaxff, perpetual, copy from (1)
      attributes: half, newton off
      pair build: copy
      stencil: none
      bin: none
Setting up Verlet run ...
  Unit style    : real
  Current step  : 0
  Time step     : 0.5
Per MPI rank memory allocation (min/avg/max) = 111.5 | 112.1 | 112.7 Mbytes
   Step          Temp          PotEng         Press          Volume           Lx             Ly             Lz      
         0   304.76193     -42295.676     -1409.6833      4609.3376      17.6144        14.9838        17.4642      
       100   300.85963     -42262.024      1596.045       4618.5563      17.6144        14.9838        17.499128    
       200   328.52608     -42264.858     -9684.414       4627.775       17.6144        14.9838        17.534057    
       300   300.4029      -42247.889      893.36187      4636.9936      17.6144        14.9838        17.568985    
       400   280.13256     -42266.94      -13928.113      4646.2123      17.6144        14.9838        17.603914    
       500   286.53154     -42279.803     -8215.0647      4655.431       17.6144        14.9838        17.638842    
       600   263.97659     -42232.289     -12504.197      4664.6497      17.6144        14.9838        17.67377     
       700   322.62221     -42261.477     -7251.3258      4673.8683      17.6144        14.9838        17.708699    
       800   291.92125     -42216.223     -8792.2368      4683.087       17.6144        14.9838        17.743627    
       900   304.2589      -42248.429     -9694.9397      4692.3057      17.6144        14.9838        17.778556    
      1000   280.95673     -42252.07      -16214.541      4701.5244      17.6144        14.9838        17.813484    
      1100   305.06682     -42284.717     -8563.8773      4710.743       17.6144        14.9838        17.848412    
      1200   290.75543     -42263.666     -16092.606      4719.9617      17.6144        14.9838        17.883341    
      1300   279.28103     -42230.865      6973.4887      4729.1804      17.6144        14.9838        17.918269    
      1400   316.55483     -42254.034     -5065.3106      4738.3991      17.6144        14.9838        17.953198    
      1500   329.48504     -42272.382     -14235.678      4747.6177      17.6144        14.9838        17.988126    
      1600   304.01444     -42277.976     -721.89546      4756.8364      17.6144        14.9838        18.023054    
      1700   296.56739     -42295.738     -9654.3642      4766.0551      17.6144        14.9838        18.057983    
      1800   289.2089      -42288.338     -8883.812       4775.2738      17.6144        14.9838        18.092911    
      1900   296.88885     -42264.755     -4543.571       4784.4924      17.6144        14.9838        18.12784     
      2000   316.0644      -42247.666     -15723.798      4793.7111      17.6144        14.9838        18.162768    
      2100   321.08936     -42244.724     -12370.557      4802.9298      17.6144        14.9838        18.197696    
      2200   302.67642     -42251.762     -6833.7886      4812.1485      17.6144        14.9838        18.232625    
      2300   290.78071     -42263.948     -16041.849      4821.3671      17.6144        14.9838        18.267553    
      2400   288.6401      -42267.903     -10755.104      4830.5858      17.6144        14.9838        18.302482    
      2500   302.88522     -42262.938     -21770.18       4839.8045      17.6144        14.9838        18.33741     
      2600   311.87111     -42240.612     -7254.1002      4849.0232      17.6144        14.9838        18.372338    
      2700   309.02774     -42231.214     -9156.3118      4858.2418      17.6144        14.9838        18.407267    
      2800   304.48025     -42228.266     -8792.2617      4867.4605      17.6144        14.9838        18.442195    
      2900   297.82194     -42238.752     -17355.504      4876.6792      17.6144        14.9838        18.477124    
      3000   279.3584      -42229.917     -5091.7935      4885.8979      17.6144        14.9838        18.512052    
      3100   315.96796     -42262         -17207.365      4895.1165      17.6144        14.9838        18.54698     
      3200   299.69495     -42221.332     -12188.308      4904.3352      17.6144        14.9838        18.581909    
      3300   311.40121     -42222.181     -757.01933      4913.5539      17.6144        14.9838        18.616837    
      3400   309.16498     -42219.035     -10192.637      4922.7726      17.6144        14.9838        18.651766    
      3500   291.96515     -42223.874     -6419.3154      4931.9912      17.6144        14.9838        18.686694    
      3600   289.60248     -42226.926     -13987.531      4941.2099      17.6144        14.9838        18.721622    
      3700   308.94013     -42250.235     -2801.4046      4950.4286      17.6144        14.9838        18.756551    
      3800   298.54335     -42222.78      -6981.1277      4959.6473      17.6144        14.9838        18.791479    
      3900   314.47352     -42199.888     -9139.2705      4968.8659      17.6144        14.9838        18.826408    
      4000   304.75134     -42185.61      -10053.86       4978.0846      17.6144        14.9838        18.861336    
      4100   287.3883      -42186.588     -8616.8332      4987.3033      17.6144        14.9838        18.896264    
      4200   311.86196     -42218.528     -6127.1181      4996.522       17.6144        14.9838        18.931193    
      4300   318.85482     -42234.457     -10749.046      5005.7406      17.6144        14.9838        18.966121    
      4400   282.23919     -42200.814     -17108.711      5014.9593      17.6144        14.9838        19.00105     
      4500   279.98102     -42199.173     -18503.008      5024.178       17.6144        14.9838        19.035978    
      4600   275.70788     -42211.683     -18743.974      5033.3967      17.6144        14.9838        19.070906    
      4700   295.687       -42238.729     -20600.046      5042.6153      17.6144        14.9838        19.105835    
      4800   302.88609     -42235.581     -15916.461      5051.834       17.6144        14.9838        19.140763    
      4900   332.75842     -42228.234     -20121.74       5061.0527      17.6144        14.9838        19.175692    
      5000   312.50946     -42191.385     -5204.9298      5070.2714      17.6144        14.9838        19.21062     
Loop time of 194.621 on 8 procs for 5000 steps with 365 atoms

Performance: 1.110 ns/day, 21.625 hours/ns, 25.691 timesteps/s, 9.377 katom-step/s
98.5% CPU use with 8 MPI tasks x 1 OpenMP threads

MPI task timing breakdown:
Section |  min time  |  avg time  |  max time  |%varavg| %total
---------------------------------------------------------------
Pair    | 110.25     | 150.43     | 160.63     | 126.4 | 77.29
Bond    | 0.0016465  | 0.0019918  | 0.0021783  |   0.4 |  0.00
Neigh   | 8.1516     | 10.964     | 11.844     |  33.4 |  5.63
Comm    | 2.9106     | 13.157     | 53.289     | 427.0 |  6.76
Output  | 0.018118   | 0.020219   | 0.022251   |   0.9 |  0.01
Modify  | 19.05      | 19.956     | 22.822     |  25.3 | 10.25
Other   |            | 0.0911     |            |       |  0.05

Nlocal:         45.625 ave          53 max          37 min
Histogram: 1 0 0 2 1 0 1 2 0 1
Nghost:        2657.62 ave        2679 max        2625 min
Histogram: 2 0 0 0 0 0 0 4 1 1
Neighs:        22676.9 ave       26336 max       18397 min
Histogram: 1 0 0 0 3 1 0 2 0 1

Total # of neighbors = 181415
Ave neighs/atom = 497.0274
Ave special neighs/atom = 0
Neighbor list builds = 500
Dangerous builds not checked
OMP_NUM_THREADS environment is not set. Defaulting to 1 thread. (src/comm.cpp:98)
  using 1 OpenMP thread(s) per MPI task
Reading restart file ...
  restart file = 2 Aug 2023, LAMMPS = 2 Aug 2023
  restoring atom style full from restart
  triclinic box = (0 0 0) to (17.6144 14.9838 17.4642) with tilt (-6.9346 2.088 0.8795)
  2 by 2 by 2 MPI processor grid
  pair style reaxff stores no restart info
  365 atoms
Finding 1-2 1-3 1-4 neighbors ...
  special bond factors lj:    0        0        0       
  special bond factors coul:  0        0        0       
     0 = max # of 1-2 neighbors
     0 = max # of 1-3 neighbors
     0 = max # of 1-4 neighbors
     1 = max # of special neighbors
  special bonds CPU = 0.000 seconds
  read_restart CPU = 0.003 seconds
*****debug*****
xy = -6.9345999999999996533, deltaxy = 0.69346
xz = 2.0880000000000000782, deltaxz = -0.2088
yz = 0.87949999999999994849, deltayz = -0.08795
*****
*****Negative-deform 4 starts.*****
Resetting global fix info from restart file:
  fix style: nvt, fix ID: fnvt
All restart file global fix info was re-assigned
Neighbor list info ...
  update: every = 10 steps, delay = 0 steps, check = no
  max neighbors/atom: 2000, page size: 100000
  master list distance cutoff = 12
  ghost atom cutoff = 12
  binsize = 6, bins = 5 3 3
  2 neighbor lists, perpetual/occasional/extra = 2 0 0
  (1) pair reaxff, perpetual
      attributes: half, newton off, ghost
      pair build: half/bin/newtoff/ghost
      stencil: full/ghost/bin/3d
      bin: standard
  (2) fix qeq/reaxff, perpetual, copy from (1)
      attributes: half, newton off
      pair build: copy
      stencil: none
      bin: none
Setting up Verlet run ...
  Unit style    : real
  Current step  : 0
  Time step     : 0.5
Per MPI rank memory allocation (min/avg/max) = 111.5 | 112.1 | 112.7 Mbytes
   Step          Temp          PotEng         Press          Volume           Lx             Ly             Lz      
         0   304.76193     -42295.676     -1409.6833      4609.3376      17.6144        14.9838        17.4642      
       100   300.93874     -42261.794      1666.8262      4609.3376      17.6144        14.9838        17.4642      
       200   328.03015     -42264.99      -8621.5557      4609.3376      17.6144        14.9838        17.4642      
       300   301.61723     -42257.165      2591.7734      4609.3376      17.6144        14.9838        17.4642      
       400   281.87332     -42271.714     -19230.829      4609.3376      17.6144        14.9838        17.4642      
       500   284.9736      -42283.385     -11131.204      4609.3376      17.6144        14.9838        17.4642      
       600   280.81161     -42249.784     -13904.109      4609.3376      17.6144        14.9838        17.4642      
       700   310.32698     -42242.575     -19649.495      4609.3376      17.6144        14.9838        17.4642      
       800   323.93043     -42248.654     -5004.283       4609.3376      17.6144        14.9838        17.4642      
       900   293.5901      -42247.718     -8859.0259      4609.3376      17.6144        14.9838        17.4642      
      1000   275.00142     -42261.078     -5326.1247      4609.3376      17.6144        14.9838        17.4642      
      1100   298.00908     -42285.138     -6719.8321      4609.3376      17.6144        14.9838        17.4642      
      1200   286.06674     -42251.444     -13673.045      4609.3376      17.6144        14.9838        17.4642      
      1300   309.57123     -42255.103     -9613.811       4609.3376      17.6144        14.9838        17.4642      
      1400   308.33322     -42253.765     -3491.9055      4609.3376      17.6144        14.9838        17.4642      
      1500   281.70004     -42243.709     -9458.3544      4609.3376      17.6144        14.9838        17.4642      
      1600   295.49868     -42274.22      -1962.3819      4609.3376      17.6144        14.9838        17.4642      
      1700   297.55191     -42275.708     -3180.0363      4609.3376      17.6144        14.9838        17.4642      
      1800   310.1965      -42282.476     -12639.321      4609.3376      17.6144        14.9838        17.4642      
      1900   292.46329     -42263.089      1355.9482      4609.3376      17.6144        14.9838        17.4642      
      2000   313.11952     -42271.769     -8640.7298      4609.3376      17.6144        14.9838        17.4642      
      2100   321.0901      -42282.402     -16947.9        4609.3376      17.6144        14.9838        17.4642      
      2200   296.33329     -42268.608     -496.2273       4609.3376      17.6144        14.9838        17.4642      
      2300   297.32791     -42272.713     -6547.7437      4609.3376      17.6144        14.9838        17.4642      
      2400   297.71943     -42273.471     -9830.3655      4609.3376      17.6144        14.9838        17.4642      
      2500   298.40797     -42276.505     -3355.9629      4609.3376      17.6144        14.9838        17.4642      
      2600   296.13569     -42275.977      188.08699      4609.3376      17.6144        14.9838        17.4642      
      2700   298.30119     -42278.738     -3449.4535      4609.3376      17.6144        14.9838        17.4642      
      2800   285.56008     -42263.339     -7929.954       4609.3376      17.6144        14.9838        17.4642      
      2900   311.70659     -42282.864     -11393.63       4609.3376      17.6144        14.9838        17.4642      
      3000   285.97746     -42258.547      3173.5164      4609.3376      17.6144        14.9838        17.4642      
      3100   299.55267     -42276.976     -12390.64       4609.3376      17.6144        14.9838        17.4642      
      3200   296.14344     -42279.294     -7047.5893      4609.3376      17.6144        14.9838        17.4642      
      3300   291.00132     -42285.277     -5445.2959      4609.3376      17.6144        14.9838        17.4642      
      3400   287.42422     -42275.667     -2111.2808      4609.3376      17.6144        14.9838        17.4642      
      3500   309.55233     -42270.179      29.389576      4609.3376      17.6144        14.9838        17.4642      
      3600   326.76282     -42274.562     -8784.6798      4609.3376      17.6144        14.9838        17.4642      
      3700   300.05897     -42270.044     -195.02675      4609.3376      17.6144        14.9838        17.4642      
      3800   320.06448     -42307.747     -12112.456      4609.3376      17.6144        14.9838        17.4642      
      3900   299.22436     -42292.51      -6266.1083      4609.3376      17.6144        14.9838        17.4642      
      4000   282.53864     -42275.05       8160.0847      4609.3376      17.6144        14.9838        17.4642      
      4100   313.40262     -42297.698     -15258.037      4609.3376      17.6144        14.9838        17.4642      
      4200   323.78526     -42292.908     -8030.6321      4609.3376      17.6144        14.9838        17.4642      
      4300   305.44321     -42282.051     -13400.552      4609.3376      17.6144        14.9838        17.4642      
      4400   292.16378     -42282.687     -10024.612      4609.3376      17.6144        14.9838        17.4642      
      4500   303.94958     -42283.1       -8742.719       4609.3376      17.6144        14.9838        17.4642      
      4600   312.64496     -42261.419     -10251.542      4609.3376      17.6144        14.9838        17.4642      
      4700   317.59294     -42236.087     -4040.2348      4609.3376      17.6144        14.9838        17.4642      
      4800   313.9933      -42262.178     -4582.0526      4609.3376      17.6144        14.9838        17.4642      
      4900   296.51234     -42266.265     -5611.8503      4609.3376      17.6144        14.9838        17.4642      
      5000   276.42518     -42254.839     -5651.8686      4609.3376      17.6144        14.9838        17.4642      
Loop time of 207.194 on 8 procs for 5000 steps with 365 atoms

Performance: 1.043 ns/day, 23.022 hours/ns, 24.132 timesteps/s, 8.808 katom-step/s
98.7% CPU use with 8 MPI tasks x 1 OpenMP threads

MPI task timing breakdown:
Section |  min time  |  avg time  |  max time  |%varavg| %total
---------------------------------------------------------------
Pair    | 116.81     | 154.2      | 172.37     | 145.1 | 74.42
Bond    | 0.0015983  | 0.0019142  | 0.0021028  |   0.4 |  0.00
Neigh   | 9.2873     | 12.035     | 13.286     |  41.3 |  5.81
Comm    | 1.8087     | 20.026     | 57.371     | 402.4 |  9.67
Output  | 0.017835   | 0.020145   | 0.02212    |   0.9 |  0.01
Modify  | 19.545     | 20.821     | 23.616     |  31.8 | 10.05
Other   |            | 0.09005    |            |       |  0.04

Nlocal:         45.625 ave          57 max          37 min
Histogram: 1 1 1 1 2 0 0 0 0 2
Nghost:        2840.88 ave        2871 max        2817 min
Histogram: 2 2 0 0 0 1 0 1 0 2
Neighs:        25034.2 ave       31010 max       20391 min
Histogram: 1 1 2 0 2 0 0 0 1 1

Total # of neighbors = 200274
Ave neighs/atom = 548.69589
Ave special neighs/atom = 0
Neighbor list builds = 500
Dangerous builds not checked
OMP_NUM_THREADS environment is not set. Defaulting to 1 thread. (src/comm.cpp:98)
  using 1 OpenMP thread(s) per MPI task
Reading restart file ...
  restart file = 2 Aug 2023, LAMMPS = 2 Aug 2023
  restoring atom style full from restart
  triclinic box = (0 0 0) to (17.6144 14.9838 17.4642) with tilt (-6.9346 2.088 0.8795)
  2 by 2 by 2 MPI processor grid
  pair style reaxff stores no restart info
  365 atoms
Finding 1-2 1-3 1-4 neighbors ...
  special bond factors lj:    0        0        0       
  special bond factors coul:  0        0        0       
     0 = max # of 1-2 neighbors
     0 = max # of 1-3 neighbors
     0 = max # of 1-4 neighbors
     1 = max # of special neighbors
  special bonds CPU = 0.000 seconds
  read_restart CPU = 0.003 seconds
*****Positive-deform 4 starts.*****
Resetting global fix info from restart file:
  fix style: nvt, fix ID: fnvt
All restart file global fix info was re-assigned
Neighbor list info ...
  update: every = 10 steps, delay = 0 steps, check = no
  max neighbors/atom: 2000, page size: 100000
  master list distance cutoff = 12
  ghost atom cutoff = 12
  binsize = 6, bins = 5 3 3
  2 neighbor lists, perpetual/occasional/extra = 2 0 0
  (1) pair reaxff, perpetual
      attributes: half, newton off, ghost
      pair build: half/bin/newtoff/ghost
      stencil: full/ghost/bin/3d
      bin: standard
  (2) fix qeq/reaxff, perpetual, copy from (1)
      attributes: half, newton off
      pair build: copy
      stencil: none
      bin: none
Setting up Verlet run ...
  Unit style    : real
  Current step  : 0
  Time step     : 0.5
Per MPI rank memory allocation (min/avg/max) = 111.5 | 112.1 | 112.7 Mbytes
   Step          Temp          PotEng         Press          Volume           Lx             Ly             Lz      
         0   304.76193     -42295.676     -1409.6833      4609.3376      17.6144        14.9838        17.4642      
       100   300.94334     -42261.842      1616.4969      4609.3376      17.6144        14.9838        17.4642      
       200   325.59087     -42265.593     -6984.1575      4609.3376      17.6144        14.9838        17.4642      
       300   315.65029     -42266.399     -2139.1288      4609.3376      17.6144        14.9838        17.4642      
       400   298.34693     -42282.077     -9964.2411      4609.3376      17.6144        14.9838        17.4642      
       500   299.65325     -42304.328     -2470.4302      4609.3376      17.6144        14.9838        17.4642      
       600   278.29816     -42267.059     -6063.0091      4609.3376      17.6144        14.9838        17.4642      
       700   310.63093     -42261.98      -13033.323      4609.3376      17.6144        14.9838        17.4642      
       800   332.12056     -42260.419     -18935.113      4609.3376      17.6144        14.9838        17.4642      
       900   313.87503     -42265.472     -15595.661      4609.3376      17.6144        14.9838        17.4642      
      1000   283.63346     -42264.96      -732.77759      4609.3376      17.6144        14.9838        17.4642      
      1100   289.87963     -42276.185      8493.475       4609.3376      17.6144        14.9838        17.4642      
      1200   306.08758     -42283.866     -13223.223      4609.3376      17.6144        14.9838        17.4642      
      1300   309.69995     -42276.038     -10171.707      4609.3376      17.6144        14.9838        17.4642      
      1400   302.69658     -42265.171     -2859.915       4609.3376      17.6144        14.9838        17.4642      
      1500   318.28058     -42279.519     -6966.2785      4609.3376      17.6144        14.9838        17.4642      
      1600   281.33991     -42258.266     -7538.5163      4609.3376      17.6144        14.9838        17.4642      
      1700   295.63035     -42285.647     -8548.384       4609.3376      17.6144        14.9838        17.4642      
      1800   288.95125     -42276.081     -5667.1578      4609.3376      17.6144        14.9838        17.4642      
      1900   304.83754     -42274.057     -5470.085       4609.3376      17.6144        14.9838        17.4642      
      2000   303.02261     -42271.469     -9276.5187      4609.3376      17.6144        14.9838        17.4642      
      2100   311.92494     -42291.332     -12156.328      4609.3376      17.6144        14.9838        17.4642      
      2200   295.69651     -42293.127     -12353.483      4609.3376      17.6144        14.9838        17.4642      
      2300   275.50918     -42276.628     -9067.4346      4609.3376      17.6144        14.9838        17.4642      
      2400   301.64827     -42292.7       -13167.528      4609.3376      17.6144        14.9838        17.4642      
      2500   294.68459     -42262.73      -23961.586      4609.3376      17.6144        14.9838        17.4642      
      2600   337.75367     -42289.429     -9537.4498      4609.3376      17.6144        14.9838        17.4642      
      2700   311.54218     -42275.244     -1512.935       4609.3376      17.6144        14.9838        17.4642      
      2800   293.7171      -42285.605     -1162.7922      4609.3376      17.6144        14.9838        17.4642      
      2900   287.83463     -42294.743      1160.4018      4609.3376      17.6144        14.9838        17.4642      
      3000   307.80135     -42301.542     -14194.992      4609.3376      17.6144        14.9838        17.4642      
      3100   308.53431     -42267.091     -10958.863      4609.3376      17.6144        14.9838        17.4642      
      3200   313.87932     -42267.974     -10588.079      4609.3376      17.6144        14.9838        17.4642      
      3300   302.38845     -42281.072     -12527.891      4609.3376      17.6144        14.9838        17.4642      
      3400   284.12702     -42283.166      1000.5373      4609.3376      17.6144        14.9838        17.4642      
      3500   293.38187     -42288.158     -2643.2447      4609.3376      17.6144        14.9838        17.4642      
      3600   328.5069      -42301.878     -8976.0031      4609.3376      17.6144        14.9838        17.4642      
      3700   305.82477     -42269.292     -5645.4341      4609.3376      17.6144        14.9838        17.4642      
      3800   298.61675     -42289.502     -7935.1913      4609.3376      17.6144        14.9838        17.4642      
      3900   295.78359     -42300.601     -2577.2899      4609.3376      17.6144        14.9838        17.4642      
      4000   303.12632     -42303.22      -10179.829      4609.3376      17.6144        14.9838        17.4642      
[...]
      4600   294.06968     -42262.439     -18871.098      4609.3376      17.6144        14.9838        17.4642      
      4700   309.139       -42242.529     -11409.081      4609.3376      17.6144        14.9838        17.4642      
      4800   334.7078      -42265.243     -714.46488      4609.3376      17.6144        14.9838        17.4642      
      4900   297.03871     -42244.299     -6126.9687      4609.3376      17.6144        14.9838        17.4642      
      5000   305.44074     -42273.759     -12765.362      4609.3376      17.6144        14.9838        17.4642      
Loop time of 209.099 on 8 procs for 5000 steps with 365 atoms

Performance: 1.033 ns/day, 23.233 hours/ns, 23.912 timesteps/s, 8.728 katom-step/s
98.7% CPU use with 8 MPI tasks x 1 OpenMP threads

MPI task timing breakdown:
Section |  min time  |  avg time  |  max time  |%varavg| %total
---------------------------------------------------------------
Pair    | 114.79     | 152        | 173.49     | 176.2 | 72.69
Bond    | 0.0016137  | 0.0019662  | 0.0021906  |   0.5 |  0.00
Neigh   | 9.5963     | 12.19      | 13.723     |  45.8 |  5.83
Comm    | 1.9015     | 23.45      | 60.678     | 448.7 | 11.21
Output  | 0.017915   | 0.020761   | 0.023167   |   1.0 |  0.01
Modify  | 19.78      | 21.345     | 23.972     |  34.8 | 10.21
Other   |            | 0.09604    |            |       |  0.05

Nlocal:         45.625 ave          55 max          37 min
Histogram: 2 1 0 1 0 0 1 1 1 1
Nghost:        2911.88 ave        2945 max        2869 min
Histogram: 1 0 1 0 1 1 2 0 0 2
Neighs:        25009.2 ave       29637 max       20728 min
Histogram: 2 1 0 1 0 0 1 0 2 1

Total # of neighbors = 200074
Ave neighs/atom = 548.14795
Ave special neighs/atom = 0
Neighbor list builds = 500
Dangerous builds not checked
OMP_NUM_THREADS environment is not set. Defaulting to 1 thread. (src/comm.cpp:98)
  using 1 OpenMP thread(s) per MPI task
Reading restart file ...
  restart file = 2 Aug 2023, LAMMPS = 2 Aug 2023
  restoring atom style full from restart
  triclinic box = (0 0 0) to (17.6144 14.9838 17.4642) with tilt (-6.9346 2.088 0.8795)
  2 by 2 by 2 MPI processor grid
  pair style reaxff stores no restart info
  365 atoms
Finding 1-2 1-3 1-4 neighbors ...
  special bond factors lj:    0        0        0       
  special bond factors coul:  0        0        0       
     0 = max # of 1-2 neighbors
     0 = max # of 1-3 neighbors
     0 = max # of 1-4 neighbors
     1 = max # of special neighbors
  special bonds CPU = 0.000 seconds
  read_restart CPU = 0.004 seconds
*****debug*****
xy = -6.9345999999999996533, deltaxy = 0.69346
xz = 2.0880000000000000782, deltaxz = -0.2088
yz = 0.87949999999999994849, deltayz = -0.08795
*****
*****Negative-deform 6 starts.*****
Resetting global fix info from restart file:
  fix style: nvt, fix ID: fnvt
All restart file global fix info was re-assigned
Neighbor list info ...
  update: every = 10 steps, delay = 0 steps, check = no
  max neighbors/atom: 2000, page size: 100000
  master list distance cutoff = 12
  ghost atom cutoff = 12
  binsize = 6, bins = 5 3 3
  2 neighbor lists, perpetual/occasional/extra = 2 0 0
  (1) pair reaxff, perpetual
      attributes: half, newton off, ghost
      pair build: half/bin/newtoff/ghost
      stencil: full/ghost/bin/3d
      bin: standard
  (2) fix qeq/reaxff, perpetual, copy from (1)
      attributes: half, newton off
      pair build: copy
      stencil: none
      bin: none
Setting up Verlet run ...
  Unit style    : real
  Current step  : 0
  Time step     : 0.5
Per MPI rank memory allocation (min/avg/max) = 111.5 | 112.1 | 112.7 Mbytes
   Step          Temp          PotEng         Press          Volume           Lx             Ly             Lz      
         0   304.76193     -42295.676     -1409.6833      4609.3376      17.6144        14.9838        17.4642      
       100   300.98711     -42261.837      1562.9666      4609.3376      17.6144        14.9838        17.4642      
       200   322.50759     -42260.704     -7712.8108      4609.3376      17.6144        14.9838        17.4642      
       300   309.30846     -42260.219     -8415.09        4609.3376      17.6144        14.9838        17.4642      
       400   299.23031     -42282.355     -7063.3993      4609.3376      17.6144        14.9838        17.4642      
       500   294.53038     -42291.954      3618.6118      4609.3376      17.6144        14.9838        17.4642      
       600   272.51326     -42251.399     -11389.574      4609.3376      17.6144        14.9838        17.4642      
       700   296.67866     -42248.698     -10202.014      4609.3376      17.6144        14.9838        17.4642      
       800   322.23363     -42256.544     -6256.8826      4609.3376      17.6144        14.9838        17.4642      
       900   292.23078     -42243.045     -9007.8563      4609.3376      17.6144        14.9838        17.4642      
      1000   297.76557     -42273.992     -3757.5917      4609.3376      17.6144        14.9838        17.4642      
      1100   278.08587     -42263.093     -1046.5864      4609.3376      17.6144        14.9838        17.4642      
      1200   307.72132     -42289.546     -7068.1359      4609.3376      17.6144        14.9838        17.4642      
      1300   297.35867     -42273.224     -4156.6594      4609.3376      17.6144        14.9838        17.4642      
      1400   317.97731     -42288.684     -4876.192       4609.3376      17.6144        14.9838        17.4642      
      1500   301.22976     -42271.351     -3322.7019      4609.3376      17.6144        14.9838        17.4642      
      1600   302.29985     -42287.032     -12505.872      4609.3376      17.6144        14.9838        17.4642      
      1700   274.23924     -42278.067     -6492.3468      4609.3376      17.6144        14.9838        17.4642      
      1800   277.01882     -42290.58      -3496.4819      4609.3376      17.6144        14.9838        17.4642      
      1900   282.81686     -42276.593     -7104.614       4609.3376      17.6144        14.9838        17.4642      
      2000   320.55759     -42276.648     -3303.6953      4609.3376      17.6144        14.9838        17.4642      
      2100   323.11947     -42273.562      9096.2458      4609.3376      17.6144        14.9838        17.4642      
      2200   301.35574     -42270.206      5003.6583      4609.3376      17.6144        14.9838        17.4642      
      2300   305.1409      -42289.299     -3649.9196      4609.3376      17.6144        14.9838        17.4642      
      2400   292.70602     -42279.757     -11878.663      4609.3376      17.6144        14.9838        17.4642      
      2500   295.35959     -42273.114     -11652.254      4609.3376      17.6144        14.9838        17.4642      
      2600   312.94428     -42278.111     -9234.9046      4609.3376      17.6144        14.9838        17.4642      
      2700   307.22434     -42260.014      373.13487      4609.3376      17.6144        14.9838        17.4642      
      2800   313.25453     -42266.723     -195.05142      4609.3376      17.6144        14.9838        17.4642      
      2900   299.91081     -42267.29      -14746.677      4609.3376      17.6144        14.9838        17.4642      
      3000   293.33729     -42276.226     -14405.321      4609.3376      17.6144        14.9838        17.4642      
      3100   298.76893     -42282.291     -10270.573      4609.3376      17.6144        14.9838        17.4642      
      3200   306.04122     -42284.132     -11990.663      4609.3376      17.6144        14.9838        17.4642      
      3300   303.09736     -42285.254     -8988.2574      4609.3376      17.6144        14.9838        17.4642      
      3400   312.54118     -42305.26      -19345.707      4609.3376      17.6144        14.9838        17.4642      
      3500   294.87383     -42295.763     -17666.253      4609.3376      17.6144        14.9838        17.4642      
      3600   307.75585     -42299.206     -9263.6659      4609.3376      17.6144        14.9838        17.4642      
      3700   309.76566     -42288.355      1453.0631      4609.3376      17.6144        14.9838        17.4642      
      3800   278.50071     -42250.777     -6226.359       4609.3376      17.6144        14.9838        17.4642      
      3900   301.02918     -42274.459     -8038.5424      4609.3376      17.6144        14.9838        17.4642      
      4000   278.33423     -42266.635     -2626.8866      4609.3376      17.6144        14.9838        17.4642      
      4100   283.78618     -42286.852     -15605.404      4609.3376      17.6144        14.9838        17.4642      
      4200   276.2684      -42286.616     -5432.3303      4609.3376      17.6144        14.9838        17.4642      
      4300   287.05396     -42264.59      -23561.263      4609.3376      17.6144        14.9838        17.4642      
      4400   298.57273     -42249.399     -11218.004      4609.3376      17.6144        14.9838        17.4642      
      4500   318.84024     -42282.031     -4103.4721      4609.3376      17.6144        14.9838        17.4642      
      4600   304.28596     -42289.614     -5921.0257      4609.3376      17.6144        14.9838        17.4642      
      4700   320.68903     -42305.206     -5805.9816      4609.3376      17.6144        14.9838        17.4642      
      4800   305.14516     -42288.271     -14081.681      4609.3376      17.6144        14.9838        17.4642      
      4900   298.22163     -42272.299     -14830.058      4609.3376      17.6144        14.9838        17.4642      
      5000   290.76483     -42242.159     -11663.322      4609.3376      17.6144        14.9838        17.4642      
Loop time of 209.779 on 8 procs for 5000 steps with 365 atoms

Performance: 1.030 ns/day, 23.309 hours/ns, 23.835 timesteps/s, 8.700 katom-step/s
98.7% CPU use with 8 MPI tasks x 1 OpenMP threads

MPI task timing breakdown:
Section |  min time  |  avg time  |  max time  |%varavg| %total
---------------------------------------------------------------
Pair    | 116.94     | 154.2      | 174.69     | 146.2 | 73.51
Bond    | 0.0015896  | 0.0019576  | 0.0020842  |   0.3 |  0.00
Neigh   | 9.9631     | 12.468     | 13.973     |  35.1 |  5.94
Comm    | 1.6975     | 22.222     | 59.505     | 385.4 | 10.59
Output  | 0.017245   | 0.019773   | 0.0223     |   1.2 |  0.01
Modify  | 19.242     | 20.769     | 23.265     |  27.2 |  9.90
Other   |            | 0.09452    |            |       |  0.05

Nlocal:         45.625 ave          55 max          39 min
Histogram: 1 1 1 2 1 0 1 0 0 1
Nghost:        2991.12 ave        3063 max        2920 min
Histogram: 1 0 2 0 1 1 1 1 0 1
Neighs:        24990.9 ave       29626 max       21380 min
Histogram: 1 0 2 1 2 0 0 1 0 1

Total # of neighbors = 199927
Ave neighs/atom = 547.74521
Ave special neighs/atom = 0
Neighbor list builds = 500
Dangerous builds not checked
OMP_NUM_THREADS environment is not set. Defaulting to 1 thread. (src/comm.cpp:98)
  using 1 OpenMP thread(s) per MPI task
Reading restart file ...
  restart file = 2 Aug 2023, LAMMPS = 2 Aug 2023
  restoring atom style full from restart
  triclinic box = (0 0 0) to (17.6144 14.9838 17.4642) with tilt (-6.9346 2.088 0.8795)
  2 by 2 by 2 MPI processor grid
  pair style reaxff stores no restart info
  365 atoms
Finding 1-2 1-3 1-4 neighbors ...
  special bond factors lj:    0        0        0       
  special bond factors coul:  0        0        0       
     0 = max # of 1-2 neighbors
     0 = max # of 1-3 neighbors
     0 = max # of 1-4 neighbors
     1 = max # of special neighbors
  special bonds CPU = 0.000 seconds
  read_restart CPU = 0.003 seconds
*****Positive-deform 6 starts.*****
Resetting global fix info from restart file:
  fix style: nvt, fix ID: fnvt
All restart file global fix info was re-assigned
Neighbor list info ...
  update: every = 10 steps, delay = 0 steps, check = no
  max neighbors/atom: 2000, page size: 100000
  master list distance cutoff = 12
  ghost atom cutoff = 12
  binsize = 6, bins = 5 3 3
  2 neighbor lists, perpetual/occasional/extra = 2 0 0
  (1) pair reaxff, perpetual
      attributes: half, newton off, ghost
      pair build: half/bin/newtoff/ghost
      stencil: full/ghost/bin/3d
      bin: standard
  (2) fix qeq/reaxff, perpetual, copy from (1)
      attributes: half, newton off
      pair build: copy
      stencil: none
      bin: none
Setting up Verlet run ...
  Unit style    : real
  Current step  : 0
  Time step     : 0.5
Per MPI rank memory allocation (min/avg/max) = 111.5 | 112.1 | 112.7 Mbytes
   Step          Temp          PotEng         Press          Volume           Lx             Ly             Lz      
         0   304.76193     -42295.676     -1409.6833      4609.3376      17.6144        14.9838        17.4642      
       100   300.9175      -42261.765      1731.1         4609.3376      17.6144        14.9838        17.4642      
       200   324.48334     -42264.587     -9387.6551      4609.3376      17.6144        14.9838        17.4642      
       300   303.11175     -42255.32      -5236.6918      4609.3376      17.6144        14.9838        17.4642      
       400   297.25264     -42282.523     -13170.845      4609.3376      17.6144        14.9838        17.4642      
       500   299.19478     -42296.277     -9930.2279      4609.3376      17.6144        14.9838        17.4642      
       600   285.31603     -42257.515     -714.83096      4609.3376      17.6144        14.9838        17.4642      
       700   311.25794     -42249.617     -12074.52       4609.3376      17.6144        14.9838        17.4642      
       800   320.98247     -42248.798     -7246.7304      4609.3376      17.6144        14.9838        17.4642      
       900   291.48987     -42244.061     -864.43028      4609.3376      17.6144        14.9838        17.4642      
      1000   298.52093     -42282.722     -7914.6621      4609.3376      17.6144        14.9838        17.4642      
      1100   310.63558     -42303.428     -10149.14       4609.3376      17.6144        14.9838        17.4642      
      1200   299.64518     -42294.714      2791.5761      4609.3376      17.6144        14.9838        17.4642      
      1300   300.75893     -42286.554     -4746.6481      4609.3376      17.6144        14.9838        17.4642      
      1400   299.00385     -42257.371      2276.0135      4609.3376      17.6144        14.9838        17.4642      
      1500   305.93248     -42245.859     -1972.344       4609.3376      17.6144        14.9838        17.4642      
      1600   306.85813     -42252.354     -3048.68        4609.3376      17.6144        14.9838        17.4642      
      1700   300.38245     -42273.583      803.89997      4609.3376      17.6144        14.9838        17.4642      
      1800   286.57249     -42284.199     -3403.1697      4609.3376      17.6144        14.9838        17.4642      
      1900   282.95218     -42279.083     -20328.996      4609.3376      17.6144        14.9838        17.4642      
      2000   302.42474     -42282.232     -13198.539      4609.3376      17.6144        14.9838        17.4642      
      2100   321.64173     -42287.837      3058.8208      4609.3376      17.6144        14.9838        17.4642      
      2200   298.44573     -42263.227     -7076.316       4609.3376      17.6144        14.9838        17.4642      
      2300   307.32545     -42282.961     -4427.5993      4609.3376      17.6144        14.9838        17.4642      
      2400   298.70403     -42276.335     -19606.291      4609.3376      17.6144        14.9838        17.4642      
      2500   295.01376     -42269.933     -7529.9371      4609.3376      17.6144        14.9838        17.4642      
      2600   304.83358     -42274.045     -5248.7264      4609.3376      17.6144        14.9838        17.4642      
      2700   294.14546     -42268.187     -6321.1119      4609.3376      17.6144        14.9838        17.4642      
      2800   291.30262     -42268.499     -11859.621      4609.3376      17.6144        14.9838        17.4642      
      2900   293.48643     -42274.874     -9723.475       4609.3376      17.6144        14.9838        17.4642      
      3000   297.47045     -42275.973     -4002.5452      4609.3376      17.6144        14.9838        17.4642      
      3100   288.91332     -42247.87      -17510.3        4609.3376      17.6144        14.9838        17.4642      
      3200   307.1005      -42260.782     -12949.176      4609.3376      17.6144        14.9838        17.4642      
      3300   298.66662     -42269.113     -5033.8604      4609.3376      17.6144        14.9838        17.4642      
      3400   301.79696     -42289.007      5555.3392      4609.3376      17.6144        14.9838        17.4642      
      3500   278.1726      -42279.167     -11841.87       4609.3376      17.6144        14.9838        17.4642      
      3600   278.53545     -42280.256     -9265.6629      4609.3376      17.6144        14.9838        17.4642      
      3700   291.27942     -42267.671     -6149.7438      4609.3376      17.6144        14.9838        17.4642      
      3800   327.205       -42283.055     -5494.9038      4609.3376      17.6144        14.9838        17.4642      
      3900   303.9245      -42267.806     -6021.4271      4609.3376      17.6144        14.9838        17.4642      
      4000   296.46377     -42266.557     -6145.1987      4609.3376      17.6144        14.9838        17.4642      
      4100   307.58677     -42278.482     -6004.2073      4609.3376      17.6144        14.9838        17.4642      
      4200   309.4582      -42280.555      1695.0455      4609.3376      17.6144        14.9838        17.4642      
      4300   283.92203     -42265.526     -12514.35       4609.3376      17.6144        14.9838        17.4642      
      4400   288.26615     -42293.807     -3618.0677      4609.3376      17.6144        14.9838        17.4642      
      4500   284.02823     -42305.344     -7043.0259      4609.3376      17.6144        14.9838        17.4642      
      4600   292.0869      -42296.894     -7342.9409      4609.3376      17.6144        14.9838        17.4642      
      4700   312.09867     -42275.067     -10851.915      4609.3376      17.6144        14.9838        17.4642      
      4800   308.50416     -42265.164     -13668.143      4609.3376      17.6144        14.9838        17.4642      
      4900   280.72436     -42253.435     -2144.6663      4609.3376      17.6144        14.9838        17.4642      
      5000   283.19366     -42267.175     -7326.4395      4609.3376      17.6144        14.9838        17.4642      
Loop time of 204.27 on 8 procs for 5000 steps with 365 atoms

Performance: 1.057 ns/day, 22.697 hours/ns, 24.477 timesteps/s, 8.934 katom-step/s
98.7% CPU use with 8 MPI tasks x 1 OpenMP threads

MPI task timing breakdown:
Section |  min time  |  avg time  |  max time  |%varavg| %total
---------------------------------------------------------------
Pair    | 114.33     | 152.54     | 169.91     | 176.9 | 74.68
Bond    | 0.0015654  | 0.0019713  | 0.0023352  |   0.5 |  0.00
Neigh   | 9.171      | 11.729     | 13.016     |  43.0 |  5.74
Comm    | 1.6471     | 19.04      | 57.27      | 500.8 |  9.32
Output  | 0.017343   | 0.01985    | 0.021899   |   0.9 |  0.01
Modify  | 19.54      | 20.839     | 23.399     |  32.2 | 10.20
Other   |            | 0.09539    |            |       |  0.05

Nlocal:         45.625 ave          52 max          33 min
Histogram: 1 0 0 1 1 0 0 2 0 3
Nghost:        2765.88 ave        2807 max        2728 min
Histogram: 2 0 0 1 2 1 0 0 1 1
Neighs:        25019.5 ave       28479 max       18513 min
Histogram: 1 0 0 1 1 0 0 2 0 3

Total # of neighbors = 200156
Ave neighs/atom = 548.3726
Ave special neighs/atom = 0
Neighbor list builds = 500
Dangerous builds not checked
Total wall time: 0:44:31
