LAMMPS (2 Aug 2023 - Update 2)
  using 6 OpenMP thread(s) per MPI task
Reading data file ...
  triclinic box = (0 0 0) to (14.6913 12.723 15.9631) with tilt (-7.3456 0 0)
WARNING: Triclinic box skew is large. LAMMPS will run inefficiently. (src/domain.cpp:220)
  1 by 1 by 2 MPI processor grid
  reading atoms ...
  243 atoms
Finding 1-2 1-3 1-4 neighbors ...
  special bond factors lj:    0        0        0       
  special bond factors coul:  0        0        0       
     0 = max # of 1-2 neighbors
     0 = max # of 1-3 neighbors
     0 = max # of 1-4 neighbors
     1 = max # of special neighbors
  special bonds CPU = 0.000 seconds
  read_data CPU = 0.008 seconds
##### Minimization starts.
Setting up cg style minimization ...
  Unit style    : real
  Current step  : 0
WARNING: No pairwise cutoff or binsize set. Atom sorting therefore disabled. (src/atom.cpp:2366)
WARNING: Communication cutoff is 0.0. No ghost atoms will be generated. Atoms may get lost. (src/comm_brick.cpp:210)
Per MPI rank memory allocation (min/avg/max) = 8.865 | 8.865 | 8.865 Mbytes
   Step          Temp          E_pair         E_mol          TotEng         Press     
         0   0              0              0              0              0            
         1   0              0              0              0              0            
Loop time of 2.5192e-05 on 12 procs for 1 steps with 243 atoms

35.7% CPU use with 2 MPI tasks x 6 OpenMP threads

Minimization stats:
  Stopping criterion = search direction is not downhill
  Energy initial, next-to-last, final = 
                     0                  0                  0
  Force two-norm initial, final = 0 0
  Force max component initial, final = 0 0
  Final line search alpha, max atom move = 0 0
  Iterations, force evaluations = 1 0

MPI task timing breakdown:
Section |  min time  |  avg time  |  max time  |%varavg| %total
---------------------------------------------------------------
Pair    | 0          | 0          | 0          |   0.0 |  0.00
Bond    | 1.51e-07   | 1.94e-07   | 2.37e-07   |   0.0 |  0.77
Neigh   | 0          | 0          | 0          |   0.0 |  0.00
Comm    | 2.456e-06  | 2.842e-06  | 3.228e-06  |   0.0 | 11.28
Output  | 0          | 0          | 0          |   0.0 |  0.00
Modify  | 0          | 0          | 0          |   0.0 |  0.00
Other   |            | 2.216e-05  |            |       | 87.95

Nlocal:          121.5 ave         126 max         117 min
Histogram: 1 0 0 0 0 0 0 0 0 1
Nghost:              9 ave          12 max           6 min
Histogram: 1 0 0 0 0 0 0 0 0 1
Neighs:              0 ave           0 max           0 min
Histogram: 2 0 0 0 0 0 0 0 0 0

Total # of neighbors = 0
Ave neighs/atom = 0
Ave special neighs/atom = 0
Neighbor list builds = 0
Dangerous builds = 0
System init for write_data ...
WARNING: Communication cutoff is 0.0. No ghost atoms will be generated. Atoms may get lost. (src/comm_brick.cpp:210)
equil: 1
WARNING: Van der Waals parameters for element SI indicate inner wall+shielding, but earlier atoms indicate a different van der Waals method. This may cause division-by-zero errors. Keeping van der Waals setting for earlier atoms. (src/REAXFF/reaxff_ffield.cpp:251)
WARNING: Van der Waals parameters for element AL indicate inner wall+shielding, but earlier atoms indicate a different van der Waals method. This may cause division-by-zero errors. Keeping van der Waals setting for earlier atoms. (src/REAXFF/reaxff_ffield.cpp:251)
WARNING: Changed valency_val to valency_boc for X (src/REAXFF/reaxff_ffield.cpp:296)
md: 1

CITE-CITE-CITE-CITE-CITE-CITE-CITE-CITE-CITE-CITE-CITE-CITE-CITE

Your simulation uses code contributions which should be cited:
- pair reaxff command: doi:10.1016/j.parco.2011.08.005
- fix qeq/reaxff command: doi:10.1016/j.parco.2011.08.005
The log file lists these citations in BibTeX format.

CITE-CITE-CITE-CITE-CITE-CITE-CITE-CITE-CITE-CITE-CITE-CITE-CITE

Neighbor list info ...
  update: every = 10 steps, delay = 0 steps, check = no
  max neighbors/atom: 2000, page size: 100000
  master list distance cutoff = 12
  ghost atom cutoff = 12
  binsize = 6, bins = 4 3 3
  2 neighbor lists, perpetual/occasional/extra = 2 0 0
  (1) pair reaxff, perpetual
      attributes: half, newton off, ghost
      pair build: half/bin/newtoff/ghost
      stencil: full/ghost/bin/3d
      bin: standard
  (2) fix qeq/reaxff, perpetual, copy from (1)
      attributes: half, newton off
      pair build: copy
      stencil: none
      bin: none
Setting up Verlet run ...
  Unit style    : real
  Current step  : 0
  Time step     : 0.5
Per MPI rank memory allocation (min/avg/max) = 160.9 | 160.9 | 161 Mbytes
   Step          Temp          PotEng         Press         Density         Volume    
         0   300           -36881.566      21554.575      2.8878482      2983.7813    
       100   157.203       -36741.931     -25860.503      2.7615749      3120.2149    
       200   219.49323     -36764.691      28589.436      2.8973083      2974.0388    
       300   281.20215     -36752.45      -13201.608      2.7869421      3091.8142    
       400   299.84207     -36719.609     -2728.8682      2.8125186      3063.698     
       500   326.89506     -36707.085      3026.0417      2.8101995      3066.2262    
       600   336.04515     -36701.585     -5078.2572      2.7887066      3089.858     
       700   301.84372     -36702.427      13737.01       2.8403695      3033.6572    
       800   275.24819     -36699.146     -17634.119      2.7629864      3118.6209    
       900   295.30908     -36723.187      13562.644      2.8494993      3023.9373    
      1000   300.58093     -36708.731     -11864.056      2.7933186      3084.7564    
      1100   301.63398     -36701.414      19788.936      2.8722713      2999.9629    
      1200   301.14038     -36688.107     -11127.014      2.7857133      3093.178     
      1300   284.58036     -36685.857      2509.6079      2.8067743      3069.9681    
      1400   296.34349     -36712.91       2077.0253      2.7859805      3092.8814    
      1500   305.50509     -36730.249      2322.9311      2.8205708      3054.9517    
      1600   286.27366     -36712.955     -328.9199       2.8384481      3035.7107    
      1700   308.05215     -36703.472     -1650.9383      2.820118       3055.4421    
      1800   320.51108     -36703.245      8028.3838      2.8138126      3062.289     
      1900   295.79842     -36683.629     -8263.8177      2.7591064      3123.0065    
      2000   303.16985     -36723.885      840.30846      2.8024939      3074.657     
      2100   302.29556     -36730.162     -6863.8655      2.7997834      3077.6336    
      2200   296.75233     -36713.289      5091.8818      2.8513264      3021.9997    
      2300   294.31979     -36695.146     -1750.5516      2.8276993      3047.2502    
      2400   309.90133     -36696.239     -520.74137      2.8230461      3052.273     
      2500   273.81799     -36674.075     -3436.9179      2.7949258      3082.9825    
      2600   294.87623     -36718.311      2173.31        2.7930819      3085.0178    
      2700   280.6561      -36712.832     -4149.5831      2.7710769      3109.5158    
      2800   291.98337     -36708.95      -549.83377      2.7997276      3077.6949    
      2900   327.41659     -36719.999      8254.7277      2.848821       3024.6574    
      3000   323.38842     -36697.362     -5559.6711      2.821888       3053.5257    
      3100   289.24868     -36694.815     -1747.3358      2.8090031      3067.5322    
      3200   283.92014     -36708.883      3435.6052      2.7889633      3089.5736    
      3300   289.11002     -36710.415      647.87709      2.799298       3078.1672    
      3400   315.92958     -36710.308     -2870.1618      2.8001799      3077.1978    
      3500   308.88474     -36697.355      1714.1111      2.8125664      3063.6459    
      3600   300.05234     -36700.625      2168.1413      2.804887       3072.0336    
      3700   297.01778     -36731.583      42.28523       2.8101566      3066.273     
      3800   273.34371     -36716.971     -1873.0473      2.8065446      3070.2193    
      3900   296.19648     -36711.935      196.28868      2.8009084      3076.3974    
      4000   297.26544     -36700.337     -2008.9037      2.7780977      3101.6574    
      4100   338.62997     -36723.047     -5642.9517      2.7873885      3091.3191    
      4200   293.65051     -36708.478     -1235.638       2.8187888      3056.8829    
      4300   286.18493     -36713.141      4521.3971      2.8457905      3027.8783    
      4400   311.50867     -36728.456     -696.55735      2.807314       3069.3778    
      4500   292.57147     -36706.039     -8011.5031      2.7701707      3110.533     
      4600   304.4093      -36704.064      498.43434      2.7973617      3080.2979    
      4700   333.15591     -36707.574      995.57923      2.8069422      3069.7844    
      4800   326.23168     -36687.281      1355.5483      2.8308213      3043.8896    
      4900   309.72609     -36686.592     -12478.366      2.7842806      3094.7698    
      5000   303.85823     -36719.985      7098.4218      2.8136831      3062.43      
      5100   297.1746      -36722.963     -1217.1042      2.7914793      3086.7889    
      5200   316.63091     -36727.188     -1192.0944      2.8082973      3068.3031    
      5300   298.74522     -36699.257     -158.13112      2.8034809      3073.5745    
      5400   320.71032     -36697.328      8511.8427      2.8090696      3067.4596    
      5500   325.01816     -36709.049      158.27412      2.8004062      3076.9491    
      5600   288.14125     -36705.105     -4542.4267      2.8101852      3066.2418    
      5700   302.00932     -36715.562      5686.323       2.8321456      3042.4663    
      5800   301.87972     -36708.32      -604.4227       2.8064981      3070.2701    
      5900   293.71137     -36694.538     -7693.1192      2.7955108      3082.3374    
      6000   306.7333      -36713.186     -4110.2878      2.8029604      3074.1452    
      6100   279.66315     -36712.307      10340.351      2.8453982      3028.2958    
      6200   290.31593     -36723.25      -909.53077      2.8177115      3058.0516    
      6300   301.7085      -36713.236     -4945.6857      2.812784       3063.4088    
      6400   313.41106     -36697.991     -1859.9875      2.7910579      3087.255     
      6500   323.13626     -36709.544      10054.72       2.809292       3067.2168    
      6600   302.4906      -36709.978     -15.598099      2.7995607      3077.8784    
      6700   305.92414     -36719.428     -5779.9788      2.7904405      3087.938     
      6800   290.27806     -36709.927      10090.539      2.8174298      3058.3574    
      6900   311.3392      -36720.185      1913.9164      2.8176743      3058.092     
      7000   306.0794      -36707.873     -2155.7247      2.8237039      3051.5619    
      7100   304.03804     -36703.305     -5993.4175      2.8049262      3071.9908    
      7200   298.52854     -36711.493      4668.4251      2.8030581      3074.0381    
      7300   295.96345     -36716.894     -758.02564      2.7829541      3096.2449    
      7400   275.24162     -36700.429     -7321.8466      2.7882967      3090.3122    
      7500   293.34839     -36709.264      3588.9028      2.824038       3051.201     
      7600   301.75392     -36699.106      5649.1978      2.8274943      3047.4711    
      7700   326.25914     -36706.112      3763.5784      2.8039591      3073.0503    
      7800   302.17305     -36707.068     -6623.221       2.7840752      3094.9981    
      7900   294.77312     -36726.322      1334.8775      2.8031272      3073.9623    
      8000   286.84107     -36715.559     -741.45087      2.8184848      3057.2127    
      8100   297.7416      -36708.384     -6543.7959      2.8171735      3058.6356    
      8200   324.14002     -36717.458     -2611.3682      2.8165648      3059.2967    
      8300   296.06163     -36710.301      3488.3606      2.8116802      3064.6115    
      8400   287.5086      -36729.323      5652.7805      2.8109624      3065.394     
      8500   279.46808     -36709.009     -10894.426      2.7878045      3090.8579    
      8600   303.29692     -36714.673     -2557.865       2.8044985      3072.4593    
      8700   290.3318      -36700.622      2641.1592      2.8260952      3048.9799    
      8800   308.4166      -36710.577     -4835.6442      2.8283453      3046.5542    
      8900   307.32045     -36717.698      6266.5243      2.8306752      3044.0467    
      9000   274.60788     -36723.533     -587.06184      2.7864543      3092.3555    
      9100   277.93951     -36737.389      10468.849      2.813284       3062.8644    
      9200   289.37873     -36714.956     -9491.6302      2.7847423      3094.2567    
      9300   295.26348     -36706.278      1225.7923      2.833155       3041.3822    
      9400   300.44864     -36704.232     -325.51073      2.8098956      3066.5578    
      9500   316.10774     -36713.227      3449.6799      2.7993593      3078.0998    
      9600   293.82117     -36696.66      -3867.0237      2.7873105      3091.4056    
      9700   276.93644     -36710.1       -457.07427      2.8084272      3068.1612    
      9800   287.43834     -36722.746      7094.5866      2.8369812      3037.2804    
      9900   307.04844     -36717.627     -4261.4565      2.8059598      3070.8592    
     10000   323.75001     -36708.161      1744.8592      2.8193843      3056.2372    
     10100   310.43977     -36697.726     -5944.127       2.7852352      3093.7091    
     10200   308.96269     -36708.118      6492.2745      2.8188987      3056.7637    
     10300   310.66046     -36719.65      -5261.931       2.79451        3083.4412    
     10400   285.79883     -36715.971      1252.2889      2.8122011      3064.0438    
     10500   279.85537     -36709.742     -1967.7578      2.8136525      3062.4633    
     10600   311.28828     -36701.684      155.33753      2.8176666      3058.1004    
     10700   322.1256      -36707.452      2053.4503      2.8052774      3071.6062    
     10800   293.57033     -36704.7        2021.3926      2.7915517      3086.7089    
     10900   298.41445     -36723.764      54.81622       2.8103692      3066.0411    
     11000   309.11287     -36729.421      2742.9399      2.8245579      3050.6393    
     11100   296.22582     -36713.377      3676.9752      2.8331931      3041.3413    
     11200   281.15798     -36698.369     -2918.3311      2.8107648      3065.6096    
     11300   299.265       -36707.737     -1774.6033      2.8012605      3076.0107    
     11400   315.22139     -36719.482     -3487.9975      2.7836978      3095.4177    
     11500   285.05908     -36710.409      4411.127       2.8112467      3065.084     
     11600   290.40763     -36713.301     -4412.9866      2.8139807      3062.1061    
     11700   291.00534     -36706.676      5503.0464      2.8277429      3047.2033    
     11800   318.5337      -36708.248     -893.48858      2.8056834      3071.1617    
     11900   327.71437     -36708.556      2735.3252      2.7951919      3082.689     
     12000   304.44775     -36716.058     -3438.7545      2.792099       3086.1038    
     12100   298.96501     -36725.545      722.75292      2.8110218      3065.3292    
     12200   296.08515     -36721.42       4726.5772      2.8319124      3042.7168    
     12300   316.85937     -36721.001     -6242.0581      2.8089977      3067.538     
     12400   298.02717     -36705.587      5763.6259      2.8250772      3050.0786    
     12500   305.76616     -36714.025     -8671.6261      2.7812827      3098.1056    
     12600   285.62883     -36730.825      13013.971      2.8220086      3053.3951    
     12700   287.36013     -36725.348     -9826.2959      2.769144       3111.6863    
     12800   304.78366     -36717.433      5249.1976      2.8157525      3060.1792    
     12900   272.35967     -36683.47      -5527.905       2.8135059      3062.6228    
     13000   318.69084     -36714.493      12273.155      2.8613119      3011.4534    
     13100   306.84423     -36716.584     -5146.0413      2.8095482      3066.937     
     13200   258.14634     -36716.752      3359.3813      2.7922469      3085.9403    
     13300   297.11196     -36739.696      3137.1022      2.7881437      3090.4818    
     13400   296.86502     -36718.737     -3382.0742      2.8042505      3072.731     
     13500   298.33529     -36705.51       4472.5471      2.8342828      3040.172     
     13600   304.09028     -36700.723     -126.37888      2.8022665      3074.9064    
     13700   307.48626     -36711.474      4978.9784      2.8069287      3069.7991    
     13800   272.30167     -36707.691     -7763.6621      2.7928601      3085.2628    
     13900   263.6055      -36706.2        2052.9046      2.8203868      3055.1509    
     14000   303.12457     -36722.309     -5292.639       2.8053129      3071.5673    
     14100   291.14423     -36708.83       4584.9113      2.8261381      3048.9335    
     14200   322.69534     -36718.789      1739.726       2.8170132      3058.8098    
     14300   303.98167     -36693.722     -3744.7384      2.7960596      3081.7323    
     14400   308.82532     -36696.589      2447.4421      2.798515       3079.0284    
     14500   282.43539     -36693.073      550.3576       2.7959728      3081.828     
     14600   306.32416     -36727.903      4361.7321      2.8286979      3046.1745    
     14700   289.64267     -36722.065     -1475.1122      2.8248535      3050.3201    
     14800   303.22837     -36723.52       5574.1583      2.8301902      3044.5683    
     14900   310.9474      -36697.387     -3251.5387      2.7918698      3086.3572    
     15000   307.80634     -36694.979      5827.3775      2.800903       3076.4034    
     15100   307.98272     -36707.861     -4331.2731      2.795562       3082.2809    
     15200   288.1904      -36710.979      2174.8702      2.8233337      3051.962     
     15300   310.80565     -36722.044      8457.6524      2.8381987      3035.9775    
     15400   285.18641     -36707.987     -4709.367       2.8189299      3056.7299    
     15500   274.1315      -36713.557      4543.1805      2.8121194      3064.1328    
     15600   301.55967     -36730.259     -3689.4267      2.7725491      3107.8646    
     15700   297.23147     -36706.159      1994.4399      2.7964214      3081.3337    
     15800   296.50612     -36693.671     -3353.4664      2.8068038      3069.9357    
     15900   306.31794     -36698.427      4210.0585      2.8346284      3039.8013    
     16000   282.2412      -36707.393     -3550.61        2.8114774      3064.8325    
     16100   306.47246     -36739.81       1814.6243      2.8067779      3069.9641    
     16200   282.84175     -36717.52      -3997.5399      2.7952039      3082.6758    
     16300   308.73828     -36723.682      1488.2401      2.8197025      3055.8923    
     16400   302.46887     -36707.441     -3470.837       2.8090193      3067.5144    
     16500   309.13879     -36708.234     -472.08454      2.8087737      3067.7827    
     16600   308.01108     -36706.637      2915.6059      2.8107904      3065.5816    
     16700   290.3982      -36707.409     -208.59203      2.8028835      3074.2296    
     16800   291.59338     -36732.418      482.21916      2.8156794      3060.2587    
     16900   294.06513     -36719.004     -7573.9244      2.7948092      3083.1111    
     17000   297.21703     -36703.751      3677.751       2.8260658      3049.0116    
     17100   298.37026     -36697.381      2853.1757      2.8154199      3060.5408    
     17200   322.5353      -36718.552     -2052.6524      2.8036881      3073.3473    
     17300   276.69644     -36703.038     -2475.0362      2.7850599      3093.9037    
     17400   280.14557     -36702.325      357.95236      2.8035735      3073.473     
     17500   318.38186     -36723.701      7504.4155      2.8204933      3055.0356    
     17600   291.62861     -36703.547     -2972.4411      2.8345245      3039.9129    
     17700   309.52602     -36719.024     -6270.2923      2.8213738      3054.0822    
     17800   312.14348     -36724.818      3078.6458      2.8000569      3077.333     
     17900   297.27091     -36702.739      7737.5126      2.7953137      3082.5547    
     18000   305.57055     -36691.319     -3356.3827      2.7901955      3088.2092    
     18100   308.73889     -36695.372      350.99532      2.8145734      3061.4612    
     18200   305.14966     -36721.099      834.7405       2.8074097      3069.2732    
     18300   296.77445     -36727.541     -525.38216      2.804494       3072.4642    
     18400   288.08678     -36709.521     -431.49999      2.8034888      3073.5658    
     18500   305.60667     -36710.119     -661.6757       2.8215785      3053.8606    
     18600   296.15682     -36698.694      4635.1847      2.824891       3050.2796    
     18700   314.36876     -36715.839     -317.14078      2.8076104      3069.0538    
     18800   280.44572     -36719.937      1113.0384      2.7950837      3082.8084    
     18900   291.45943     -36730.267     -2009.0071      2.7982784      3079.2888    
     19000   311.20454     -36724.807      228.4906       2.8257923      3049.3067    
     19100   322.87216     -36714.459     -2728.7779      2.8183945      3057.3106    
     19200   306.79417     -36708.566      936.1046       2.8107837      3065.5889    
     19300   292.02951     -36706.991     -4406.8903      2.7935726      3084.4759    
     19400   297.47516     -36718.309      6354.038       2.8147054      3061.3177    
     19500   303.50889     -36721.067     -3799.5648      2.7945871      3083.3562    
     19600   302.5981      -36709.303     -995.19573      2.8207541      3054.7531    
     19700   325.14443     -36714.637      5041.6242      2.8226653      3052.6848    
     19800   294.19087     -36698.9        3025.196       2.8129286      3063.2514    
     19900   296.85951     -36718.745     -6479.4309      2.7824065      3096.8542    
     20000   291.32199     -36730.767     -1932.2137      2.7884286      3090.166     
     20100   289.56786     -36739.942      609.64688      2.8141         3061.9763    
     20200   271.94919     -36711.427      1402.961       2.8332468      3041.2837    
     20300   315.67709     -36716.778      7056.4773      2.8367723      3037.5041    
     20400   303.42435     -36700.192     -4435.0157      2.7917237      3086.5187    
     20500   308.22162     -36711.848      3519.2735      2.7967589      3080.9618    
     20600   294.68091     -36722.74      -5849.3718      2.7939041      3084.1099    
     20700   274.6547      -36707.328      1617.394       2.8255791      3049.5368    
     20800   322.79485     -36715.559      3412.6707      2.8247121      3050.4727    
     20900   336.22435     -36706.608      940.25876      2.8179008      3057.8463    
     21000   312.10359     -36709.46      -2411.6201      2.7946816      3083.2519    
     21100   287.6923      -36703          1265.1708      2.8009538      3076.3476    
     21200   297.37593     -36705.843     -2282.9681      2.8068799      3069.8525    
     21300   314.97287     -36711.681      1564.6833      2.822725       3052.6202    
     21400   298.58521     -36698.636     -1898.7004      2.8045213      3072.4342    
     21500   294.76693     -36719.164      3774.7796      2.8102552      3066.1654    
     21600   275.57574     -36705.825     -2905.5495      2.7951544      3082.7304    
     21700   314.12867     -36719.295      10261.429      2.8209845      3054.5036    
     21800   325.73906     -36705.776      255.68213      2.8282028      3046.7078    
     21900   321.05544     -36702.481     -1648.7427      2.8067342      3070.0119    
     22000   290.5523      -36718.319     -951.17142      2.8080376      3068.5869    
     22100   274.57758     -36706.457     -8108.0759      2.7850913      3093.8689    
     22200   288.68044     -36700.558      8791.7341      2.8272823      3047.6997    
     22300   305.53484     -36696.123     -9500.4206      2.8086455      3067.9227    
     22400   301.07245     -36705.876      11156.136      2.8407174      3033.2857    
     22500   290.1023      -36716.451     -651.21586      2.8077358      3068.9167    
     22600   303.86585     -36721.624      2822.1544      2.8157962      3060.1318    
     22700   293.61518     -36706.106     -6196.8921      2.802661       3074.4736    
     22800   300.47301     -36712.708     -2759.8562      2.8207403      3054.7681    
     22900   315.05478     -36717.592      7954.397       2.8270935      3047.9032    
     23000   287.06933     -36698.039     -8696.6475      2.8004288      3076.9243    
     23100   278.26032     -36698.897     -2734.9386      2.8032179      3073.8629    
     23200   295.14114     -36717.501      568.85127      2.7838198      3095.2821    
     23300   305.71243     -36717.974      12790.55       2.8188921      3056.7709    
     23400   306.68145     -36688.993     -9495.5167      2.7978329      3079.7791    
     23500   331.54083     -36706.663     -7233.8767      2.8325539      3042.0277    
     23600   294.35667     -36716.612      3783.9522      2.8312049      3043.4771    
     23700   296.82491     -36727.146      1662.1733      2.8038169      3073.2061    
     23800   287.29281     -36710.054     -6168.7385      2.782416       3096.8436    
     23900   280.69677     -36690.702     -812.75504      2.7973245      3080.3389    
     24000   316.53909     -36710.703      12960.525      2.8354107      3038.9627    
     24100   304.64782     -36709.168     -2555.0062      2.8076614      3068.998     
     24200   303.30169     -36718.892     -4950.6859      2.8163984      3059.4774    
     24300   291.98858     -36720.218      582.19495      2.8003667      3076.9925    
     24400   301.69681     -36722.199      5639.8654      2.8176708      3058.0958    
     24500   275.37379     -36690.328     -7024.4977      2.7788181      3100.8534    
     24600   294.03684     -36689.363     -4415.1071      2.8063581      3070.4233    
     24700   305.33933     -36700.257      4868.7704      2.8137107      3062.3999    
     24800   282.65188     -36714.11       13307.71       2.8395772      3034.5037    
     24900   288.89133     -36726.866     -8416.4077      2.7896101      3088.8572    
     25000   308.12835     -36730.837      835.40591      2.8052276      3071.6607    
     25100   282.68439     -36699.101      5252.1122      2.800396       3076.9603    
     25200   301.36186     -36707.289     -2439.7047      2.7997484      3077.6721    
     25300   295.08932     -36702.249     -6748.0466      2.8116944      3064.5959    
     25400   285.77933     -36704.213      569.58461      2.8081643      3068.4484    
     25500   294.63574     -36734.947      11700.16       2.8352024      3039.1859    
     25600   275.74802     -36723.258     -11845.518      2.7806304      3098.8323    
     25700   310.75596     -36728.866      4535.0309      2.8393165      3034.7823    
     25800   298.37918     -36703.688     -10798.62       2.7873334      3091.3802    
     25900   287.15145     -36695.765      14154.867      2.8361019      3038.2221    
     26000   290.17399     -36689.816     -12509.349      2.7665367      3114.6189    
     26100   298.66826     -36714.379      2860.9122      2.82524        3049.9028    
     26200   270.74119     -36712.135     -1316.562       2.8109798      3065.375     
     26300   292.18832     -36725.429      3793.0132      2.8224242      3052.9455    
     26400   311.96294     -36711.543     -2614.2385      2.8207422      3054.766     
     26500   298.93914     -36696.118     -104.04071      2.8111633      3065.1749    
     26600   304.06775     -36705.78       7454.7841      2.8172878      3058.5115    
     26700   300.84512     -36710.116     -4036.851       2.7852664      3093.6744    
     26800   313.72938     -36728.489      3115.6041      2.8138195      3062.2814    
     26900   269.4167      -36714.899     -7003.9185      2.805312       3071.5683    
     27000   309.92676     -36743.925      10138.551      2.8499319      3023.4783    
     27100   286.82588     -36698.871     -4929.6846      2.7983238      3079.2388    
     27200   313.43892     -36709.841      1805.2415      2.8097976      3066.6648    
     27300   273.46745     -36683.883     -3071.2326      2.7778419      3101.9431    
     27400   304.48209     -36710.458      1625.152       2.794776       3083.1478    
     27500   318.9846      -36715.782      3718.5686      2.8066494      3070.1046    
     27600   320.11033     -36717.119      944.87803      2.8245008      3050.701     
     27700   291.14475     -36706.719     -4096.3219      2.8379679      3036.2244    
     27800   292.08195     -36719.56      -5202.2891      2.8142052      3061.8618    
     27900   295.61907     -36723.602      5972.8398      2.8144096      3061.6394    
     28000   286.52431     -36693.723     -1784.3926      2.786695       3092.0884    
     28100   333.0854      -36705.808     -1066.2111      2.8024947      3074.6561    
     28200   325.43689     -36710.761      1865.3216      2.8082334      3068.3729    
     28300   303.16156     -36714.272     -421.65206      2.8187908      3056.8808    
     28400   304.92639     -36718.273     -793.25815      2.8297851      3045.0041    
     28500   279.66237     -36701.129     -3881.4409      2.8074352      3069.2453    
     28600   282.83425     -36704.759     -2379.5032      2.8035331      3073.5173    
     28700   283.75005     -36691.653     -1469.4091      2.7879681      3090.6764    
     28800   312.19455     -36690.064      2174.0636      2.8046464      3072.2973    
     28900   322.38607     -36698.714      2258.7352      2.7989907      3078.5052    
     29000   307.87952     -36718.502      772.06804      2.8205615      3054.9617    
     29100   283.8722      -36713.589      6497.3353      2.8384204      3035.7404    
     29200   320.66911     -36728.513     -986.01407      2.8238694      3051.3831    
     29300   290.57182     -36702.252     -1327.0416      2.7980803      3079.5068    
     29400   315.2991      -36702.632     -7400.3842      2.7829953      3096.1991    
     29500   304.56232     -36672.86      -117.69213      2.7917845      3086.4515    
     29600   333.57847     -36704.884     -2408.2877      2.7991491      3078.331     
     29700   299.3461      -36708.268      297.27653      2.81016        3066.2693    
     29800   295.49969     -36710.269      978.99135      2.8262458      3048.8173    
     29900   295.58071     -36708.269      1280.5448      2.816481       3059.3877    
     30000   299.49666     -36711.565      2577.7799      2.8092291      3067.2854    
     30100   315.66066     -36709.238     -4819.2046      2.7878612      3090.7949    
     30200   295.04048     -36682.729      6150.4454      2.8048468      3072.0777    
     30300   324.90472     -36697.571     -1641.6713      2.7899775      3088.4505    
     30400   296.40254     -36712.118     -1415.1429      2.8016987      3075.5296    
     30500   302.95527     -36727.314      1740.0766      2.8241387      3051.0921    
     30600   300.23606     -36717.465      222.20152      2.8179469      3057.7963    
     30700   300.79324     -36697.407      2168.2166      2.810553       3065.8405    
     30800   304.85088     -36693.259     -3244.5778      2.7775092      3102.3146    
     30900   313.80507     -36715.816      5921.3228      2.7981251      3079.4575    
     31000   280.87676     -36702.398     -4596.6157      2.7930117      3085.0954    
     31100   296.64278     -36710.829      1078.9581      2.8361561      3038.164     
     31200   295.0332      -36705.45       797.72531      2.8254521      3049.6739    
     31300   314.83874     -36713.475     -1341.122       2.8037915      3073.234     
     31400   284.90585     -36700.714     -1018.1255      2.7924118      3085.7581    
     31500   279.83699     -36711.296     -5917.638       2.7905032      3087.8687    
     31600   285.86232     -36716.397      8950.0387      2.8352387      3039.147     
     31700   298.38568     -36695.415     -1832.8484      2.8188203      3056.8488    
     31800   307.39645     -36690.444     -5124.9512      2.8176756      3058.0906    
     31900   303.81419     -36700.641     -2993.1267      2.7998906      3077.5158    
     32000   308.97408     -36720.745      5686.1063      2.8012508      3076.0214    
     32100   303.0504      -36715.272     -753.52322      2.7865863      3092.209     
     32200   302.90692     -36711.45      -3824.7997      2.8009938      3076.3036    
     32300   299.66849     -36707.165      5992.7452      2.8356383      3038.7188    
     32400   310.93664     -36714.158     -3322.8164      2.8302942      3044.4564    
     32500   277.71057     -36698.365      2104.2319      2.8213187      3054.1418    
     32600   293.41616     -36715.017     -1621.0319      2.7931294      3084.9653    
     32700   291.72858     -36703.857      3777.236       2.8042459      3072.736     
     32800   320.60828     -36706.286     -3185.2135      2.8001798      3077.1979    
     32900   322.2304      -36701.568      128.54031      2.8041576      3072.8328    
     33000   309.71392     -36726.892     -4055.014       2.8002714      3077.0972    
     33100   282.42789     -36717.092      2116.8927      2.8190542      3056.5951    
     33200   299.17598     -36714.913     -2195.443       2.8203701      3055.1691    
     33300   296.92436     -36693.989     -428.78981      2.809202       3067.315     
     33400   326.41037     -36718.863      32.360298      2.8088157      3067.7368    
     33500   285.75759     -36706.792     -3578.0876      2.8073535      3069.3347    
     33600   274.62772     -36721.593     -2413.0497      2.8173905      3058.4001    
     33700   274.21885     -36740.583     -31.287938      2.8091983      3067.319     
     33800   280.44444     -36726.757      7623.4307      2.8165926      3059.2665    
     33900   291.72112     -36717.249     -962.69046      2.8169602      3058.8673    
     34000   285.51871     -36695.534     -3981.8847      2.8126687      3063.5344    
     34100   301.78415     -36693.927      777.18483      2.813676       3062.4376    
     34200   307.16456     -36700.625      4909.2787      2.8124576      3063.7643    
     34300   316.56591     -36726.693     -4403.8904      2.8060024      3070.8125    
     34400   276.73831     -36715.17      -2964.8364      2.8175297      3058.249     
     34500   272.99681     -36706.914      4489.0084      2.8133095      3062.8366    
     34600   315.39033     -36724.795      857.57279      2.8031878      3073.8958    
     34700   292.50915     -36701.581     -6073.6189      2.793677       3084.3607    
     34800   300.14143     -36708.914      2266.3309      2.8138107      3062.2911    
     34900   295.15958     -36717.752      3033.1478      2.815457       3060.5004    
     35000   286.01505     -36721.811     -425.24046      2.8131389      3063.0223    
     35100   299.7584      -36731.625     -3817.1589      2.812397       3063.8304    
     35200   296.77782     -36704.046      3680.8545      2.8198379      3055.7456    
     35300   301.96679     -36698.075     -827.47605      2.8087958      3067.7586    
     35400   313.11541     -36704.076     -4523.4355      2.790113       3088.3005    
     35500   299.68917     -36705.925      1297.8754      2.8005987      3076.7376    
     35600   275.54983     -36721.827      2268.9806      2.7979589      3079.6405    
     35700   289.28953     -36731.91       2598.8209      2.8166135      3059.2438    
     35800   304.53446     -36720.309     -4110.1928      2.8092501      3067.2624    
     35900   296.68361     -36702.342      6011.4377      2.8414457      3032.5082    
     36000   325.79099     -36724.528     -1517.626       2.8192675      3056.3639    
     36100   301.38841     -36709.927     -1211.0991      2.7947111      3083.2194    
     36200   288.10807     -36701.114     -4955.7666      2.7560995      3126.4138    
     36300   299.23735     -36703.93       2972.089       2.7824524      3096.8031    
     36400   292.22872     -36694.737     -869.89746      2.8047675      3072.1646    
     36500   279.27173     -36683.621      1720.0434      2.8356932      3038.66      
     36600   325.65783     -36735.819     -1448.2142      2.829197       3045.6371    
     36700   282.11351     -36722.875     -2487.179       2.8096957      3066.776     
     36800   291.53743     -36722.329      3467.6578      2.8094565      3067.0371    
     36900   305.91494     -36712.112     -4827.0991      2.7832126      3095.9573    
     37000   309.30168     -36714.867      3871.916       2.802034       3075.1616    
     37100   308.96271     -36712.725     -4225.3399      2.7952805      3082.5913    
     37200   297.49395     -36713.485      1937.7939      2.8222031      3053.1847    
     37300   273.01986     -36711.972     -8448.0726      2.8021198      3075.0674    
     37400   297.522       -36726.363      1020.9729      2.8135161      3062.6118    
     37500   303.98751     -36706.536     -489.52218      2.811815       3064.4645    
     37600   315.68809     -36702.599     -1505.4342      2.8376581      3036.5559    
     37700   294.21116     -36685.88      -1727.6363      2.8177106      3058.0527    
     37800   301.77794     -36708.556     -4257.1023      2.7818246      3097.502     
     37900   284.62444     -36719.796      6574.4929      2.8014273      3075.8276    
     38000   286.8655      -36715.021     -1561.1812      2.798991       3078.5048    
     38100   310.34097     -36717.054     -2511.0531      2.8206235      3054.8945    
     38200   306.18578     -36696.494      2252.9692      2.8239552      3051.2904    
     38300   305.55836     -36707.78       8400.5278      2.8260674      3049.0098    
     38400   293.47701     -36701.014     -3102.8962      2.7964961      3081.2513    
     38500   293.30884     -36701.688      1239.8755      2.7901856      3088.2202    
     38600   289.97358     -36706.229     -1565.3944      2.7909049      3087.4242    
     38700   315.92407     -36715.745      2630.7691      2.8153086      3060.6617    
     38800   311.25191     -36692.349     -6331.0093      2.8113285      3064.9948    
     38900   349.20523     -36721.01       4385.6524      2.8250575      3050.0998    
     39000   286.83493     -36707.785      1258.8701      2.80219        3074.9904    
     39100   285.32686     -36707.545      1546.4979      2.7931583      3084.9334    
     39200   301.93888     -36712.582     -8284.9572      2.7873234      3091.3913    
     39300   300.48551     -36703.585      9065.3335      2.8315741      3043.0803    
     39400   330.79115     -36704.688      1032.0121      2.8240157      3051.225     
     39500   308.00194     -36696.048     -4884.5321      2.8021709      3075.0114    
     39600   291.50363     -36715.52       2348.24        2.7998834      3077.5237    
     39700   283.66655     -36708.423     -1712.201       2.8028062      3074.3144    
     39800   284.75046     -36699.386      3355.9763      2.8290713      3045.7724    
     39900   284.26768     -36679.311     -5009.3503      2.8051581      3071.7368    
     40000   334.90459     -36711.555      3453.7409      2.8244773      3050.7264    
     40100   279.76313     -36710.311     -2056.9264      2.7979588      3079.6406    
     40200   286.30471     -36717.53       2251.4447      2.8092426      3067.2707    
     40300   286.08464     -36705.004     -3834.636       2.807459       3069.2193    
     40400   291.81504     -36694.306     -2295.0991      2.8104238      3065.9815    
     40500   327.64096     -36714.032     -452.78861      2.8017533      3075.4697    
     40600   286.46404     -36704.877     -2458.0951      2.8020727      3075.1191    
     40700   267.66346     -36708.356      2868.5678      2.8239317      3051.3157    
     40800   289.3186      -36719.758     -7340.3185      2.7970871      3080.6003    
     40900   316.30005     -36715.545      9306.9156      2.8253891      3049.7418    
     41000   281.71136     -36678.292      483.4226       2.8088623      3067.686     
     41100   321.21011     -36710.116      4231.599       2.8198403      3055.7431    
     41200   308.74794     -36709.525     -2336.6919      2.8042139      3072.7711    
     41300   291.20185     -36708.249     -4685.8046      2.7883153      3090.2916    
     41400   299.72062     -36721.053      2434.5222      2.7964333      3081.3206    
     41500   282.00995     -36707.098     -4860.7187      2.804798       3072.1312    
     41600   335.75955     -36711.194      652.28973      2.8364063      3037.896     
     41700   326.06238     -36702.607      1632.6561      2.8288786      3045.9799    
     41800   310.18636     -36720.701      2590.903       2.8138173      3062.2838    
     41900   290.70949     -36712.313     -2365.5653      2.7910037      3087.3149    
     42000   299.63701     -36706.689     -1592.468       2.8068804      3069.8519    
     42100   331.28116     -36715.512      211.18294      2.8144671      3061.5769    
     42200   324.95469     -36719.035     -63.219503      2.8256134      3049.4997    
     42300   303.87806     -36711.182     -3386.7942      2.8142855      3061.7744    
     42400   277.04453     -36698.591      2048.7471      2.814057       3062.023     
     42500   304.33184     -36712.56       1605.75        2.8051232      3071.775     
     42600   305.876       -36698.27      -5253.2378      2.7926452      3085.5002    
     42700   326.32925     -36694.637     -1528.5568      2.8083113      3068.2878    
     42800   314.293       -36694.515     -3689.8117      2.8159315      3059.9848    
     42900   296.98792     -36713.85       1309.295       2.8249906      3050.1721    
     43000   287.64091     -36711.347     -524.00172      2.8027573      3074.368     
     43100   317.51389     -36723.288     -55.31186       2.8005945      3076.7422    
     43200   301.68906     -36700.808     -3543.2969      2.8058058      3071.0277    
     43300   324.71355     -36690.847      2685.3649      2.8124619      3063.7596    
     43400   292.3137      -36683.446      4988.0208      2.8168566      3058.9798    
     43500   307.58018     -36724.661     -3061.2195      2.7976461      3079.9847    
     43600   288.30673     -36718.544     -93.874542      2.8023179      3074.8501    
     43700   271.91712     -36707.856     -912.10144      2.8301252      3044.6382    
     43800   325.40928     -36718.571     -538.42521      2.8249581      3050.2072    
     43900   324.13407     -36709.521      3945.6206      2.8233295      3051.9667    
     44000   289.262       -36694.722     -1019.973       2.7912488      3087.0438    
     44100   285.91201     -36702.095      4297.2073      2.7978086      3079.8059    
     44200   284.20991     -36702.185     -6339.0475      2.7948296      3083.0886    
     44300   309.04771     -36724.674     -1024.3429      2.817388       3058.4028    
     44400   303.80161     -36718.014     -1315.42        2.8256538      3049.4562    
     44500   281.36449     -36697.358      1453.503       2.8229662      3052.3594    
     44600   284.49606     -36690.805     -824.58889      2.8131542      3063.0057    
     44700   309.13671     -36697.687     -823.00794      2.8036178      3073.4244    
     44800   308.57707     -36684.29      -5236.2704      2.7933711      3084.6985    
     44900   292.52983     -36704.79       3360.7332      2.8118915      3064.3811    
     45000   280.52947     -36706.591      2301.0904      2.8174488      3058.3368    
     45100   313.57568     -36723.915     -1141.7428      2.8146858      3061.339     
     45200   302.02118     -36705.059      2873.4441      2.8157148      3060.2202    
     45300   297.14421     -36679.125     -2468.0887      2.8033783      3073.687     
     45400   343.02909     -36700.239      3726.6463      2.8179149      3057.8309    
     45500   304.39103     -36698.564     -1715.2143      2.8139669      3062.1211    
     45600   289.82445     -36704.669      3984.1355      2.8111755      3065.1616    
     45700   294.963       -36714.187      6758.5481      2.8077058      3068.9495    
     45800   312.3385      -36730.914     -8.9532016      2.8060643      3070.7448    
     45900   283.34844     -36693.94      -7076.5508      2.8128632      3063.3225    
     46000   332.61861     -36712.903      4804.2347      2.8289635      3045.8885    
     46100   305.72571     -36693.391      4613.2557      2.8121321      3064.1189    
     46200   277.74544     -36702.939     -4509.4253      2.7898302      3088.6135    
     46300   290.0744      -36717.118     -6048.7283      2.7831128      3096.0683    
     46400   305.60457     -36715.458      2391.1987      2.812093       3064.1616    
     46500   295.21207     -36695.719      3899.133       2.8421676      3031.7379    
     46600   307.09524     -36697.083     -2912.733       2.8423012      3031.5954    
     46700   286.69515     -36718.872     -6280.5456      2.7988951      3078.6103    
     46800   295.25748     -36735.594      3974.202       2.794568       3083.3772    
     46900   293.34929     -36715.746     -2032.553       2.7825153      3096.7332    
     47000   302.87554     -36704.206     -1177.1874      2.814581       3061.453     
     47100   297.15132     -36694.249     -2444.309       2.8213366      3054.1224    
     47200   286.0972      -36699.344      6516.7949      2.8493327      3024.1141    
     47300   297.26499     -36729.309     -1803.3671      2.8163235      3059.5588    
     47400   292.34729     -36739.257     -2073.8135      2.8089583      3067.5811    
     47500   286.43831     -36724.635     -1974.2764      2.7824186      3096.8408    
     47600   290.48011     -36711.697      3209.3804      2.777818       3101.9698    
     47700   293.73003     -36697.399     -2082.9115      2.7922496      3085.9373    
     47800   310.84244     -36706.674     -858.57516      2.8188801      3056.784     
     47900   291.89902     -36704.746      51.22981       2.8274334      3047.5368    
     48000   280.03291     -36726.296      2901.2584      2.8245062      3050.6951    
     48100   262.69304     -36709.927     -2239.9501      2.7979986      3079.5967    
     48200   309.20328     -36723.365     -5524.4685      2.7827226      3096.5025    
     48300   300.5783      -36710.608      4638.6514      2.8185915      3057.0969    
     48400   294.59089     -36696.413     -2567.2664      2.8111431      3065.197     
     48500   303.32389     -36703.638      1255.2482      2.809444       3067.0508    
     48600   300.29068     -36717.531     -2634.5225      2.7873684      3091.3414    
     48700   279.16543     -36731.679      4438.8326      2.8188608      3056.8049    
     48800   267.01934     -36714.484      2456.1239      2.8226779      3052.6711    
     48900   301.33029     -36713.046     -816.95982      2.8158087      3060.1182    
     49000   304.81901     -36707.606      1868.0967      2.8013139      3075.9521    
     49100   300.78666     -36707.457     -599.05925      2.7919538      3086.2643    
     49200   281.39818     -36703.985      2366.3865      2.817186       3058.6221    
     49300   287.08115     -36725.168     -8623.9124      2.7989275      3078.5746    
     49400   271.27921     -36730.381      5001.8382      2.820661       3054.8539    
     49500   286.56248     -36708.597      47.911712      2.8051823      3071.7102    
     49600   304.44713     -36710.945     -2993.0395      2.8262061      3048.8602    
     49700   287.95568     -36698.775     -356.85526      2.8236083      3051.6652    
     49800   298.15244     -36712.194     -3057.7867      2.8023707      3074.7921    
     49900   282.11956     -36711.1        3663.2703      2.7990168      3078.4765    
     50000   283.72031     -36709.659     -8824.4242      2.7767363      3103.1781    
     50100   301.49101     -36701.879      9403.0007      2.8160783      3059.8252    
     50200   321.43976     -36704.231      1026.0006      2.8211491      3054.3253    
     50300   301.15247     -36708.008      843.15878      2.8259672      3049.118     
     50400   288.50985     -36710.337      2593.8671      2.8042669      3072.7129    
     50500   290.4449      -36710.408     -1505.2098      2.7956546      3082.1788    
     50600   314.3108      -36722.911      1943.3488      2.8060535      3070.7566    
     50700   306.52148     -36706.823     -8521.4611      2.7910413      3087.2733    
     50800   339.74642     -36707.717      3517.779       2.8169358      3058.8937    
     50900   325.97374     -36692.247      257.68586      2.8062888      3070.4992    
     51000   300.64712     -36701.841      3136.0235      2.8174772      3058.306     
     51100   297.889       -36711.409     -8750.9925      2.7858859      3092.9865    
     51200   274.80098     -36701.156      2351.9257      2.7978615      3079.7476    
     51300   304.37982     -36714.429     -1453.0115      2.7951271      3082.7605    
     51400   322.7235      -36704.96      -3230.8322      2.8145585      3061.4775    
     51500   314.59957     -36696.639      323.14416      2.8140599      3062.0199    
     51600   290.31913     -36710.841     -497.4388       2.7954238      3082.4333    
     51700   289.45948     -36725.03       2567.5236      2.7955439      3082.3009    
     51800   287.74013     -36713.303     -3350.1623      2.7930401      3085.064     
     51900   296.31657     -36697.983     -882.29161      2.822221       3053.1653    
     52000   316.70202     -36706.871      3272.0146      2.8277423      3047.2039    
     52100   302.58192     -36706.489      1939.8187      2.8156672      3060.272     
     52200   294.84827     -36706.009     -1365.2136      2.7905617      3087.8039    
     52300   292.55322     -36704.497     -1087.8024      2.797429       3080.2238    
     52400   333.6271      -36727.309      212.39907      2.8221142      3053.2809    
     52500   312.68785     -36710.565     -1636.9367      2.8158421      3060.0819    
     52600   298.97053     -36704.068      830.19243      2.7961944      3081.5838    
     52700   301.23884     -36717.864     -3725.4205      2.7818804      3097.4399    
     52800   283.53229     -36716.487      4776.775       2.8120921      3064.1626    
     52900   301.51291     -36712.939     -784.38637      2.8199303      3055.6455    
     53000   330.98889     -36713.361      3023.0426      2.8286413      3046.2354    
     53100   294.89926     -36693.155     -372.68901      2.826211       3048.855     
     53200   305.12243     -36715.101     -4001.922       2.7922972      3085.8848    
     53300   270.58104     -36724.286     -337.2484       2.7956677      3082.1643    
     53400   272.12781     -36719.325     -542.18232      2.8058114      3071.0216    
     53500   311.4386      -36723.653      1899.4347      2.8324797      3042.1074    
     53600   271.00397     -36681.215     -4344.3915      2.8196033      3055.9999    
     53700   328.95353     -36722.261      5488.6447      2.8144985      3061.5427    
     53800   292.84192     -36706.183     -445.95949      2.790039       3088.3825    
     53900   272.17378     -36712.977     -4913.0339      2.7822937      3096.9797    
     54000   279.44733     -36720.948     -4474.5518      2.8034213      3073.6399    
     54100   298.3947      -36706.002      3688.4517      2.8324645      3042.1237    
     54200   329.76327     -36719.077      5194.4949      2.8340986      3040.3696    
     54300   307.90898     -36715.33      -3667.5889      2.8033703      3073.6958    
     54400   281.07142     -36710.091     -3438.1985      2.788346       3090.2576    
     54500   300.42394     -36713.447      943.53457      2.7778447      3101.9399    
     54600   332.23544     -36710.511      2734.6854      2.8020397      3075.1553    
     54700   318.18032     -36698.444     -3037.0285      2.8211245      3054.3521    
     54800   309.42921     -36705.832     -1849.642       2.8298861      3044.8954    
     54900   288.38829     -36704.473     -494.23517      2.8081773      3068.4343    
     55000   277.55291     -36704.266     -3605.2529      2.7955872      3082.2531    
     55100   290.13439     -36708.213      1520.4506      2.790585       3087.7782    
     55200   314.77969     -36715.124     -2073.4458      2.7858579      3093.0176    
     55300   301.98899     -36703.278     -4336.872       2.7881967      3090.4231    
     55400   302.74631     -36703.062     -4041.7772      2.8026886      3074.4433    
     55500   293.25322     -36705.497      2624.5395      2.8245974      3050.5967    
     55600   291.79972     -36717.378      3935.127       2.8191573      3056.4833    
     55700   266.88923     -36704.842     -7600.1014      2.79777        3079.8483    
     55800   313.47797     -36726.794      2839.8555      2.8030399      3074.058     
     55900   322.66536     -36707.27      -5787.0735      2.7888052      3089.7487    
     56000   295.81639     -36688.324      4674.9591      2.8251298      3050.0218    
     56100   302.85844     -36705.499     -129.88369      2.812082       3064.1736    
     56200   282.429       -36719.864      6381.3591      2.8182038      3057.5175    
     56300   293.33722     -36724.919     -5300.9312      2.7937224      3084.3105    
     56400   300.94256     -36717.407     -316.61141      2.8072724      3069.4233    
     56500   314.80742     -36717.274      8468.2016      2.8170256      3058.7963    
     56600   297.44997     -36693.545      4489.2675      2.8082052      3068.4037    
     56700   316.54371     -36707.768     -11163.924      2.7811416      3098.2628    
     56800   292.70884     -36700.868      2389.7136      2.816773       3059.0705    
     56900   283.54125     -36703.646      4949.1145      2.8417158      3032.22      
     57000   302.69629     -36717.248      1883.7147      2.832377       3042.2177    
     57100   286.96064     -36703.285     -4860.322       2.8017259      3075.4998    
     57200   294.54478     -36686.048     -3847.2212      2.7858448      3093.032     
     57300   334.6647      -36706.996      2593.4517      2.7825423      3096.7031    
     57400   309.61678     -36701.825      267.21962      2.8003176      3077.0464    
     57500   278.8745      -36703.473      1336.2579      2.8379134      3036.2827    
     57600   308.82765     -36724.838      2231.6338      2.8462405      3027.3996    
     57700   315.89839     -36724.345      8137.3883      2.8288223      3046.0405    
     57800   293.87119     -36695.493     -2278.6196      2.7813032      3098.0827    
     57900   319.33308     -36686.56      -7486.8327      2.7747894      3105.3555    
     58000   348.49051     -36701.589      1833.7652      2.7996351      3077.7965    
     58100   282.88571     -36693.66       4523.3782      2.8118322      3064.4458    
     58200   298.54228     -36711.506      4234.2398      2.8258193      3049.2776    
     58300   292.31624     -36711.946     -9077.582       2.8119989      3064.2642    
     58400   286.66637     -36711.173      5939.4092      2.815698       3060.2385    
     58500   304.77849     -36705.541      489.92282      2.7989459      3078.5544    
     58600   322.53714     -36700.074     -6298.9812      2.7817406      3097.5956    
     58700   302.18538     -36702.035      3380.8714      2.7935254      3084.528     
     58800   292.12104     -36716.536     -2085.2333      2.7939712      3084.0359    
     58900   306.55788     -36727.769      4044.3804      2.8257863      3049.3132    
     59000   277.33985     -36697.447     -5767.137       2.8186406      3057.0436    
     59100   306.18342     -36708.053      1480.3461      2.8337699      3040.7223    
     59200   319.21065     -36702.569     -1579.8808      2.7996375      3077.7939    
     59300   317.84311     -36686.965      4234.3173      2.8054755      3071.3893    
     59400   333.81912     -36698.449     -4212.7292      2.7922414      3085.9464    
     59500   298.54697     -36704.988     -2982.7403      2.8122426      3063.9986    
     59600   304.41415     -36720.95       8734.1287      2.8285586      3046.3245    
     59700   299.36146     -36713.381     -5484.7228      2.8116511      3064.6432    
     59800   303.31126     -36715.292      2883.8276      2.8226693      3052.6804    
     59900   294.00854     -36690.581      2545.5288      2.7947215      3083.2078    
     60000   325.87523     -36701.241      8597.1742      2.8071618      3069.5442    
     60100   309.63382     -36690.289     -8531.1855      2.7880545      3090.5807    
     60200   302.07883     -36713.548     -2360.3122      2.8155272      3060.4241    
     60300   306.14489     -36731.277      667.43619      2.8219661      3053.4412    
     60400   280.50912     -36713.842      2983.0055      2.8238314      3051.4242    
     60500   295.70235     -36701.986     -3099.8854      2.8032007      3073.8818    
     60600   295.86306     -36691.021     -6235.7313      2.796672       3081.0575    
     60700   307.78561     -36701.076      1334.9656      2.8065886      3070.1712    
     60800   291.96076     -36703.142     -5631.2895      2.8063899      3070.3885    
     60900   286.35376     -36707.808      4421.0586      2.8247804      3050.399     
     61000   290.74114     -36709.088     -7939.1093      2.7840934      3094.9779    
     61100   321.90713     -36711.351      2349.9926      2.8054824      3071.3818    
     61200   300.46751     -36679.39      -3188.206       2.8026518      3074.4837    
     61300   339.61413     -36725.95       4846.7379      2.8189095      3056.7521    
     61400   287.42198     -36710.214      4296.5585      2.8071615      3069.5445    
     61500   307.28174     -36722.455      1137.3549      2.8017272      3075.4984    
     61600   279.68927     -36697.221     -3671.132       2.8091177      3067.407     
     61700   302.20724     -36696.52      -86.162564      2.8154285      3060.5314    
     61800   336.23158     -36703.02       7805.8761      2.818902       3056.7601    
     61900   275.00684     -36679.76      -1496.7623      2.8028687      3074.2459    
     62000   306.0094      -36721.468     -2733.1476      2.7995319      3077.91      
     62100   281.82934     -36715.669      2250.1724      2.8133585      3062.7833    
     62200   308.95209     -36731.531      607.39992      2.821092       3054.3872    
     62300   295.40513     -36692.917     -1722.2903      2.8006027      3076.7332    
     62400   322.56006     -36701.217      1778.1881      2.8041556      3072.835     
     62500   305.48157     -36706.802     -4388.4325      2.7958533      3081.9598    
     62600   297.45119     -36708.831     -1590.2408      2.8061661      3070.6334    
     62700   308.91877     -36726.683      5558.2218      2.8161509      3059.7464    
     62800   287.53633     -36716.18       1898.2064      2.8132979      3062.8492    
     62900   270.82907     -36711.301     -4104.7706      2.8064376      3070.3364    
     63000   289.87558     -36709.321     -4963.7362      2.8140896      3061.9875    
     63100   317.03023     -36709.577      4260.4159      2.8087747      3067.7816    
     63200   309.93907     -36701.397     -3046.9574      2.7959829      3081.8169    
     63300   290.13621     -36701.838     -4008.0532      2.7908818      3087.4497    
     63400   309.92453     -36739.605     -2287.3903      2.8154554      3060.5022    
     63500   275.57896     -36715.073      3233.0836      2.8296981      3045.0977    
     63600   314.59336     -36727.961     -6251.3576      2.8110782      3065.2678    
     63700   288.05055     -36703.434     -3083.7435      2.7978395      3079.7719    
     63800   297.27587     -36702.769      5223.5189      2.8044882      3072.4706    
     63900   302.59357     -36692.891      4358.6093      2.8145997      3061.4326    
     64000   312.56684     -36679.769     -1727.5739      2.8088522      3067.697     
     64100   318.96936     -36695.188      6684.8532      2.8156684      3060.2706    
     64200   286.27461     -36701.456      1312.4988      2.7996179      3077.8155    
     64300   296.00678     -36714.667      1845.807       2.8113714      3064.948     
     64400   295.05921     -36697.452     -6985.1312      2.7892993      3089.2014    
     64500   305.87961     -36704.443      12105.924      2.8235149      3051.7662    
     64600   323.61266     -36708.948     -2350.7281      2.8063077      3070.4785    
     64700   302.63633     -36705.036     -1930.7657      2.8214831      3053.9638    
     64800   311.81974     -36725.876     -2878.3729      2.8092766      3067.2335    
     64900   291.2495      -36720.034      2719.7173      2.8111763      3065.1608    
     65000   300.53964     -36724.246      6316.0401      2.8217987      3053.6223    
     65100   289.05347     -36685.897     -12959.858      2.794995       3082.9062    
     65200   331.91098     -36704.422     -1923.1979      2.8205185      3055.0083    
     65300   310.80149     -36703.772      2704.488       2.8095602      3066.9239    
     65400   289.58363     -36706.079      4352.7506      2.8087314      3067.8289    
     65500   306.1714      -36718.159     -4258.6233      2.7902225      3088.1793    
     65600   273.14876     -36696.296     -4939.3112      2.8073914      3069.2932    
     65700   284.97048     -36698.87       5199.2898      2.8258732      3049.2194    
     65800   328.08327     -36699.964     -1322.5085      2.8176653      3058.1019    
     65900   345.19092     -36702.901      497.02092      2.8116289      3064.6673    
     66000   296.21942     -36694.227     -3567.8464      2.7865737      3092.223     
     66100   310.67758     -36714.385      5576.9234      2.8036464      3073.393     
     66200   304.31733     -36709.08      -2741.2327      2.7898323      3088.6112    
     66300   320.09457     -36721.596      2506.8707      2.8160301      3059.8776    
     66400   289.11572     -36712.965     -1200.7347      2.8207857      3054.7189    
     66500   296.75729     -36734.678     -2637.8638      2.8350702      3039.3277    
     66600   286.09489     -36716.807     -767.27327      2.8221308      3053.2629    
     66700   299.00378     -36700.772     -2177.1911      2.7925842      3085.5676    
     66800   334.02961     -36727.624      1462.0151      2.7935088      3084.5464    
     66900   296.41695     -36719.395      6291.8822      2.8106439      3065.7414    
     67000   276.14979     -36708.315     -4033.3797      2.8121334      3064.1175    
     67100   304.79729     -36717.715      104.40101      2.8129049      3063.2771    
     67200   302.59384     -36689.599     -5670.7874      2.7980826      3079.5043    
     67300   303.28887     -36701.84       8251.9953      2.8187112      3056.9671    
     67400   305.47388     -36716.236     -6279.1505      2.7947657      3083.1592    
     67500   280.14848     -36702.063      2201.345       2.8142609      3061.8011    
     67600   305.40711     -36714.2        2358.1751      2.8214923      3053.9539    
     67700   309.13713     -36713.222     -2361.2416      2.8095311      3066.9556    
     67800   311.47977     -36716.07      -2341.023       2.8060906      3070.716     
     67900   297.48899     -36709.394     -3513.445       2.8022834      3074.888     
     68000   297.69953     -36703.57       7799.2431      2.8175517      3058.2251    
     68100   311.84421     -36703.196     -4061.2562      2.8051161      3071.7828    
     68200   291.05493     -36710.022      2028.8094      2.8133623      3062.7791    
     68300   270.91114     -36716.817     -6782.7783      2.7939478      3084.0617    
     68400   290.96712     -36726.48       8473.058       2.8231042      3052.2101    
     68500   285.07758     -36702.272     -5897.9003      2.7958976      3081.911     
     68600   323.4464      -36724.896      3753.3973      2.8351689      3039.2219    
     68700   292.38979     -36702.787     -6230.9211      2.8032237      3073.8565    
     68800   292.0247      -36712.789      7679.3786      2.8202534      3055.2954    
     68900   287.97262     -36721.08      -4989.2098      2.7910646      3087.2476    
     69000   284.89173     -36723.152     -2423.6073      2.799315       3078.1486    
     69100   293.50149     -36714.864     -841.94964      2.8132057      3062.9496    
     69200   298.80114     -36692.933      28.029559      2.8159912      3059.9198    
     69300   330.74063     -36716.124     -3946.0654      2.8080784      3068.5423    
     69400   297.05368     -36712.335      3225.2518      2.8189648      3056.6921    
     69500   287.9653      -36713.776      1390.0682      2.810384       3066.0249    
     69600   285.23594     -36705.874     -2432.838       2.7978599      3079.7494    
     69700   290.41896     -36704.799     -2521.5426      2.8012288      3076.0455    
     69800   295.87595     -36704.442      1486.9515      2.8146074      3061.4243    
     69900   291.9665      -36703.728      1919.0921      2.8284262      3046.4671    
     70000   295.84093     -36707.904      539.74218      2.8205742      3054.9479    
     70100   282.02317     -36717.986     -4837.5163      2.806778       3069.964     
     70200   282.28631     -36729.386      1718.1515      2.8076732      3068.9852    
     70300   298.56364     -36715.141     -5890.9948      2.7889111      3089.6314    
     70400   288.44813     -36693.107     -1427.1632      2.8126798      3063.5224    
     70500   319.35384     -36715.917      2192.4452      2.8201157      3055.4447    
     70600   297.40825     -36709.354      3846.3277      2.8140507      3062.0299    
     70700   276.46651     -36720.82      -5408.4253      2.802612       3074.5274    
     70800   281.11179     -36720.335     -5282.4498      2.7895437      3088.9307    
     70900   295.89194     -36717.251     -744.04313      2.80421        3072.7753    
     71000   294.29548     -36707.634      276.32492      2.8079996      3068.6284    
     71100   332.66192     -36727.429      1289.8602      2.8163147      3059.5683    
     71200   290.30134     -36694.555     -3062.963       2.8009938      3076.3036    
     71300   290.21998     -36702.343      1309.9863      2.8194121      3056.2072    
     71400   295.84134     -36721.61      -3917.583       2.8129571      3063.2203    
     71500   285.0907      -36721.815     -1456.6417      2.8112651      3065.064     
     71600   298.72691     -36714.013      3357.3539      2.8095023      3066.9872    
     71700   287.05931     -36688.743      3871.5937      2.7964347      3081.3189    
     71800   302.77367     -36701.963     -1506.3136      2.808368       3068.2258    
     71900   304.94391     -36714.756     -2875.8442      2.807          3069.7212    
     72000   300.58984     -36722.997      146.08812      2.824029       3051.2106    
     72100   285.92886     -36734.583      2809.8822      2.8240227      3051.2174    
     72200   288.55351     -36745.325     -4014.1777      2.80427        3072.7096    
     72300   280.93777     -36716.648      683.542        2.8137351      3062.3734    
     72400   293.42399     -36709.603      6495.1826      2.7996212      3077.8118    
     72500   283.5189      -36695.46       3207.475       2.8064303      3070.3443    
     72600   310.78351     -36702.151     -8197.5362      2.7787063      3100.9781    
     72700   325.97896     -36719.091      4093.0897      2.8173115      3058.4859    
     72800   285.21644     -36715.294     -496.51239      2.8113584      3064.9622    
     72900   284.11206     -36714.562      1431.278       2.820157       3055.3999    
     73000   305.7525      -36714.834     -3750.71        2.7969505      3080.7508    
     73100   308.03587     -36717.579      2694.007       2.8208353      3054.6652    
     73200   278.82398     -36695.345      2726.7825      2.8226152      3052.7389    
     73300   300.7048      -36706.016     -3893.7845      2.7913491      3086.9329    
     73400   298.37743     -36701.748      774.88885      2.7921269      3086.073     
     73500   287.68886     -36684.243     -4146.6564      2.7973235      3080.34      
     73600   323.96013     -36716.873      4817.5785      2.8469115      3026.6861    
     73700   296.44804     -36713.902     -4385.0276      2.817266       3058.5353    
     73800   279.3851      -36719.366      5665.6914      2.8099357      3066.5141    
     73900   289.67564     -36709.723     -3698.3209      2.780335       3099.1615    
     74000   312.88853     -36707.415      2988.1372      2.8114396      3064.8737    
     74100   300.77922     -36695.055      675.84623      2.8149962      3061.0014    
     74200   309.24081     -36707.841      1356.0853      2.8225656      3052.7926    
     74300   290.80306     -36706.116     -3876.0182      2.7956991      3082.1297    
     74400   289.96472     -36728.281      1651.0151      2.8172971      3058.5015    
     74500   278.30819     -36723.581      2340.3504      2.8025491      3074.5963    
     74600   311.5281      -36705.935     -1360.7594      2.7976198      3080.0137    
     74700   301.09548     -36695.891     -1094.327       2.7954804      3082.3709    
     74800   296.69691     -36702.42      -2885.6379      2.8115015      3064.8062    
     74900   289.36723     -36714.045      6710.6308      2.8413502      3032.6101    
     75000   300.12244     -36718.762     -2343.8626      2.8171047      3058.7104    
     75100   312.39002     -36712.109      2598.1911      2.807423       3069.2587    
     75200   322.40443     -36696.206     -4018.4846      2.771335       3109.2261    
     75300   295.31636     -36677.757      4705.4524      2.7950792      3082.8134    
     75400   286.09683     -36705.267     -2372.8744      2.790487       3087.8866    
     75500   303.08213     -36726.116      4360.0815      2.8163353      3059.546     
     75600   302.949       -36722.924     -2114.1204      2.807243       3069.4554    
     75700   308.93791     -36723.468      2379.0807      2.8334368      3041.0798    
     75800   306.60524     -36696.379     -4250.9602      2.8122314      3064.0108    
     75900   314.83538     -36688.578      425.17131      2.8045697      3072.3813    
     76000   296.97838     -36688.059     -5307.8805      2.7675494      3113.4791    
     76100   312.58874     -36714.376     -1211.5269      2.7768368      3103.0658    
     76200   293.59581     -36709.512      3388.255       2.811517       3064.7893    
     76300   291.4948      -36713.716     -41.273956      2.8220917      3053.3052    
     76400   296.8386      -36716.987      3153.6886      2.8229894      3052.3343    
     76500   283.86562     -36699.454     -1254.6421      2.7963329      3081.4312    
     76600   317.72273     -36706.283      1929.6126      2.8029239      3074.1853    
     76700   308.37898     -36690.711     -6462.9314      2.7708959      3109.7189    
     76800   304.61818     -36706.407     -3323.5683      2.7933898      3084.6777    
     76900   308.18696     -36733.808     -2446.3535      2.8111305      3065.2107    
     77000   303.64419     -36729.957      4487.8202      2.833943       3040.5365    
     77100   296.31837     -36711.142     -1739.973       2.8196351      3055.9654    
     77200   300.80012     -36705.936      1631.9918      2.8195177      3056.0927    
     77300   300.74079     -36704.005     -690.32704      2.8053685      3071.5064    
     77400   280.05147     -36700.77      -1187.1841      2.7801388      3099.3802    
     77500   282.36926     -36724.927     -2435.5059      2.7858622      3093.0127    
     77600   266.25252     -36705.177     -2179.5295      2.7964988      3081.2484    
     77700   304.96257     -36711.755      3024.9538      2.8297953      3044.9932    
     77800   306.40542     -36706.201     -1494.5292      2.8115964      3064.7028    
     77900   304.31483     -36718.611     -3775.4873      2.8122695      3063.9693    
     78000   276.67461     -36716.585      4287.6236      2.8048509      3072.0732    
     78100   294.60246     -36715.698      3530.6798      2.7975951      3080.0409    
     78200   295.86134     -36699.247     -6031.6505      2.7930682      3085.033     
     78300   295.98328     -36699.482      1975.743       2.8237959      3051.4626    
     78400   310.31878     -36719.927      738.87191      2.8268738      3048.1401    
     78500   274.63458     -36708.594     -2611.7691      2.8173164      3058.4805    
     78600   296.86414     -36719.787     -2604.0715      2.8104369      3065.9672    
     78700   307.53257     -36701.373     -749.03717      2.7923559      3085.8199    
     78800   320.54626     -36704.647      4094.9948      2.8024651      3074.6886    
     78900   332.53828     -36727.724     -3805.7215      2.7963561      3081.4056    
     79000   290.68945     -36708.222      910.392        2.8197598      3055.8302    
     79100   291.07509     -36711.949      357.35949      2.8013649      3075.896     
     79200   305.36198     -36713.158      3023.5332      2.8082903      3068.3108    
     79300   328.55479     -36695.538     -6360.2002      2.7995947      3077.841     
     79400   335.07652     -36707.036     -2101.7113      2.815954       3059.9603    
     79500   313.03685     -36711.527     -562.6461       2.8158068      3060.1202    
     79600   308.71958     -36714.415      741.31818      2.8104252      3065.98      
     79700   302.14109     -36718.802     -8702.3069      2.7991364      3078.3449    
     79800   289.98747     -36715.976      2272.3935      2.8054416      3071.4263    
     79900   300.0474      -36704.005     -627.80464      2.7966063      3081.13      
     80000   314.24428     -36697.832      396.25354      2.8149232      3061.0809    
     80100   301.76638     -36693.398      846.69217      2.8282981      3046.6051    
     80200   297.12885     -36725.383      604.07841      2.8280116      3046.9137    
     80300   274.90361     -36713.685      3.2089065      2.8057394      3071.1004    
     80400   286.71775     -36706.384     -4284.4418      2.7842268      3094.8295    
     80500   299.24599     -36702.246      948.45523      2.8142215      3061.844     
     80600   313.38158     -36711.783      2887.5569      2.8188792      3056.7849    
     80700   314.35595     -36718.424      5834.3556      2.8160017      3059.9085    
     80800   267.76406     -36701.526     -8957.882       2.7959849      3081.8147    
     80900   266.47228     -36721.852      2130.3362      2.8133543      3062.7878    
     81000   280.41095     -36717.924      4898.6516      2.8270137      3047.9892    
     81100   299.18911     -36712.118     -93.131761      2.8144526      3061.5926    
     81200   295.76656     -36702.565     -4455.8753      2.8024291      3074.728     
     81300   306.57958     -36717.834      4091.2303      2.8080175      3068.6089    
     81400   303.19973     -36711.737     -1647.6932      2.7940268      3083.9745    
     81500   308.40317     -36706.041      152.35867      2.8046021      3072.3458    
     81600   310.20555     -36704.147     -1488.6164      2.805517       3071.3438    
     81700   298.66946     -36711.246      4118.5515      2.8263166      3048.741     
     81800   285.8045      -36717.965     -2682.2275      2.8215324      3053.9105    
     81900   274.51502     -36713.57      -4056.111       2.8128462      3063.341     
     82000   312.29296     -36714.096      4778.9714      2.8065595      3070.203     
     82100   323.70163     -36708.812      634.59732      2.7905215      3087.8484    
     82200   298.46388     -36696.962      535.26649      2.7977028      3079.9223    
     82300   293.89405     -36709.575     -9652.8348      2.7945161      3083.4345    
     82400   283.89252     -36721.589      3447.2894      2.8305452      3044.1865    
     82500   303.14502     -36726.364      515.7182       2.8088211      3067.7309    
     82600   294.87701     -36714.443      752.36487      2.8137342      3062.3744    
     82700   310.72193     -36716.048     -220.40307      2.8046017      3072.3462    
     82800   286.72293     -36690.719      4109.675       2.8113011      3065.0248    
     82900   304.24226     -36699.166      1432.8819      2.8056679      3071.1787    
     83000   313.17323     -36712.057     -6450.8049      2.7913062      3086.9804    
     83100   287.33353     -36703.018      4615.6773      2.8153581      3060.608     
     83200   293.77012     -36714.953     -3296.1735      2.7913207      3086.9643    
     83300   274.99372     -36708.973      5608.351       2.8182495      3057.4679    
     83400   293.40476     -36702.469     -3989.3881      2.8042178      3072.7668    
     83500   308.79697     -36699.905      2320.1231      2.8192513      3056.3815    
     83600   327.16682     -36713.354     -6733.7432      2.7958807      3081.9295    
     83700   291.86669     -36716.571      1774.8417      2.8192         3056.437     
     83800   275.25859     -36710.719     -4811.5786      2.7912662      3087.0246    
     83900   301.30005     -36726.991     -2869.2997      2.8067395      3070.0061    
     84000   297.50675     -36718.996      4538.6118      2.8198156      3055.7698    
     84100   309.72963     -36713.703     -5066.2772      2.8160538      3059.8518    
     84200   327.53894     -36711.568     -169.25895      2.8286653      3046.2095    
     84300   296.80514     -36694.639     -3074.9812      2.8056626      3071.1844    
     84400   273.48702     -36709.836      4761.9801      2.8118285      3064.4498    
     84500   269.32933     -36713.769     -4219.3715      2.7890348      3089.4944    
     84600   287.45079     -36714.714      3931.1577      2.8236242      3051.648     
     84700   303.99701     -36708.042     -2730.0803      2.8227354      3052.6089    
     84800   312.10676     -36703.056      3447.3986      2.8288002      3046.0643    
     84900   302.67372     -36701.057     -6951.2437      2.7893188      3089.1798    
     85000   293.77289     -36711.245      2400.1404      2.7934322      3084.6309    
     85100   296.78351     -36728.83      -2416.4487      2.7909576      3087.3659    
     85200   258.23023     -36731.329      6754.2932      2.8215379      3053.9045    
     85300   283.33037     -36726.862     -4234.5577      2.8139809      3062.1059    
     85400   295.10276     -36716.965      769.41784      2.823524       3051.7564    
     85500   303.68985     -36708.148      6553.2008      2.8229663      3052.3593    
     85600   309.22317     -36700.658     -4070.2434      2.7899244      3088.5093    
     85700   316.1925      -36717.596      369.6414       2.8023467      3074.8184    
     85800   269.37826     -36712.343     -4900.0483      2.7912071      3087.09      
     85900   294.62197     -36730.148      10277.555      2.8288896      3045.968     
     86000   289.57928     -36712.872     -7234.5678      2.8089764      3067.5613    
     86100   304.13077     -36716.709      1750.0323      2.8335779      3040.9284    
     86200   289.49628     -36703.649     -3179.6283      2.7991714      3078.3064    
     86300   309.88046     -36704.115      7664.3241      2.8096585      3066.8167    
[...]
     67400   295.57236     -36713.011     -7374.0245    
     67500   260.91592     -36708.286     -1045.0243    
     67600   275.02662     -36710.955      2000.1859    
     67700   304.44429     -36707.89      -540.64435    
     67800   310.77577     -36703.793      1086.4299    
     67900   309.93363     -36712.195     -203.57344    
     68000   276.52451     -36700.809      1704.9157    
     68100   295.04226     -36725.026      269.7071     
     68200   262.15149     -36716.547      1731.9129    
     68300   287.72367     -36722.801     -2162.7725    
     68400   291.12092     -36700.241     -1199.7245    
     68500   300.13324     -36698.668      6191.4627    
     68600   333.25605     -36719.253     -3209.6962    
     68700   299.01775     -36716.803     -1356.7091    
     68800   291.40255     -36726.171      2090.4458    
     68900   269.41669     -36719.015     -2374.8545    
     69000   285.3452      -36701.854      38.597715    
     69100   290.1181      -36686.99       4046.0462    
     69200   311.48093     -36704.289      4295.9279    
     69300   294.3941      -36710.166     -37.068092    
     69400   307.48136     -36732.798     -3766.7461    
     69500   287.78916     -36717.915     -788.70524    
     69600   311.68783     -36697.753     -3921.4212    
     69700   292.78155     -36682.412     -2452.2717    
     69800   307.86289     -36706.048      2930.8701    
     69900   287.37129     -36712.812     -1848.7254    
     70000   287.42129     -36714.377     -407.26162    
     70100   292.80252     -36708.213      358.12453    
     70200   314.17405     -36708.784      1683.6328    
     70300   350.09667     -36698.543     -4657.7238    
     70400   307.34689     -36678.167     -3223.6266    
     70500   332.54166     -36715.678      516.43595    
     70600   300.98479     -36708.233     -163.07976    
     70700   306.5974      -36717.454     -7789.0443    
     70800   280.92942     -36705.142      2101.0089    
     70900   300.74748     -36723.62      -1721.687     
     71000   283.27163     -36693.507      1897.1058    
     71100   294.68553     -36683.76      -6831.5846    
     71200   315.72809     -36710.573      2821.2171    
     71300   292.23074     -36713.214     -3097.6858    
     71400   286.0339      -36709.378      1514.9695    
     71500   290.40065     -36702.44       1101.3415    
     71600   313.8379      -36715.928     -4355.6099    
     71700   300.20774     -36715.811     -3731.963     
     71800   274.77266     -36728.191      4572.1761    
     71900   258.03124     -36707.964     -4353.6742    
     72000   310.71036     -36719.396     -4667.9429    
     72100   282.93611     -36694.357     -948.24154    
     72200   307.02005     -36718.306      1685.4837    
     72300   276.297       -36705.092      820.66574    
     72400   292.03392     -36726.058      1006.6358    
     72500   282.26597     -36723.707      4162.9401    
     72600   312.43426     -36721.38      -6821.5025    
     72700   323.79677     -36711.462     -4132.237     
     72800   310.73867     -36715.534      1350.0525    
     72900   292.97094     -36712.392      736.44536    
     73000   299.52329     -36712.591      3789.0511    
     73100   311.22885     -36698.346      568.85847    
     73200   328.40328     -36686.867     -2906.7403    
     73300   303.25795     -36688.393      290.53441    
     73400   288.36824     -36698.146      3383.8268    
     73500   319.32869     -36728.858      2182.2378    
     73600   303.55234     -36722.788     -3494.3005    
     73700   302.50328     -36713.844     -1848.6338    
     73800   334.73309     -36708.37       4379.2745    
     73900   294.93376     -36684.155      2626.8057    
     74000   314.93321     -36713.832     -1566.765     
     74100   296.77806     -36714.396      661.39573    
     74200   309.314       -36724.881      486.18583    
     74300   302.69339     -36715.747     -2177.4585    
     74400   326.37713     -36720.858     -1463.439     
     74500   320.62104     -36692.198      3193.9694    
     74600   329.59076     -36698.774      466.03139    
     74700   291.61515     -36706.498     -1675.9413    
     74800   287.4622      -36707.421      1263.519     
     74900   291.10641     -36705.07       5491.6203    
     75000   300.80792     -36707.288     -3293.3052    
     75100   280.52894     -36693.317     -962.75987    
     75200   316.65683     -36721.869      104.30904    
     75300   304.59256     -36722.775     -444.7666     
     75400   274.50844     -36715.806     -1593.9142    
     75500   302.35132     -36730          1738.7043    
     75600   309.06914     -36702.654     -2583.1534    
     75700   310.73936     -36700.303      702.62496    
     75800   300.39721     -36704.732      179.30369    
     75900   284.28233     -36705.364      2809.5429    
     76000   299.49185     -36725.979     -2538.7093    
     76100   260.77718     -36725.759      3140.987     
     76200   276.22643     -36729.024      161.91241    
     76300   284.25248     -36711.762      1299.3722    
     76400   316.11066     -36720.894     -2498.4851    
     76500   306.37218     -36708.734     -2325.5035    
     76600   307.82133     -36710.391      2288.5318    
     76700   293.61503     -36716.839      6383.7762    
     76800   283.86323     -36725.67      -6331.6771    
     76900   292.72231     -36735.984     -1803.825     
     77000   303.84705     -36713.875     -1750.314     
     77100   292.35537     -36693.071      3434.5547    
     77200   304.26329     -36703.3        629.12665    
     77300   296.29442     -36716.812      2344.578     
     77400   286.96899     -36721.311     -2586.868     
     77500   299.65149     -36726.31       158.52258    
     77600   306.3903      -36697.682     -143.47623    
     77700   310.22998     -36694.907      6801.5768    
     77800   293.06786     -36694.357      286.99518    
     77900   310.5236      -36727.988     -862.91068    
     78000   279.03205     -36717.594      2707.0546    
     78100   297.72756     -36722.228     -3659.6053    
     78200   287.54097     -36707.172     -1483.4132    
     78300   303.51601     -36712.026      1360.2517    
     78400   306.62855     -36710.331      3400.5953    
     78500   314.17918     -36712.508     -2332.1433    
     78600   296.55602     -36707.497     -907.73442    
     78700   300.42085     -36725.422      2708.5292    
     78800   293.30602     -36723.865      908.44304    
     78900   324.01468     -36726.876      1725.0723    
     79000   329.55799     -36715.874      5275.464     
     79100   307.8322      -36698.294     -3398.4967    
     79200   298.55212     -36725.677     -5239.7198    
     79300   273.31899     -36720.664     -442.75298    
     79400   283.25026     -36714.776      6907.7494    
     79500   320.91258     -36718.491     -3351.6702    
     79600   316.06474     -36713.219      1015.8576    
     79700   321.30506     -36727.472     -1429.3932    
     79800   266.22463     -36706.567     -1808.9714    
     79900   267.81254     -36731.619     -81.434592    
     80000   264.2133      -36724.77       3718.7005    
     80100   279.15276     -36698.223     -6661.4733    
     80200   286.99487     -36696.247      5645.0207    
     80300   306.3781      -36711.573      7492.3718    
     80400   303.3624      -36717.113     -1899.0411    
     80500   280.3363      -36712.463     -3485.64      
     80600   304.14463     -36731.471      3138.0705    
     80700   306.47411     -36709.753      3180.5807    
     80800   304.00224     -36688.152     -4555.6944    
     80900   315.03616     -36700.917      6635.7464    
     81000   295.82123     -36716.478      2431.2794    
     81100   282.93726     -36709.221     -3112.1522    
     81200   296.31105     -36711.949     -1558.6463    
     81300   290.96099     -36694.714      6128.5497    
     81400   297.88629     -36689.854     -3259.2596    
     81500   293.16567     -36709.79      -5026.8666    
     81600   285.68053     -36727.637      7562.1538    
     81700   278.89906     -36716.242      3433.0267    
     81800   291.83099     -36701.017     -9281.178     
     81900   308.68592     -36707.893      912.60115    
     82000   302.53659     -36706.589      5855.9113    
     82100   312.50575     -36719.136     -4981.1157    
     82200   301.30367     -36719.341     -1922.9833    
     82300   283.23315     -36729.145      6422.8437    
     82400   280.51054     -36726.054     -3267.4978    
     82500   319.01304     -36730.811     -3751.4378    
     82600   292.65722     -36698.445      5879.1767    
     82700   317.4074      -36708.206      1484.4932    
     82800   292.78189     -36697.938     -2400.6046    
     82900   274.5372      -36715.464     -962.24335    
     83000   293.11139     -36729.26      -322.61299    
     83100   280.23723     -36708.968      624.15044    
     83200   322.34637     -36722.756     -1410.5095    
     83300   286.08128     -36693.387     -2605.2405    
     83400   322.33021     -36722.441      1718.1471    
     83500   283.886       -36710.283      946.20472    
     83600   291.71057     -36725.536     -3537.6939    
     83700   299.49499     -36721.181     -2699.2473    
     83800   308.17197     -36702.903      3513.5579    
     83900   317.04968     -36706.268      3539.0666    
     84000   297.28815     -36704.559     -5812.572     
     84100   297.83285     -36716.986     -54.161518    
     84200   272.08194     -36699.644      4052.2089    
     84300   300.31759     -36711.92      -5428.8827    
     84400   308.52665     -36714.977      508.45499    
     84500   315.64456     -36721.534      6934.4923    
     84600   295.62095     -36693.958     -7136.5822    
     84700   310.88247     -36702.101     -2628.121     
     84800   301.16354     -36712.394      7418.9536    
     84900   288.72283     -36715.922     -157.81504    
     85000   286.87079     -36718.42      -4991.9018    
     85100   306.51141     -36722.483      6271.7563    
     85200   310.25994     -36698.617     -343.66667    
     85300   298.58596     -36686.215     -2328.6827    
     85400   310.39677     -36718.711      927.67439    
     85500   295.94566     -36729.654      6325.6612    
     85600   282.35223     -36711.563     -7358.8415    
     85700   285.99585     -36699.187      2407.3572    
     85800   306.08784     -36699.44       3475.0765    
     85900   328.32827     -36717.517      736.66726    
     86000   303.88322     -36709.437     -6867.1333    
     86100   286.17809     -36704.671      2659.7831    
     86200   308.04429     -36716.349     -1872.5189    
     86300   313.86412     -36716.586      1525.9784    
     86400   298.43275     -36698.262      93.677783    
     86500   281.90168     -36694.275      1093.4138    
     86600   284.82014     -36702.748      2539.6951    
     86700   287.72376     -36712.164      344.93068    
     86800   287.65634     -36713.016     -4934.5824    
     86900   301.23619     -36719.029      2999.9463    
     87000   295.10807     -36702.367      6623.2222    
     87100   304.46481     -36689.59       2199.5602    
     87200   338.77176     -36718.192     -3225.7975    
     87300   289.25458     -36715.797      8490.1908    
     87400   306.36843     -36727.664     -2899.4585    
     87500   288.25454     -36710.079      4252.6831    
     87600   318.19439     -36719.485      2730.7363    
     87700   315.76248     -36691.896     -949.5079     
     87800   334.40462     -36698.951     -6150.5098    
     87900   315.09349     -36725.557      5032.1035    
     88000   279.18737     -36709.043      3204.1469    
     88100   292.08762     -36711.757     -4350.7837    
     88200   313.89342     -36715.045      2977.4678    
     88300   306.23431     -36706.803      10103.234    
     88400   324.61836     -36706.822     -1845.5677    
     88500   310.79525     -36706.904     -7094.5982    
     88600   280.50297     -36714.555      692.34537    
     88700   276.31802     -36712.199      10001.033    
     88800   279.38921     -36687.202     -6179.885     
     88900   321.2226      -36709.255     -4424.0446    
     89000   293.80385     -36700.619      1301.1548    
     89100   298.92395     -36710.419      5567.7217    
     89200   288.26427     -36703.661     -8134.4652    
     89300   283.01567     -36704.646     -2140.7473    
     89400   307.09727     -36706.617      4365.8242    
     89500   310.78147     -36693.808     -1265.8816    
     89600   310.21681     -36701.22      -6013.5994    
     89700   289.11647     -36716.103      5379.815     
     89800   294.68626     -36729.054      1274.5351    
     89900   290.82395     -36715.517     -887.05828    
     90000   311.71808     -36715.711      2429.0982    
     90100   302.21465     -36707.345     -1575.7033    
     90200   313.63839     -36720.939     -4148.9709    
     90300   300.77225     -36720.561      579.21444    
     90400   290.56886     -36708.632      6965.138     
     90500   294.47444     -36700.29      -187.14311    
     90600   317.98967     -36708.545     -1603.1916    
     90700   300.19676     -36718.433     -882.11325    
     90800   256.40596     -36701.871     -4328.8727    
     90900   296.94873     -36716.286      556.40149    
     91000   302.31726     -36706.111      4436.2966    
     91100   320.29417     -36715.966     -4769.816     
     91200   287.14813     -36711.387     -3148.3492    
     91300   285.66937     -36734.769      7682.6844    
     91400   273.35867     -36715.795     -1529.8625    
     91500   288.13375     -36708.337     -3608.2355    
     91600   307.6575      -36718.81       3046.6172    
     91700   295.59489     -36707.672     -2147.2458    
     91800   296.79974     -36709.659      2052.875     
     91900   311.78499     -36705.68       4133.5962    
     92000   331.62147     -36706.77      -1338.0405    
     92100   294.15491     -36696.659     -8068.0563    
     92200   300.31809     -36727.666      9669.6806    
     92300   286.27925     -36714.69       557.29525    
     92400   294.59484     -36708.828     -4805.178     
     92500   298.31386     -36690.123      2477.238     
     92600   310.74888     -36685.45       12221.973    
     92700   293.7264      -36691.929     -4187.3471    
     92800   295.99101     -36715.025     -4048.221     
     92900   289.76211     -36717.448     -843.19047    
     93000   296.0232      -36723.154      3372.9165    
     93100   311.05415     -36716.115     -211.54084    
     93200   296.05363     -36684.236      1104.3841    
     93300   320.14023     -36707.926      4227.4915    
     93400   307.75027     -36716.976      3708.5259    
     93500   290.93255     -36709.918      3302.1243    
     93600   313.20735     -36722.522     -9139.9841    
     93700   282.11668     -36698.673     -2659.4467    
     93800   321.8847      -36707.41       4343.5446    
     93900   329.37393     -36692.112     -2793.4367    
     94000   303.31365     -36696.563     -328.82268    
     94100   291.70173     -36715.33       4924.8605    
     94200   290.34788     -36714.337     -2870.4798    
     94300   305.92805     -36714.256     -2152.6677    
     94400   304.54998     -36702.372      2501.3918    
     94500   302.38504     -36689.149      776.37944    
     94600   309.73515     -36692.289     -333.99981    
     94700   308.89671     -36716.969      6225.835     
     94800   293.03914     -36724.013      2549.151     
     94900   276.36821     -36709.546     -2828.5536    
     95000   306.61746     -36715.874     -875.81462    
     95100   312.78015     -36694.903      909.47885    
     95200   334.02226     -36695.229      2667.8333    
     95300   291.18222     -36686.313     -3255.2199    
     95400   301.63518     -36702.028     -743.40936    
     95500   295.39254     -36710.948     -771.15498    
     95600   282.77465     -36711.753     -508.0888     
     95700   298.0975      -36722.687     -1163.4904    
     95800   301.98606     -36701.445      6558.165     
     95900   307.50691     -36689.019     -4328.4688    
     96000   311.49166     -36703.006     -139.58624    
     96100   294.33897     -36713.738     -940.80418    
     96200   291.8423      -36717.797     -680.07864    
     96300   309.05108     -36719.856      151.66001    
     96400   299.73962     -36704.796      5500.4998    
     96500   303.8776      -36697.205     -4275.8449    
     96600   303.88119     -36688.851     -3900.7451    
     96700   325.1338      -36717.402      369.91889    
     96800   306.14203     -36726.07       3022.3395    
     96900   274.37635     -36700.464     -9252.436     
     97000   313.45403     -36713.285      4236.1037    
     97100   296.81035     -36691.781      5994.8958    
     97200   317.16469     -36718.828     -1368.312     
     97300   279.33952     -36714.561     -2091.5927    
     97400   295.84998     -36731.451      6267.2714    
     97500   287.64546     -36708.125      2414.3213    
     97600   310.11383     -36701.251     -1708.1907    
     97700   307.75675     -36706.291      3285.0029    
     97800   287.91182     -36703.767      4821.6323    
     97900   299.48915     -36713.079     -2564.4805    
     98000   285.5894      -36729.936     -3764.4294    
     98100   258.80176     -36720.402      1651.5675    
     98200   285.15328     -36715.686      4050.5934    
     98300   299.67427     -36707.286     -6036.2722    
     98400   303.16828     -36705.156     -5559.7565    
     98500   289.19267     -36706.133      8185.9513    
     98600   291.26797     -36716.077      241.88025    
     98700   282.93312     -36718.763     -9275.4211    
     98800   268.98703     -36712.454     -3925.0205    
     98900   291.71697     -36706.792      7589.667     
     99000   321.51756     -36708.76      -2468.4948    
     99100   313.03451     -36706.149     -309.48161    
     99200   299.79068     -36710.392      3127.0373    
     99300   294.24612     -36735.172     -1619.4684    
     99400   278.25401     -36728.686     -4327.8307    
     99500   272.41661     -36711.953      682.61267    
     99600   290.94254     -36702.072      1810.3246    
     99700   310.51477     -36706.331      3611.0286    
     99800   299.98469     -36707.559      1814.7686    
     99900   278.96372     -36714.002     -1492.8805    
    100000   287.16527     -36717.418      864.42567    
Loop time of 9811.78 on 12 procs for 100000 steps with 243 atoms

Performance: 0.440 ns/day, 54.510 hours/ns, 10.192 timesteps/s, 2.477 katom-step/s
99.7% CPU use with 2 MPI tasks x 6 OpenMP threads

MPI task timing breakdown:
Section |  min time  |  avg time  |  max time  |%varavg| %total
---------------------------------------------------------------
Pair    | 2392.6     | 2407.5     | 2422.5     |  30.5 | 24.54
Bond    | 0.01573    | 0.021996   | 0.028261   |   4.2 |  0.00
Neigh   | 240.01     | 240.1      | 240.18     |   0.6 |  2.45
Comm    | 12.583     | 29.369     | 46.156     | 309.8 |  0.30
Output  | 0.23061    | 0.2908     | 0.35098    |  11.2 |  0.00
Modify  | 7130.6     | 7132.6     | 7134.5     |   2.3 | 72.69
Other   |            | 1.892      |            |       |  0.02

Nlocal:          121.5 ave         122 max         121 min
Histogram: 1 0 0 0 0 0 0 0 0 1
Nghost:           3900 ave        3914 max        3886 min
Histogram: 1 0 0 0 0 0 0 0 0 1
Neighs:        64129.5 ave       64255 max       64004 min
Histogram: 1 0 0 0 0 0 0 0 0 1

Total # of neighbors = 128259
Ave neighs/atom = 527.81481
Ave special neighs/atom = 0
Neighbor list builds = 10000
Dangerous builds not checked
Stress sampling interval = 5
Stress sample count = 20000
Born sampling interval = 5
Born sample count = 20000
done!
Total wall time: 3:34:12
