LAMMPS (2 Aug 2023 - Update 2)
  using 2 OpenMP thread(s) per MPI task
Reading data file ...
  triclinic box = (0 0 0) to (14.7487 13.4318 16.6096) with tilt (-6.1972 -1.0047 -1.8606)
  2 by 2 by 2 MPI processor grid
  reading atoms ...
  271 atoms
Finding 1-2 1-3 1-4 neighbors ...
  special bond factors lj:    0        0        0       
  special bond factors coul:  0        0        0       
     0 = max # of 1-2 neighbors
     0 = max # of 1-3 neighbors
     0 = max # of 1-4 neighbors
     1 = max # of special neighbors
  special bonds CPU = 0.001 seconds
  read_data CPU = 0.012 seconds
*****Minimization starts.*****

CITE-CITE-CITE-CITE-CITE-CITE-CITE-CITE-CITE-CITE-CITE-CITE-CITE

Your simulation uses code contributions which should be cited:
- pair reaxff command: doi:10.1016/j.parco.2011.08.005
- fix qeq/reaxff command: doi:10.1016/j.parco.2011.08.005
The log file lists these citations in BibTeX format.

CITE-CITE-CITE-CITE-CITE-CITE-CITE-CITE-CITE-CITE-CITE-CITE-CITE

WARNING: Fix qeq/reaxff group is not charge neutral, net charge = -9.02 (src/REAXFF/fix_qeq_reaxff.cpp:392)
Neighbor list info ...
  update: every = 1 steps, delay = 0 steps, check = yes
  max neighbors/atom: 2000, page size: 100000
  master list distance cutoff = 12
  ghost atom cutoff = 12
  binsize = 6, bins = 4 3 3
  2 neighbor lists, perpetual/occasional/extra = 2 0 0
  (1) pair reaxff, perpetual
      attributes: half, newton off, ghost
      pair build: half/bin/newtoff/ghost
      stencil: full/ghost/bin/3d
      bin: standard
  (2) fix qeq/reaxff, perpetual, copy from (1)
      attributes: half, newton off
      pair build: copy
      stencil: none
      bin: none
Setting up cg style minimization ...
  Unit style    : real
  Current step  : 0
Per MPI rank memory allocation (min/avg/max) = 109.1 | 110.7 | 112.4 Mbytes
   Step          Temp          E_pair         E_mol          TotEng         Press     
         0   0             -30660.091      0             -30660.091      113126.59    
        11   0             -31623.433      0             -31623.433     -4928.1927    
Loop time of 0.599316 on 16 procs for 11 steps with 271 atoms

95.1% CPU use with 8 MPI tasks x 2 OpenMP threads

Minimization stats:
  Stopping criterion = energy tolerance
  Energy initial, next-to-last, final = 
     -30660.0906507096  -31623.4036813791  -31623.4328346698
  Force two-norm initial, final = 1788.1411 280.16526
  Force max component initial, final = 288.6713 59.79453
  Final line search alpha, max atom move = 0.0018628144 0.11138611
  Iterations, force evaluations = 11 21

MPI task timing breakdown:
Section |  min time  |  avg time  |  max time  |%varavg| %total
---------------------------------------------------------------
Pair    | 0.3193     | 0.35407    | 0.41855    |   5.7 | 59.08
Bond    | 3.62e-06   | 4.7461e-06 | 6.665e-06  |   0.0 |  0.00
Neigh   | 0          | 0          | 0          |   0.0 |  0.00
Comm    | 0.039513   | 0.10376    | 0.13847    |  10.5 | 17.31
Output  | 0          | 0          | 0          |   0.0 |  0.00
Modify  | 0.14022    | 0.1404     | 0.14054    |   0.0 | 23.43
Other   |            | 0.001086   |            |       |  0.18

Nlocal:         33.875 ave          38 max          27 min
Histogram: 1 1 0 0 0 0 2 0 2 2
Nghost:        2756.75 ave        2807 max        2712 min
Histogram: 2 1 0 1 0 0 1 1 0 2
Neighs:        19576.1 ave       21850 max       15763 min
Histogram: 1 0 1 0 0 0 2 0 3 1

Total # of neighbors = 156609
Ave neighs/atom = 577.89299
Ave special neighs/atom = 0
Neighbor list builds = 0
Dangerous builds = 0
System init for write_data ...
WARNING: New thermo_style command, previous thermo_modify settings will be lost (src/output.cpp:903)
Neighbor list info ...
  update: every = 10 steps, delay = 0 steps, check = no
  max neighbors/atom: 2000, page size: 100000
  master list distance cutoff = 12
  ghost atom cutoff = 12
  binsize = 6, bins = 4 3 3
  2 neighbor lists, perpetual/occasional/extra = 2 0 0
  (1) pair reaxff, perpetual
      attributes: half, newton off, ghost
      pair build: half/bin/newtoff/ghost
      stencil: full/ghost/bin/3d
      bin: standard
  (2) fix qeq/reaxff, perpetual, copy from (1)
      attributes: half, newton off
      pair build: copy
      stencil: none
      bin: none
Setting up Verlet run ...
  Unit style    : real
  Current step  : 0
  Time step     : 0.5
Per MPI rank memory allocation (min/avg/max) = 107.5 | 109.1 | 110.8 Mbytes
   Step          Temp          PotEng         Press         Density         Volume    
         0   300           -31623.433     -1573.8094      1.5329564      3290.3881    
       100   315.69546     -31606.137     -5110.8562      1.5329564      3290.3881    
       200   333.47607     -31616.65      -8560.0081      1.5329564      3290.3881    
       300   298.7078      -31626.053      3251.9411      1.5329564      3290.3881    
       400   294.83551     -31656.631      2208.1374      1.5329564      3290.3881    
       500   305.90206     -31698.003     -7418.2026      1.5329564      3290.3881    
       600   296.725       -31714.816      6300.8315      1.5329564      3290.3881    
       700   308.81482     -31747.517      8310.8941      1.5329564      3290.3881    
       800   302.57953     -31770.106      2137.899       1.5329564      3290.3881    
       900   281.86211     -31768.559     -5108.8834      1.5329564      3290.3881    
      1000   293.84305     -31781.987     -6508.9203      1.5329564      3290.3881    
      1100   299.88001     -31783.335     -18019.33       1.5329564      3290.3881    
      1200   301.27602     -31781.525     -8022.0431      1.5329564      3290.3881    
      1300   296.563       -31798.976     -12047.609      1.5329564      3290.3881    
      1400   286.4575      -31810.548     -9499.9894      1.5329564      3290.3881    
      1500   276.07816     -31804.271     -7510.7527      1.5329564      3290.3881    
      1600   293.96719     -31806.433     -6561.0696      1.5329564      3290.3881    
      1700   339.70976     -31814.693     -84.070943      1.5329564      3290.3881    
      1800   339.5396      -31832.24       3593.6657      1.5329564      3290.3881    
      1900   297.81056     -31825.206      8775.942       1.5329564      3290.3881    
      2000   315.59699     -31859.56      -3737.0488      1.5329564      3290.3881    
      2100   297.84851     -31866.461      5290.9955      1.5329564      3290.3881    
      2200   302.55947     -31880.202     -13941.575      1.5329564      3290.3881    
      2300   320.63566     -31880.824     -7710.1989      1.5329564      3290.3881    
      2400   318.14426     -31854.181     -8203.4499      1.5329564      3290.3881    
      2500   336.8614      -31870.096     -8856.78        1.5329564      3290.3881    
      2600   298.28021     -31863.575     -7203.454       1.5329564      3290.3881    
      2700   297.84218     -31876.946      469.11076      1.5329564      3290.3881    
      2800   274.01485     -31879.648     -7456.7549      1.5329564      3290.3881    
      2900   295.57263     -31911.758      2954.6407      1.5329564      3290.3881    
      3000   292.09457     -31904.922     -556.05024      1.5329564      3290.3881    
      3100   295.0358      -31884.272      4138.5633      1.5329564      3290.3881    
      3200   339.83175     -31899.144      2977.5904      1.5329564      3290.3881    
      3300   324.39804     -31902.623      1856.7166      1.5329564      3290.3881    
      3400   296.62273     -31910.876      3221.8593      1.5329564      3290.3881    
      3500   280.90734     -31897.665     -9747.3472      1.5329564      3290.3881    
      3600   313.0017      -31911.502     -15099.124      1.5329564      3290.3881    
      3700   314.84649     -31901.828     -5476.9036      1.5329564      3290.3881    
      3800   294.0726      -31894.86      -4233.2813      1.5329564      3290.3881    
      3900   301.08067     -31922.875     -3539.2877      1.5329564      3290.3881    
      4000   301.47478     -31921.993      936.09125      1.5329564      3290.3881    
      4100   310.20576     -31899.895     -9.9773019      1.5329564      3290.3881    
      4200   312.87838     -31881.999     -5294.97        1.5329564      3290.3881    
      4300   290.7285      -31875.983     -2764.6992      1.5329564      3290.3881    
      4400   302.50248     -31899.341      649.75597      1.5329564      3290.3881    
      4500   299.00735     -31900.245     -8940.3786      1.5329564      3290.3881    
      4600   282.28779     -31892.549     -3890.5297      1.5329564      3290.3881    
      4700   281.73711     -31898.817     -12829.984      1.5329564      3290.3881    
      4800   302.65403     -31919.114     -2803.7359      1.5329564      3290.3881    
      4900   313.32265     -31915.81      -3520.7134      1.5329564      3290.3881    
      5000   316.45881     -31911.511      13486.52       1.5329564      3290.3881    
Loop time of 198.936 on 16 procs for 5000 steps with 271 atoms

Performance: 1.086 ns/day, 22.104 hours/ns, 25.134 timesteps/s, 6.811 katom-step/s
99.2% CPU use with 8 MPI tasks x 2 OpenMP threads

MPI task timing breakdown:
Section |  min time  |  avg time  |  max time  |%varavg| %total
---------------------------------------------------------------
Pair    | 143.09     | 148        | 152.89     |  29.3 | 74.40
Bond    | 0.0016506  | 0.0019152  | 0.0021459  |   0.3 |  0.00
Neigh   | 11.797     | 12.079     | 12.252     |   5.2 |  6.07
Comm    | 14.994     | 19.894     | 24.854     |  80.5 | 10.00
Output  | 0.003114   | 0.0039869  | 0.0098434  |   3.5 |  0.00
Modify  | 17.732     | 17.981     | 18.432     |   5.1 |  9.04
Other   |            | 0.9761     |            |       |  0.49

Nlocal:         33.875 ave          40 max          20 min
Histogram: 1 0 0 0 0 1 1 1 1 3
Nghost:        2753.88 ave        2783 max        2717 min
Histogram: 1 0 1 1 0 0 3 0 0 2
Neighs:        19567.4 ave       22756 max       11791 min
Histogram: 1 0 0 0 0 1 1 1 1 3

Total # of neighbors = 156539
Ave neighs/atom = 577.63469
Ave special neighs/atom = 0
Neighbor list builds = 500
Dangerous builds not checked
System init for write_data ...
System init for write_restart ...
  using 2 OpenMP thread(s) per MPI task
Reading restart file ...
  restart file = 2 Aug 2023, LAMMPS = 2 Aug 2023
  restoring atom style full from restart
  triclinic box = (0 0 0) to (14.7487 13.4318 16.6096) with tilt (-6.1972 -1.0047 -1.8606)
  2 by 2 by 2 MPI processor grid
  pair style reaxff stores no restart info
  271 atoms
Finding 1-2 1-3 1-4 neighbors ...
  special bond factors lj:    0        0        0       
  special bond factors coul:  0        0        0       
     0 = max # of 1-2 neighbors
     0 = max # of 1-3 neighbors
     0 = max # of 1-4 neighbors
     1 = max # of special neighbors
  special bonds CPU = 0.000 seconds
  read_restart CPU = 0.003 seconds
*****debug*****
xy = -6.1971999999999995978, deltaxy = 0.61972
xz = -1.0046999999999999265, deltaxz = 0.10047
yz = -1.8606000000000000316, deltayz = 0.18606
*****
*****Negative-deform 1 starts.*****
Resetting global fix info from restart file:
  fix style: nvt, fix ID: fnvt
All restart file global fix info was re-assigned
Neighbor list info ...
  update: every = 10 steps, delay = 0 steps, check = no
  max neighbors/atom: 2000, page size: 100000
  master list distance cutoff = 12
  ghost atom cutoff = 12
  binsize = 6, bins = 4 3 3
  2 neighbor lists, perpetual/occasional/extra = 2 0 0
  (1) pair reaxff, perpetual
      attributes: half, newton off, ghost
      pair build: half/bin/newtoff/ghost
      stencil: full/ghost/bin/3d
      bin: standard
  (2) fix qeq/reaxff, perpetual, copy from (1)
      attributes: half, newton off
      pair build: copy
      stencil: none
      bin: none
Setting up Verlet run ...
  Unit style    : real
  Current step  : 0
  Time step     : 0.5
Per MPI rank memory allocation (min/avg/max) = 107.9 | 109 | 110.3 Mbytes
   Step          Temp          PotEng         Press          Volume           Lx             Ly             Lz      
         0   316.45881     -31911.511      13486.486      3290.3881      14.7487        13.4318        16.6096      
       100   306.4854      -31898.319     -5359.4468      3283.8074      14.719203      13.4318        16.6096      
       200   312.31254     -31898.382     -4810.7934      3277.2266      14.689705      13.4318        16.6096      
       300   297.40929     -31904.413      2899.4126      3270.6458      14.660208      13.4318        16.6096      
       400   275.82064     -31901.272     -17380.734      3264.065       14.63071       13.4318        16.6096      
       500   288.26184     -31908.016     -9007.3673      3257.4843      14.601213      13.4318        16.6096      
       600   312.59308     -31911.624     -11320.569      3250.9035      14.571716      13.4318        16.6096      
       700   321.4248      -31887.024     -1678.5178      3244.3227      14.542218      13.4318        16.6096      
       800   332.39878     -31897.724      5552.2197      3237.7419      14.512721      13.4318        16.6096      
       900   296.34533     -31881.611      4184.9215      3231.1612      14.483223      13.4318        16.6096      
      1000   290.2735      -31885.025      8535.2393      3224.5804      14.453726      13.4318        16.6096      
      1100   304.05121     -31910.744      8176.7426      3217.9996      14.424229      13.4318        16.6096      
      1200   277.80961     -31898.887      17680.314      3211.4188      14.394731      13.4318        16.6096      
      1300   302.78041     -31907.565      20702.168      3204.8381      14.365234      13.4318        16.6096      
      1400   300.72509     -31893.735      926.94574      3198.2573      14.335736      13.4318        16.6096      
      1500   315.60759     -31897.082     -11161.385      3191.6765      14.306239      13.4318        16.6096      
      1600   311.40633     -31901.966      5875.2873      3185.0957      14.276742      13.4318        16.6096      
      1700   294.66898     -31902.78      -10181.57       3178.515       14.247244      13.4318        16.6096      
      1800   301.95088     -31906.187      1104.0676      3171.9342      14.217747      13.4318        16.6096      
      1900   285.39512     -31878.185     -3443.3125      3165.3534      14.188249      13.4318        16.6096      
      2000   304.84545     -31871.868     -159.54729      3158.7726      14.158752      13.4318        16.6096      
      2100   331.37301     -31852.902      16217.552      3152.1918      14.129255      13.4318        16.6096      
      2200   330.1179      -31860.245      10147.896      3145.6111      14.099757      13.4318        16.6096      
      2300   324.76102     -31874.244      11237.19       3139.0303      14.07026       13.4318        16.6096      
      2400   294.6744      -31869.197     -3065.2824      3132.4495      14.040762      13.4318        16.6096      
      2500   304.33088     -31891.897      2716.8672      3125.8687      14.011265      13.4318        16.6096      
      2600   290.55258     -31893.02       2820.4856      3119.288       13.981768      13.4318        16.6096      
      2700   290.16692     -31895.103      2777.5728      3112.7072      13.95227       13.4318        16.6096      
      2800   307.30728     -31898.632     -6514.8401      3106.1264      13.922773      13.4318        16.6096      
      2900   315.08631     -31893.249      15372.399      3099.5456      13.893275      13.4318        16.6096      
      3000   320.81512     -31890.805      13650.474      3092.9649      13.863778      13.4318        16.6096      
      3100   313.97992     -31885.633      10848.599      3086.3841      13.834281      13.4318        16.6096      
      3200   315.71591     -31900.216     -1736.6907      3079.8033      13.804783      13.4318        16.6096      
      3300   302.68555     -31901.318     -1237.7686      3073.2225      13.775286      13.4318        16.6096      
      3400   279.27724     -31882.168      17256.667      3066.6418      13.745788      13.4318        16.6096      
      3500   307.11971     -31880.127     -24.816587      3060.061       13.716291      13.4318        16.6096      
      3600   313.57324     -31860.001      16403.212      3053.4802      13.686794      13.4318        16.6096      
      3700   320.1975      -31869.571      1405.5622      3046.8994      13.657296      13.4318        16.6096      
      3800   300.72311     -31870.591      24081.917      3040.3186      13.627799      13.4318        16.6096      
      3900   310.48285     -31883.339      9971.563       3033.7379      13.598301      13.4318        16.6096      
      4000   303.99726     -31880.569      1665.5127      3027.1571      13.568804      13.4318        16.6096      
      4100   297.48054     -31882.743      15894.311      3020.5763      13.539307      13.4318        16.6096      
      4200   308.72267     -31886.521      21168.054      3013.9955      13.509809      13.4318        16.6096      
      4300   283.19235     -31861.529     -2855.1195      3007.4148      13.480312      13.4318        16.6096      
      4400   315.68597     -31871.532      19027.313      3000.834       13.450814      13.4318        16.6096      
      4500   307.20574     -31855.755      23668.895      2994.2532      13.421317      13.4318        16.6096      
      4600   301.6067      -31859.39      -1743.5794      2987.6724      13.39182       13.4318        16.6096      
      4700   301.75253     -31874.81      -1065.6076      2981.0917      13.362322      13.4318        16.6096      
      4800   298.65714     -31868.779      21767.748      2974.5109      13.332825      13.4318        16.6096      
      4900   313.82444     -31863.54       12072.299      2967.9301      13.303327      13.4318        16.6096      
      5000   295.89865     -31847.082      6345.751       2961.3493      13.27383       13.4318        16.6096      
Loop time of 215.588 on 16 procs for 5000 steps with 271 atoms

Performance: 1.002 ns/day, 23.954 hours/ns, 23.192 timesteps/s, 6.285 katom-step/s
99.2% CPU use with 8 MPI tasks x 2 OpenMP threads

MPI task timing breakdown:
Section |  min time  |  avg time  |  max time  |%varavg| %total
---------------------------------------------------------------
Pair    | 156.19     | 163.03     | 167.95     |  31.7 | 75.62
Bond    | 0.0017466  | 0.0020345  | 0.0022473  |   0.3 |  0.00
Neigh   | 12.384     | 12.842     | 13.141     |   7.0 |  5.96
Comm    | 14.495     | 19.468     | 26.242     |  92.5 |  9.03
Output  | 0.030082   | 0.034015   | 0.040077   |   1.8 |  0.02
Modify  | 18.856     | 19.252     | 19.748     |   6.5 |  8.93
Other   |            | 0.9638     |            |       |  0.45

Nlocal:         33.875 ave          40 max          26 min
Histogram: 1 0 1 1 1 0 0 2 0 2
Nghost:        2954.88 ave        3031 max        2888 min
Histogram: 2 0 1 1 0 1 1 0 1 1
Neighs:        21766.5 ave       25353 max       16982 min
Histogram: 1 0 1 1 1 0 0 1 1 2

Total # of neighbors = 174132
Ave neighs/atom = 642.55351
Ave special neighs/atom = 0
Neighbor list builds = 500
Dangerous builds not checked
  using 2 OpenMP thread(s) per MPI task
Reading restart file ...
  restart file = 2 Aug 2023, LAMMPS = 2 Aug 2023
  restoring atom style full from restart
  triclinic box = (0 0 0) to (14.7487 13.4318 16.6096) with tilt (-6.1972 -1.0047 -1.8606)
  2 by 2 by 2 MPI processor grid
  pair style reaxff stores no restart info
  271 atoms
Finding 1-2 1-3 1-4 neighbors ...
  special bond factors lj:    0        0        0       
  special bond factors coul:  0        0        0       
     0 = max # of 1-2 neighbors
     0 = max # of 1-3 neighbors
     0 = max # of 1-4 neighbors
     1 = max # of special neighbors
  special bonds CPU = 0.000 seconds
  read_restart CPU = 0.003 seconds
*****Positive-deform 1 starts.*****
Resetting global fix info from restart file:
  fix style: nvt, fix ID: fnvt
All restart file global fix info was re-assigned
Neighbor list info ...
  update: every = 10 steps, delay = 0 steps, check = no
  max neighbors/atom: 2000, page size: 100000
  master list distance cutoff = 12
  ghost atom cutoff = 12
  binsize = 6, bins = 4 3 3
  2 neighbor lists, perpetual/occasional/extra = 2 0 0
  (1) pair reaxff, perpetual
      attributes: half, newton off, ghost
      pair build: half/bin/newtoff/ghost
      stencil: full/ghost/bin/3d
      bin: standard
  (2) fix qeq/reaxff, perpetual, copy from (1)
      attributes: half, newton off
      pair build: copy
      stencil: none
      bin: none
Setting up Verlet run ...
  Unit style    : real
  Current step  : 0
  Time step     : 0.5
Per MPI rank memory allocation (min/avg/max) = 107.9 | 109 | 110.4 Mbytes
   Step          Temp          PotEng         Press          Volume           Lx             Ly             Lz      
         0   316.45881     -31911.511      13486.486      3290.3881      14.7487        13.4318        16.6096      
       100   305.8045      -31898.004     -5043.481       3296.9689      14.778197      13.4318        16.6096      
       200   314.90222     -31900.439     -14184.591      3303.5497      14.807695      13.4318        16.6096      
       300   294.20325     -31900.087     -2472.8889      3310.1305      14.837192      13.4318        16.6096      
       400   273.73377     -31898.202     -11846.101      3316.7113      14.86669       13.4318        16.6096      
       500   281.12287     -31899.696     -4189.5236      3323.292       14.896187      13.4318        16.6096      
       600   291.85811     -31892.009     -6359.7689      3329.8728      14.925684      13.4318        16.6096      
       700   325.9023      -31886.023     -8362.5552      3336.4536      14.955182      13.4318        16.6096      
       800   341.97647     -31908.792      10946.975      3343.0344      14.984679      13.4318        16.6096      
       900   295.3968      -31896.349     -8811.8779      3349.6151      15.014177      13.4318        16.6096      
      1000   297.90171     -31909.257     -13190.961      3356.1959      15.043674      13.4318        16.6096      
      1100   292.64929     -31910.899     -11632.749      3362.7767      15.073171      13.4318        16.6096      
      1200   287.42723     -31910.078     -1648.1239      3369.3575      15.102669      13.4318        16.6096      
      1300   257.96032     -31902.433      7618.9147      3375.9382      15.132166      13.4318        16.6096      
      1400   263.12319     -31915.784     -7766.4396      3382.519       15.161664      13.4318        16.6096      
      1500   292.23049     -31913.205     -17343.362      3389.0998      15.191161      13.4318        16.6096      
      1600   305.5657      -31898.78      -12129.352      3395.6806      15.220658      13.4318        16.6096      
      1700   329.5852      -31919.837     -15500.767      3402.2613      15.250156      13.4318        16.6096      
      1800   292.22044     -31907.869     -26204.956      3408.8421      15.279653      13.4318        16.6096      
      1900   296.78429     -31911.19      -6170.6078      3415.4229      15.309151      13.4318        16.6096      
      2000   290.3967      -31898.149     -13810.011      3422.0037      15.338648      13.4318        16.6096      
      2100   317.94832     -31910.83      -6073.053       3428.5844      15.368145      13.4318        16.6096      
      2200   283.2547      -31905.458     -19851.803      3435.1652      15.397643      13.4318        16.6096      
      2300   287.01142     -31914.915     -2143.9194      3441.746       15.42714       13.4318        16.6096      
      2400   293.99773     -31903.582     -14304.514      3448.3268      15.456638      13.4318        16.6096      
      2500   311.78902     -31891.79      -16028.968      3454.9076      15.486135      13.4318        16.6096      
      2600   299.41927     -31875.362     -1765.9127      3461.4883      15.515632      13.4318        16.6096      
      2700   304.17439     -31882.606     -4768.3979      3468.0691      15.54513       13.4318        16.6096      
      2800   268.88194     -31881.121     -10798.463      3474.6499      15.574627      13.4318        16.6096      
      2900   262.35292     -31888.198     -16110.193      3481.2307      15.604125      13.4318        16.6096      
      3000   297.72366     -31891.703     -5038.794       3487.8114      15.633622      13.4318        16.6096      
      3100   298.23998     -31873.597     -31181.878      3494.3922      15.663119      13.4318        16.6096      
      3200   292.51187     -31855.512     -22745.362      3500.973       15.692617      13.4318        16.6096      
      3300   286.64714     -31840.89      -5339.8055      3507.5538      15.722114      13.4318        16.6096      
      3400   317.48824     -31882.398     -5917.4334      3514.1345      15.751612      13.4318        16.6096      
      3500   289.9173      -31877.915     -20860.481      3520.7153      15.781109      13.4318        16.6096      
      3600   308.78714     -31889.223     -21878.997      3527.2961      15.810606      13.4318        16.6096      
      3700   311.69973     -31875.388     -11154.995      3533.8769      15.840104      13.4318        16.6096      
      3800   322.83151     -31857.879     -9808.3429      3540.4576      15.869601      13.4318        16.6096      
      3900   319.11161     -31850.032     -14265.101      3547.0384      15.899099      13.4318        16.6096      
      4000   323.23759     -31861.781     -6664.1222      3553.6192      15.928596      13.4318        16.6096      
      4100   304.13664     -31851.338     -19011.224      3560.2         15.958093      13.4318        16.6096      
      4200   295.24641     -31845.851     -17721.586      3566.7808      15.987591      13.4318        16.6096      
      4300   311.05877     -31858.143     -22717.532      3573.3615      16.017088      13.4318        16.6096      
      4400   296.98001     -31844.738     -6338.2336      3579.9423      16.046586      13.4318        16.6096      
      4500   267.16279     -31854.888     -8222.0514      3586.5231      16.076083      13.4318        16.6096      
      4600   272.45755     -31853.041     -6787.1044      3593.1039      16.10558       13.4318        16.6096      
      4700   290.18198     -31837.774     -10867.929      3599.6846      16.135078      13.4318        16.6096      
      4800   300.08982     -31829.962     -13883.322      3606.2654      16.164575      13.4318        16.6096      
      4900   300.87152     -31834.558     -13716.693      3612.8462      16.194073      13.4318        16.6096      
      5000   314.13006     -31865.005     -10992.976      3619.427       16.22357       13.4318        16.6096      
Loop time of 194.93 on 16 procs for 5000 steps with 271 atoms

Performance: 1.108 ns/day, 21.659 hours/ns, 25.650 timesteps/s, 6.951 katom-step/s
99.2% CPU use with 8 MPI tasks x 2 OpenMP threads

MPI task timing breakdown:
Section |  min time  |  avg time  |  max time  |%varavg| %total
---------------------------------------------------------------
Pair    | 139.95     | 145.27     | 151        |  32.7 | 74.53
Bond    | 0.0017983  | 0.0019941  | 0.0023309  |   0.3 |  0.00
Neigh   | 11.441     | 11.687     | 11.938     |   4.7 |  6.00
Comm    | 12.846     | 18.59      | 23.847     |  91.4 |  9.54
Output  | 0.025104   | 0.028487   | 0.033294   |   1.7 |  0.01
Modify  | 18.096     | 18.437     | 18.71      |   5.3 |  9.46
Other   |            | 0.9119     |            |       |  0.47

Nlocal:         33.875 ave          44 max          21 min
Histogram: 1 0 0 1 1 2 1 0 1 1
Nghost:        2639.62 ave        2678 max        2587 min
Histogram: 1 0 1 1 0 1 0 2 1 1
Neighs:        17749.6 ave       22730 max       11205 min
Histogram: 1 0 0 1 1 2 0 1 1 1

Total # of neighbors = 141997
Ave neighs/atom = 523.97417
Ave special neighs/atom = 0
Neighbor list builds = 500
Dangerous builds not checked
  using 2 OpenMP thread(s) per MPI task
Reading restart file ...
  restart file = 2 Aug 2023, LAMMPS = 2 Aug 2023
  restoring atom style full from restart
  triclinic box = (0 0 0) to (14.7487 13.4318 16.6096) with tilt (-6.1972 -1.0047 -1.8606)
  2 by 2 by 2 MPI processor grid
  pair style reaxff stores no restart info
  271 atoms
Finding 1-2 1-3 1-4 neighbors ...
  special bond factors lj:    0        0        0       
  special bond factors coul:  0        0        0       
     0 = max # of 1-2 neighbors
     0 = max # of 1-3 neighbors
     0 = max # of 1-4 neighbors
     1 = max # of special neighbors
  special bonds CPU = 0.000 seconds
  read_restart CPU = 0.003 seconds
*****debug*****
xy = -6.1971999999999995978, deltaxy = 0.61972
xz = -1.0046999999999999265, deltaxz = 0.10047
yz = -1.8606000000000000316, deltayz = 0.18606
*****
*****Negative-deform 2 starts.*****
Resetting global fix info from restart file:
  fix style: nvt, fix ID: fnvt
All restart file global fix info was re-assigned
Neighbor list info ...
  update: every = 10 steps, delay = 0 steps, check = no
  max neighbors/atom: 2000, page size: 100000
  master list distance cutoff = 12
  ghost atom cutoff = 12
  binsize = 6, bins = 4 3 3
  2 neighbor lists, perpetual/occasional/extra = 2 0 0
  (1) pair reaxff, perpetual
      attributes: half, newton off, ghost
      pair build: half/bin/newtoff/ghost
      stencil: full/ghost/bin/3d
      bin: standard
  (2) fix qeq/reaxff, perpetual, copy from (1)
      attributes: half, newton off
      pair build: copy
      stencil: none
      bin: none
Setting up Verlet run ...
  Unit style    : real
  Current step  : 0
  Time step     : 0.5
Per MPI rank memory allocation (min/avg/max) = 107.9 | 109 | 110.3 Mbytes
   Step          Temp          PotEng         Press          Volume           Lx             Ly             Lz      
         0   316.45881     -31911.511      13486.486      3290.3881      14.7487        13.4318        16.6096      
       100   305.82228     -31897.83      -5515.5407      3283.8074      14.7487        13.404936      16.6096      
       200   309.02719     -31897.563     -13063.63       3277.2266      14.7487        13.378073      16.6096      
       300   297.72459     -31906.093      41.377199      3270.6458      14.7487        13.351209      16.6096      
       400   271.28553     -31901.947     -13019.005      3264.065       14.7487        13.324346      16.6096      
       500   294.69815     -31921.028     -10925.252      3257.4843      14.7487        13.297482      16.6096      
       600   291.74785     -31912.791     -16318.916      3250.9035      14.7487        13.270618      16.6096      
       700   304.78598     -31894.149      4225.3578      3244.3227      14.7487        13.243755      16.6096      
       800   361.73041     -31929.05       225.50228      3237.7419      14.7487        13.216891      16.6096      
       900   295.79973     -31901.048      8206.747       3231.1612      14.7487        13.190028      16.6096      
      1000   313.93541     -31919.951      5410.7906      3224.5804      14.7487        13.163164      16.6096      
      1100   309.01554     -31918.927     -3769.5752      3217.9996      14.7487        13.1363        16.6096      
      1200   277.50281     -31909.117      8986.1939      3211.4188      14.7487        13.109437      16.6096      
      1300   279.85579     -31918.706      8257.3122      3204.8381      14.7487        13.082573      16.6096      
      1400   269.50229     -31936.044     -4093.3143      3198.2573      14.7487        13.05571       16.6096      
      1500   301.91397     -31965.631     -3879.5784      3191.6765      14.7487        13.028846      16.6096      
      1600   278.94157     -31924.019     -6019.0001      3185.0957      14.7487        13.001982      16.6096      
      1700   309.10798     -31922.992      9518.2391      3178.515       14.7487        12.975119      16.6096      
      1800   307.94113     -31921.861     -1940.4298      3171.9342      14.7487        12.948255      16.6096      
      1900   301.24415     -31918.708      11287.703      3165.3534      14.7487        12.921392      16.6096      
      2000   299.46613     -31937.101     -1402.6942      3158.7726      14.7487        12.894528      16.6096      
      2100   274.47913     -31942.461      13754.199      3152.1918      14.7487        12.867664      16.6096      
      2200   281.35242     -31939.668     -11740.567      3145.6111      14.7487        12.840801      16.6096      
      2300   288.88014     -31932.096      1654.8432      3139.0303      14.7487        12.813937      16.6096      
      2400   295.46531     -31918.532      7470.2884      3132.4495      14.7487        12.787074      16.6096      
      2500   320.42577     -31930.802      4168.2197      3125.8687      14.7487        12.76021       16.6096      
      2600   290.79168     -31916.368      9137.9995      3119.288       14.7487        12.733346      16.6096      
      2700   303.57895     -31932.515     -4610.2099      3112.7072      14.7487        12.706483      16.6096      
      2800   288.54361     -31920.245      21407.291      3106.1264      14.7487        12.679619      16.6096      
      2900   304.84185     -31923.538      6791.1762      3099.5456      14.7487        12.652756      16.6096      
      3000   297.36106     -31916.619     -5349.8875      3092.9649      14.7487        12.625892      16.6096      
      3100   275.72949     -31918.478      28157.878      3086.3841      14.7487        12.599028      16.6096      
      3200   268.00377     -31935.233      2792.4939      3079.8033      14.7487        12.572165      16.6096      
      3300   299.42006     -31942.121     -4036.0703      3073.2225      14.7487        12.545301      16.6096      
      3400   317.58376     -31930.551      1659.6265      3066.6418      14.7487        12.518438      16.6096      
      3500   301.7887      -31907.475      7640.5947      3060.061       14.7487        12.491574      16.6096      
      3600   322.16192     -31925.622     -2717.0443      3053.4802      14.7487        12.46471       16.6096      
      3700   287.26427     -31929.955      11149.88       3046.8994      14.7487        12.437847      16.6096      
      3800   281.25003     -31929.628     -5636.8567      3040.3186      14.7487        12.410983      16.6096      
      3900   296.33785     -31930.236      14703.527      3033.7379      14.7487        12.38412       16.6096      
      4000   336.18897     -31929.65       17645.827      3027.1571      14.7487        12.357256      16.6096      
      4100   322.17231     -31911.853      22491.319      3020.5763      14.7487        12.330392      16.6096      
      4200   271.60561     -31885.897      12970.278      3013.9955      14.7487        12.303529      16.6096      
      4300   300.13886     -31913.497      15311.574      3007.4148      14.7487        12.276665      16.6096      
      4400   271.51636     -31895.597      4344.5308      3000.834       14.7487        12.249802      16.6096      
      4500   299.26168     -31917.451      15356.907      2994.2532      14.7487        12.222938      16.6096      
      4600   277.93171     -31921.269      11241.796      2987.6724      14.7487        12.196074      16.6096      
      4700   297.3473      -31944.736      817.68697      2981.0917      14.7487        12.169211      16.6096      
      4800   276.05607     -31919.31      -2283.1959      2974.5109      14.7487        12.142347      16.6096      
      4900   305.32917     -31911.925      1489.4335      2967.9301      14.7487        12.115484      16.6096      
      5000   312.9236      -31907.305      11503.118      2961.3493      14.7487        12.08862       16.6096      
Loop time of 220.34 on 16 procs for 5000 steps with 271 atoms

Performance: 0.980 ns/day, 24.482 hours/ns, 22.692 timesteps/s, 6.150 katom-step/s
99.2% CPU use with 8 MPI tasks x 2 OpenMP threads

MPI task timing breakdown:
Section |  min time  |  avg time  |  max time  |%varavg| %total
---------------------------------------------------------------
Pair    | 157.62     | 165.51     | 172.74     |  39.4 | 75.12
Bond    | 0.001684   | 0.0019885  | 0.0022115  |   0.4 |  0.00
Neigh   | 12.635     | 13.07      | 13.649     |   7.9 |  5.93
Comm    | 13.867     | 21.114     | 28.938     | 111.1 |  9.58
Output  | 0.027555   | 0.030524   | 0.035955   |   1.5 |  0.01
Modify  | 18.953     | 19.594     | 20.239     |   7.8 |  8.89
Other   |            | 1.021      |            |       |  0.46

Nlocal:         33.875 ave          39 max          21 min
Histogram: 1 0 0 0 0 1 0 3 0 3
Nghost:        3044.88 ave        3125 max        2963 min
Histogram: 2 0 0 0 2 2 0 0 0 2
Neighs:        21759.6 ave       24753 max       13791 min
Histogram: 1 0 0 0 0 1 0 3 0 3

Total # of neighbors = 174077
Ave neighs/atom = 642.35055
Ave special neighs/atom = 0
Neighbor list builds = 500
Dangerous builds not checked
  using 2 OpenMP thread(s) per MPI task
Reading restart file ...
  restart file = 2 Aug 2023, LAMMPS = 2 Aug 2023
  restoring atom style full from restart
  triclinic box = (0 0 0) to (14.7487 13.4318 16.6096) with tilt (-6.1972 -1.0047 -1.8606)
  2 by 2 by 2 MPI processor grid
  pair style reaxff stores no restart info
  271 atoms
Finding 1-2 1-3 1-4 neighbors ...
  special bond factors lj:    0        0        0       
  special bond factors coul:  0        0        0       
     0 = max # of 1-2 neighbors
     0 = max # of 1-3 neighbors
     0 = max # of 1-4 neighbors
     1 = max # of special neighbors
  special bonds CPU = 0.000 seconds
  read_restart CPU = 0.004 seconds
*****Positive-deform 2 starts.*****
Resetting global fix info from restart file:
  fix style: nvt, fix ID: fnvt
All restart file global fix info was re-assigned
Neighbor list info ...
  update: every = 10 steps, delay = 0 steps, check = no
  max neighbors/atom: 2000, page size: 100000
  master list distance cutoff = 12
  ghost atom cutoff = 12
  binsize = 6, bins = 4 3 3
  2 neighbor lists, perpetual/occasional/extra = 2 0 0
  (1) pair reaxff, perpetual
      attributes: half, newton off, ghost
      pair build: half/bin/newtoff/ghost
      stencil: full/ghost/bin/3d
      bin: standard
  (2) fix qeq/reaxff, perpetual, copy from (1)
      attributes: half, newton off
      pair build: copy
      stencil: none
      bin: none
Setting up Verlet run ...
  Unit style    : real
  Current step  : 0
  Time step     : 0.5
Per MPI rank memory allocation (min/avg/max) = 107.9 | 109 | 110.4 Mbytes
   Step          Temp          PotEng         Press          Volume           Lx             Ly             Lz      
         0   316.45881     -31911.511      13486.486      3290.3881      14.7487        13.4318        16.6096      
       100   306.04035     -31898.145     -5088.9999      3296.9689      14.7487        13.458664      16.6096      
       200   314.1651      -31899.177     -8413.73        3303.5497      14.7487        13.485527      16.6096      
       300   305.59528     -31907.895      5175.9252      3310.1305      14.7487        13.512391      16.6096      
       400   273.49368     -31899.093     -10095.727      3316.7113      14.7487        13.539254      16.6096      
       500   283.63918     -31899.908     -11488.229      3323.292       14.7487        13.566118      16.6096      
       600   295.89355     -31883.237     -12539.849      3329.8728      14.7487        13.592982      16.6096      
       700   319.30383     -31867.904     -3549.5133      3336.4536      14.7487        13.619845      16.6096      
       800   346.89355     -31905.119     -2963.9461      3343.0344      14.7487        13.646709      16.6096      
       900   295.42422     -31886.115     -6115.5738      3349.6151      14.7487        13.673572      16.6096      
      1000   300.98841     -31897.781     -14682.7        3356.1959      14.7487        13.700436      16.6096      
      1100   316.91242     -31922.07       1706.8657      3362.7767      14.7487        13.7273        16.6096      
      1200   279.32589     -31913.049     -8082.0818      3369.3575      14.7487        13.754163      16.6096      
      1300   286.66334     -31922.108      5020.1283      3375.9382      14.7487        13.781027      16.6096      
      1400   298.1378      -31919.666     -10523.569      3382.519       14.7487        13.80789       16.6096      
      1500   303.67422     -31911.22      -16833.434      3389.0998      14.7487        13.834754      16.6096      
      1600   304.68651     -31896.971     -7144.6859      3395.6806      14.7487        13.861618      16.6096      
      1700   277.77971     -31875.463     -1589.047       3402.2613      14.7487        13.888481      16.6096      
      1800   300.29912     -31889.542      9290.3571      3408.8421      14.7487        13.915345      16.6096      
      1900   279.59218     -31869.128     -7660.7767      3415.4229      14.7487        13.942208      16.6096      
      2000   325.05647     -31896.607     -6576.047       3422.0037      14.7487        13.969072      16.6096      
      2100   293.9676      -31883.763     -10145.004      3428.5844      14.7487        13.995936      16.6096      
      2200   285.29947     -31895.616     -18825.052      3435.1652      14.7487        14.022799      16.6096      
      2300   301.15544     -31902.783     -4551.9553      3441.746       14.7487        14.049663      16.6096      
      2400   312.88929     -31905.521     -8664.7518      3448.3268      14.7487        14.076526      16.6096      
      2500   314.07588     -31889.031      1498.3418      3454.9076      14.7487        14.10339       16.6096      
      2600   328.17108     -31876.364      1892.9685      3461.4883      14.7487        14.130254      16.6096      
      2700   327.37006     -31887.362     -2709.471       3468.0691      14.7487        14.157117      16.6096      
      2800   283.61258     -31877.913     -7283.4154      3474.6499      14.7487        14.183981      16.6096      
      2900   288.83555     -31886.119     -9370.9712      3481.2307      14.7487        14.210844      16.6096      
      3000   304.62104     -31887.474     -4709.6334      3487.8114      14.7487        14.237708      16.6096      
      3100   329.94874     -31881.627     -15657.486      3494.3922      14.7487        14.264572      16.6096      
      3200   326.0562      -31863.644     -6553.3639      3500.973       14.7487        14.291435      16.6096      
      3300   302.67745     -31868.463     -12721.497      3507.5538      14.7487        14.318299      16.6096      
      3400   282.28277     -31872.855     -4586.0322      3514.1345      14.7487        14.345162      16.6096      
      3500   301.56135     -31883.379     -13635.013      3520.7153      14.7487        14.372026      16.6096      
      3600   290.72344     -31862.432     -10557.204      3527.2961      14.7487        14.39889       16.6096      
      3700   322.27124     -31860.175     -2084.58        3533.8769      14.7487        14.425753      16.6096      
      3800   316.43502     -31840.503      1127.6277      3540.4576      14.7487        14.452617      16.6096      
      3900   308.97605     -31861.323     -9251.0163      3547.0384      14.7487        14.47948       16.6096      
      4000   310.43169     -31878.277     -9095.3397      3553.6192      14.7487        14.506344      16.6096      
      4100   302.25942     -31870.073     -16169.71       3560.2         14.7487        14.533208      16.6096      
      4200   293.32686     -31856.45      -6578.8748      3566.7808      14.7487        14.560071      16.6096      
      4300   310.65796     -31847.693     -12911.346      3573.3615      14.7487        14.586935      16.6096      
      4400   301.98144     -31817.411      671.55641      3579.9423      14.7487        14.613798      16.6096      
      4500   339.27505     -31862.955     -17307.166      3586.5231      14.7487        14.640662      16.6096      
      4600   314.3504      -31863.926     -6509.384       3593.1039      14.7487        14.667526      16.6096      
      4700   303.35703     -31876.171     -16285.342      3599.6846      14.7487        14.694389      16.6096      
      4800   282.23838     -31865.226     -12058.735      3606.2654      14.7487        14.721253      16.6096      
      4900   299.76132     -31873.524     -7239.0451      3612.8462      14.7487        14.748116      16.6096      
      5000   305.17276     -31866.449     -12941.073      3619.427       14.7487        14.77498       16.6096      
Loop time of 191.085 on 16 procs for 5000 steps with 271 atoms

Performance: 1.130 ns/day, 21.232 hours/ns, 26.166 timesteps/s, 7.091 katom-step/s
99.2% CPU use with 8 MPI tasks x 2 OpenMP threads

MPI task timing breakdown:
Section |  min time  |  avg time  |  max time  |%varavg| %total
---------------------------------------------------------------
Pair    | 135.3      | 141.67     | 147.26     |  30.5 | 74.14
Bond    | 0.0017022  | 0.0019215  | 0.002279   |   0.4 |  0.00
Neigh   | 11.137     | 11.49      | 11.768     |   6.7 |  6.01
Comm    | 13.032     | 18.765     | 25.068     |  84.4 |  9.82
Output  | 0.026528   | 0.029558   | 0.034078   |   1.6 |  0.02
Modify  | 17.785     | 18.115     | 18.613     |   6.5 |  9.48
Other   |            | 1.016      |            |       |  0.53

Nlocal:         33.875 ave          40 max          22 min
Histogram: 1 0 0 0 1 1 0 1 2 2
Nghost:        2548.38 ave        2593 max        2509 min
Histogram: 2 0 1 0 2 0 1 0 1 1
Neighs:        17755.4 ave       20779 max       11820 min
Histogram: 1 0 0 0 1 1 0 1 2 2

Total # of neighbors = 142043
Ave neighs/atom = 524.14391
Ave special neighs/atom = 0
Neighbor list builds = 500
Dangerous builds not checked
  using 2 OpenMP thread(s) per MPI task
Reading restart file ...
  restart file = 2 Aug 2023, LAMMPS = 2 Aug 2023
  restoring atom style full from restart
  triclinic box = (0 0 0) to (14.7487 13.4318 16.6096) with tilt (-6.1972 -1.0047 -1.8606)
  2 by 2 by 2 MPI processor grid
  pair style reaxff stores no restart info
  271 atoms
Finding 1-2 1-3 1-4 neighbors ...
  special bond factors lj:    0        0        0       
  special bond factors coul:  0        0        0       
     0 = max # of 1-2 neighbors
     0 = max # of 1-3 neighbors
     0 = max # of 1-4 neighbors
     1 = max # of special neighbors
  special bonds CPU = 0.000 seconds
  read_restart CPU = 0.003 seconds
*****debug*****
xy = -6.1971999999999995978, deltaxy = 0.61972
xz = -1.0046999999999999265, deltaxz = 0.10047
yz = -1.8606000000000000316, deltayz = 0.18606
*****
*****Negative-deform 3 starts.*****
Resetting global fix info from restart file:
  fix style: nvt, fix ID: fnvt
All restart file global fix info was re-assigned
Neighbor list info ...
  update: every = 10 steps, delay = 0 steps, check = no
  max neighbors/atom: 2000, page size: 100000
  master list distance cutoff = 12
  ghost atom cutoff = 12
  binsize = 6, bins = 4 3 3
  2 neighbor lists, perpetual/occasional/extra = 2 0 0
  (1) pair reaxff, perpetual
      attributes: half, newton off, ghost
      pair build: half/bin/newtoff/ghost
      stencil: full/ghost/bin/3d
      bin: standard
  (2) fix qeq/reaxff, perpetual, copy from (1)
      attributes: half, newton off
      pair build: copy
      stencil: none
      bin: none
Setting up Verlet run ...
  Unit style    : real
  Current step  : 0
  Time step     : 0.5
Per MPI rank memory allocation (min/avg/max) = 107.9 | 109 | 110.3 Mbytes
   Step          Temp          PotEng         Press          Volume           Lx             Ly             Lz      
         0   316.45881     -31911.511      13486.486      3290.3881      14.7487        13.4318        16.6096      
       100   305.9618      -31897.959     -5427.9384      3283.8074      14.7487        13.4318        16.576381    
       200   307.82105     -31892.744      518.72241      3277.2266      14.7487        13.4318        16.543162    
       300   305.18032     -31908.704      12946.148      3270.6458      14.7487        13.4318        16.509942    
       400   287.82928     -31903.352     -1814.787       3264.065       14.7487        13.4318        16.476723    
       500   296.31569     -31909.804     -767.37189      3257.4843      14.7487        13.4318        16.443504    
       600   302.33955     -31912.784     -10658.018      3250.9035      14.7487        13.4318        16.410285    
       700   280.70835     -31894.283      6240.806       3244.3227      14.7487        13.4318        16.377066    
       800   298.99057     -31911.203     -1091.5232      3237.7419      14.7487        13.4318        16.343846    
       900   280.26537     -31908.16      -3737.4141      3231.1612      14.7487        13.4318        16.310627    
      1000   283.53378     -31900.241     -4597.952       3224.5804      14.7487        13.4318        16.277408    
      1100   312.12886     -31900.765     -4307.8666      3217.9996      14.7487        13.4318        16.244189    
      1200   331.31819     -31891.8        2373.4373      3211.4188      14.7487        13.4318        16.21097     
      1300   317.98184     -31897.221      10350.95       3204.8381      14.7487        13.4318        16.17775     
      1400   272.24686     -31882.761     -1655.6241      3198.2573      14.7487        13.4318        16.144531    
      1500   294.46048     -31903.957      2928.287       3191.6765      14.7487        13.4318        16.111312    
      1600   278.42106     -31900.296      1552.4896      3185.0957      14.7487        13.4318        16.078093    
      1700   293.10983     -31908.383      3627.9325      3178.515       14.7487        13.4318        16.044874    
      1800   289.89277     -31918.321      14319.448      3171.9342      14.7487        13.4318        16.011654    
      1900   279.07304     -31915.335      13133.976      3165.3534      14.7487        13.4318        15.978435    
      2000   279.43394     -31901.4       -3015.2648      3158.7726      14.7487        13.4318        15.945216    
      2100   317.7967      -31904.436      18598.87       3152.1918      14.7487        13.4318        15.911997    
      2200   321.76058     -31893.264      157.51436      3145.6111      14.7487        13.4318        15.878778    
      2300   305.80227     -31906.231      19070.937      3139.0303      14.7487        13.4318        15.845558    
      2400   298.189       -31901.467      3608.5396      3132.4495      14.7487        13.4318        15.812339    
      2500   324.28469     -31926.708      4247.5135      3125.8687      14.7487        13.4318        15.77912     
      2600   303.59387     -31918.34      -1739.784       3119.288       14.7487        13.4318        15.745901    
      2700   286.78056     -31910.595     -7307.8788      3112.7072      14.7487        13.4318        15.712682    
      2800   275.27144     -31924.18      -992.12314      3106.1264      14.7487        13.4318        15.679462    
      2900   274.69512     -31914.547      1212.8804      3099.5456      14.7487        13.4318        15.646243    
      3000   305.36235     -31907.059      4782.3949      3092.9649      14.7487        13.4318        15.613024    
      3100   322.1902      -31906.46       1922.0625      3086.3841      14.7487        13.4318        15.579805    
      3200   312.2247      -31901.926      27598.171      3079.8033      14.7487        13.4318        15.546586    
      3300   302.33607     -31903.197     -2312.9356      3073.2225      14.7487        13.4318        15.513366    
      3400   308.51709     -31904.484      18866.875      3066.6418      14.7487        13.4318        15.480147    
      3500   290.22841     -31892.256      9509.1945      3060.061       14.7487        13.4318        15.446928    
      3600   307.91569     -31907.52       13201.885      3053.4802      14.7487        13.4318        15.413709    
      3700   289.13221     -31905.145     -6102.1058      3046.8994      14.7487        13.4318        15.38049     
      3800   289.33114     -31917.705      11717.366      3040.3186      14.7487        13.4318        15.34727     
      3900   279.55356     -31892.186      11708.921      3033.7379      14.7487        13.4318        15.314051    
      4000   308.21008     -31908.596      6079.5335      3027.1571      14.7487        13.4318        15.280832    
      4100   277.2669      -31898.287      17592.904      3020.5763      14.7487        13.4318        15.247613    
      4200   284.74624     -31907.636      8542.2829      3013.9955      14.7487        13.4318        15.214394    
      4300   306.3756      -31902.517      6523.0141      3007.4148      14.7487        13.4318        15.181174    
      4400   326.86202     -31887.362      9592.8464      3000.834       14.7487        13.4318        15.147955    
      4500   300.26715     -31862.857      14951.806      2994.2532      14.7487        13.4318        15.114736    
      4600   301.83279     -31893.256      9587.9046      2987.6724      14.7487        13.4318        15.081517    
      4700   278.54145     -31880.331      5285.8912      2981.0917      14.7487        13.4318        15.048298    
      4800   300.4504      -31889.845      29872.253      2974.5109      14.7487        13.4318        15.015078    
      4900   318.25412     -31907.513      12582.453      2967.9301      14.7487        13.4318        14.981859    
      5000   315.74464     -31903.808      4415.8942      2961.3493      14.7487        13.4318        14.94864     
Loop time of 215.82 on 16 procs for 5000 steps with 271 atoms

Performance: 1.001 ns/day, 23.980 hours/ns, 23.167 timesteps/s, 6.278 katom-step/s
99.3% CPU use with 8 MPI tasks x 2 OpenMP threads

MPI task timing breakdown:
Section |  min time  |  avg time  |  max time  |%varavg| %total
---------------------------------------------------------------
Pair    | 155.1      | 161.88     | 166.22     |  29.2 | 75.01
Bond    | 0.0017406  | 0.001954   | 0.0021248  |   0.2 |  0.00
Neigh   | 12.46      | 12.743     | 13.356     |   7.4 |  5.90
Comm    | 16.454     | 20.869     | 27.585     |  82.3 |  9.67
Output  | 0.027268   | 0.031909   | 0.037995   |   1.9 |  0.01
Modify  | 18.616     | 19.387     | 19.708     |   7.1 |  8.98
Other   |            | 0.9084     |            |       |  0.42

Nlocal:         33.875 ave          39 max          26 min
Histogram: 1 0 0 0 1 1 2 2 0 1
Nghost:        2970.38 ave        3025 max        2911 min
Histogram: 1 0 1 0 2 1 1 0 1 1
Neighs:        21768.5 ave       24720 max       16936 min
Histogram: 1 0 0 0 1 1 1 2 1 1

Total # of neighbors = 174148
Ave neighs/atom = 642.61255
Ave special neighs/atom = 0
Neighbor list builds = 500
Dangerous builds not checked
  using 2 OpenMP thread(s) per MPI task
Reading restart file ...
  restart file = 2 Aug 2023, LAMMPS = 2 Aug 2023
  restoring atom style full from restart
  triclinic box = (0 0 0) to (14.7487 13.4318 16.6096) with tilt (-6.1972 -1.0047 -1.8606)
  2 by 2 by 2 MPI processor grid
  pair style reaxff stores no restart info
  271 atoms
Finding 1-2 1-3 1-4 neighbors ...
  special bond factors lj:    0        0        0       
  special bond factors coul:  0        0        0       
     0 = max # of 1-2 neighbors
     0 = max # of 1-3 neighbors
     0 = max # of 1-4 neighbors
     1 = max # of special neighbors
  special bonds CPU = 0.001 seconds
  read_restart CPU = 0.007 seconds
*****Positive-deform 3 starts.*****
Resetting global fix info from restart file:
  fix style: nvt, fix ID: fnvt
All restart file global fix info was re-assigned
Neighbor list info ...
  update: every = 10 steps, delay = 0 steps, check = no
  max neighbors/atom: 2000, page size: 100000
  master list distance cutoff = 12
  ghost atom cutoff = 12
  binsize = 6, bins = 4 3 3
  2 neighbor lists, perpetual/occasional/extra = 2 0 0
  (1) pair reaxff, perpetual
      attributes: half, newton off, ghost
      pair build: half/bin/newtoff/ghost
      stencil: full/ghost/bin/3d
      bin: standard
  (2) fix qeq/reaxff, perpetual, copy from (1)
      attributes: half, newton off
      pair build: copy
      stencil: none
      bin: none
Setting up Verlet run ...
  Unit style    : real
  Current step  : 0
  Time step     : 0.5
Per MPI rank memory allocation (min/avg/max) = 107.9 | 109 | 110.3 Mbytes
   Step          Temp          PotEng         Press          Volume           Lx             Ly             Lz      
         0   316.45881     -31911.511      13486.486      3290.3881      14.7487        13.4318        16.6096      
       100   305.93366     -31898.165     -5291.4738      3296.9689      14.7487        13.4318        16.642819    
       200   309.0454      -31894.766     -12534.095      3303.5497      14.7487        13.4318        16.676038    
       300   300.86883     -31900.709      14700.435      3310.1305      14.7487        13.4318        16.709258    
       400   288.09773     -31906.39      -8098.7374      3316.7113      14.7487        13.4318        16.742477    
       500   294.10383     -31903.306     -14398.703      3323.292       14.7487        13.4318        16.775696    
       600   287.88302     -31890.48      -32829.988      3329.8728      14.7487        13.4318        16.808915    
       700   283.28226     -31891.835     -16700.865      3336.4536      14.7487        13.4318        16.842134    
       800   304.49927     -31922.349      512.70601      3343.0344      14.7487        13.4318        16.875354    
       900   293.91423     -31915.782     -242.37993      3349.6151      14.7487        13.4318        16.908573    
      1000   311.86327     -31910.312     -6118.2036      3356.1959      14.7487        13.4318        16.941792    
      1100   314.45045     -31872.038     -14792.308      3362.7767      14.7487        13.4318        16.975011    
      1200   312.34142     -31871.472     -11118.279      3369.3575      14.7487        13.4318        17.00823     
      1300   327.72013     -31904.112      3396.1399      3375.9382      14.7487        13.4318        17.04145     
      1400   300.47493     -31900.266     -9274.5009      3382.519       14.7487        13.4318        17.074669    
      1500   304.62356     -31912.386     -7819.0474      3389.0998      14.7487        13.4318        17.107888    
      1600   301.39941     -31914.81      -12892.146      3395.6806      14.7487        13.4318        17.141107    
      1700   276.84173     -31901.016     -866.38959      3402.2613      14.7487        13.4318        17.174326    
      1800   270.72065     -31884.687     -9363.2712      3408.8421      14.7487        13.4318        17.207546    
      1900   314.09861     -31878.122     -12788.048      3415.4229      14.7487        13.4318        17.240765    
      2000   343.53695     -31889.325     -5327.8684      3422.0037      14.7487        13.4318        17.273984    
      2100   297.33201     -31871.067     -1169.6173      3428.5844      14.7487        13.4318        17.307203    
      2200   302.55776     -31893.682      1621.3531      3435.1652      14.7487        13.4318        17.340422    
      2300   286.84336     -31880.852     -9153.5368      3441.746       14.7487        13.4318        17.373642    
      2400   314.96024     -31898.314     -14815.089      3448.3268      14.7487        13.4318        17.406861    
      2500   310.62039     -31882.671     -8204.8817      3454.9076      14.7487        13.4318        17.44008     
      2600   295.13243     -31886.075     -3979.5657      3461.4883      14.7487        13.4318        17.473299    
      2700   312.34773     -31911.051     -13405.781      3468.0691      14.7487        13.4318        17.506518    
      2800   304.4739      -31902.023     -15677.337      3474.6499      14.7487        13.4318        17.539738    
      2900   311.34227     -31878.069     -13402.8        3481.2307      14.7487        13.4318        17.572957    
      3000   321.44334     -31863.826     -2355.9896      3487.8114      14.7487        13.4318        17.606176    
      3100   301.98148     -31873.093     -15215.853      3494.3922      14.7487        13.4318        17.639395    
      3200   294.55966     -31884.524     -14131.361      3500.973       14.7487        13.4318        17.672614    
      3300   314.97907     -31901.99       1132.9263      3507.5538      14.7487        13.4318        17.705834    
      3400   301.03123     -31903.929     -143.04762      3514.1345      14.7487        13.4318        17.739053    
      3500   300.66524     -31897.931     -16354.845      3520.7153      14.7487        13.4318        17.772272    
      3600   320.34337     -31876.601     -10524.052      3527.2961      14.7487        13.4318        17.805491    
      3700   319.82944     -31871.861     -14176.957      3533.8769      14.7487        13.4318        17.83871     
      3800   315.018       -31881.626     -11746.933      3540.4576      14.7487        13.4318        17.87193     
      3900   311.63999     -31887.606     -8895.4529      3547.0384      14.7487        13.4318        17.905149    
      4000   296.53119     -31887.404     -13637.331      3553.6192      14.7487        13.4318        17.938368    
      4100   295.37242     -31897.254     -6165.9282      3560.2         14.7487        13.4318        17.971587    
      4200   302.84162     -31904.664     -9114.9144      3566.7808      14.7487        13.4318        18.004806    
      4300   281.00455     -31884.202     -13594.702      3573.3615      14.7487        13.4318        18.038026    
      4400   298.73409     -31893.169     -6716.6016      3579.9423      14.7487        13.4318        18.071245    
      4500   300.85314     -31881.423     -17068.374      3586.5231      14.7487        13.4318        18.104464    
      4600   307.6808      -31868.695     -19422.898      3593.1039      14.7487        13.4318        18.137683    
      4700   297.88058     -31882.959     -15220.565      3599.6846      14.7487        13.4318        18.170902    
      4800   293.0124      -31883.002     -11514.507      3606.2654      14.7487        13.4318        18.204122    
      4900   310.20768     -31882.564     -15500.912      3612.8462      14.7487        13.4318        18.237341    
      5000   326.66527     -31875.496     -10517.596      3619.427       14.7487        13.4318        18.27056     
Loop time of 193.694 on 16 procs for 5000 steps with 271 atoms

Performance: 1.115 ns/day, 21.522 hours/ns, 25.814 timesteps/s, 6.996 katom-step/s
99.1% CPU use with 8 MPI tasks x 2 OpenMP threads

MPI task timing breakdown:
Section |  min time  |  avg time  |  max time  |%varavg| %total
---------------------------------------------------------------
Pair    | 138.47     | 143.3      | 148.83     |  30.0 | 73.98
Bond    | 0.0017541  | 0.001938   | 0.0023153  |   0.4 |  0.00
Neigh   | 10.975     | 11.377     | 11.826     |   7.4 |  5.87
Comm    | 13.665     | 19.254     | 24.183     |  83.0 |  9.94
Output  | 0.031885   | 0.036333   | 0.042878   |   2.0 |  0.02
Modify  | 18.263     | 18.762     | 19.265     |   7.5 |  9.69
Other   |            | 0.9624     |            |       |  0.50

Nlocal:         33.875 ave          42 max          16 min
Histogram: 1 0 0 0 0 1 1 2 2 1
Nghost:         2602.5 ave        2690 max        2489 min
Histogram: 1 0 1 1 0 0 2 1 1 1
Neighs:        17759.8 ave       22126 max        8556 min
Histogram: 1 0 0 0 0 1 1 2 2 1

Total # of neighbors = 142078
Ave neighs/atom = 524.27306
Ave special neighs/atom = 0
Neighbor list builds = 500
Dangerous builds not checked
  using 2 OpenMP thread(s) per MPI task
Reading restart file ...
  restart file = 2 Aug 2023, LAMMPS = 2 Aug 2023
  restoring atom style full from restart
  triclinic box = (0 0 0) to (14.7487 13.4318 16.6096) with tilt (-6.1972 -1.0047 -1.8606)
  2 by 2 by 2 MPI processor grid
  pair style reaxff stores no restart info
  271 atoms
Finding 1-2 1-3 1-4 neighbors ...
  special bond factors lj:    0        0        0       
  special bond factors coul:  0        0        0       
     0 = max # of 1-2 neighbors
     0 = max # of 1-3 neighbors
     0 = max # of 1-4 neighbors
     1 = max # of special neighbors
  special bonds CPU = 0.001 seconds
  read_restart CPU = 0.006 seconds
*****debug*****
xy = -6.1971999999999995978, deltaxy = 0.61972
xz = -1.0046999999999999265, deltaxz = 0.10047
yz = -1.8606000000000000316, deltayz = 0.18606
*****
*****Negative-deform 4 starts.*****
Resetting global fix info from restart file:
  fix style: nvt, fix ID: fnvt
All restart file global fix info was re-assigned
Neighbor list info ...
  update: every = 10 steps, delay = 0 steps, check = no
  max neighbors/atom: 2000, page size: 100000
  master list distance cutoff = 12
  ghost atom cutoff = 12
  binsize = 6, bins = 4 3 3
  2 neighbor lists, perpetual/occasional/extra = 2 0 0
  (1) pair reaxff, perpetual
      attributes: half, newton off, ghost
      pair build: half/bin/newtoff/ghost
      stencil: full/ghost/bin/3d
      bin: standard
  (2) fix qeq/reaxff, perpetual, copy from (1)
      attributes: half, newton off
      pair build: copy
      stencil: none
      bin: none
Setting up Verlet run ...
  Unit style    : real
  Current step  : 0
  Time step     : 0.5
Per MPI rank memory allocation (min/avg/max) = 107.9 | 109 | 110.3 Mbytes
   Step          Temp          PotEng         Press          Volume           Lx             Ly             Lz      
         0   316.45881     -31911.511      13486.486      3290.3881      14.7487        13.4318        16.6096      
       100   305.95169     -31898.012     -5272.1001      3290.3881      14.7487        13.4318        16.6096      
       200   307.838       -31895.059     -3597.5935      3290.3881      14.7487        13.4318        16.6096      
       300   297.62518     -31903.471      9306.3701      3290.3881      14.7487        13.4318        16.6096      
       400   277.9117      -31904.221     -12236.381      3290.3881      14.7487        13.4318        16.6096      
       500   294.50964     -31916.936     -2741.9656      3290.3881      14.7487        13.4318        16.6096      
       600   295.01537     -31892.288     -7924.3095      3290.3881      14.7487        13.4318        16.6096      
       700   312.05322     -31876.116     -16843.739      3290.3881      14.7487        13.4318        16.6096      
       800   338.12865     -31908.429     -402.42711      3290.3881      14.7487        13.4318        16.6096      
       900   302.73948     -31901.227      10346.473      3290.3881      14.7487        13.4318        16.6096      
      1000   293.59598     -31896.315      6518.523       3290.3881      14.7487        13.4318        16.6096      
      1100   314.98163     -31909.239     -14303.765      3290.3881      14.7487        13.4318        16.6096      
      1200   277.00577     -31898.541      17996.215      3290.3881      14.7487        13.4318        16.6096      
      1300   276.28006     -31910.478      3326.086       3290.3881      14.7487        13.4318        16.6096      
      1400   303.00173     -31918.402     -11302.786      3290.3881      14.7487        13.4318        16.6096      
      1500   287.87401     -31892.581     -12810.005      3290.3881      14.7487        13.4318        16.6096      
      1600   315.79279     -31913.213      4320.6057      3290.3881      14.7487        13.4318        16.6096      
      1700   288.39378     -31910.231     -8615.5506      3290.3881      14.7487        13.4318        16.6096      
      1800   282.43479     -31912.335      3950.3243      3290.3881      14.7487        13.4318        16.6096      
      1900   300.58472     -31924.649     -6308.2052      3290.3881      14.7487        13.4318        16.6096      
      2000   293.63089     -31914.674      2054.735       3290.3881      14.7487        13.4318        16.6096      
      2100   327.56914     -31899.67      -1357.0087      3290.3881      14.7487        13.4318        16.6096      
      2200   330.12202     -31897.119      7181.3893      3290.3881      14.7487        13.4318        16.6096      
      2300   294.85848     -31895.807     -6795.2355      3290.3881      14.7487        13.4318        16.6096      
      2400   293.34557     -31908.557     -6435.7139      3290.3881      14.7487        13.4318        16.6096      
      2500   278.62301     -31895.346     -12040.05       3290.3881      14.7487        13.4318        16.6096      
      2600   309.50105     -31912.222     -4579.2786      3290.3881      14.7487        13.4318        16.6096      
      2700   296.38304     -31910.449      10896.728      3290.3881      14.7487        13.4318        16.6096      
      2800   297.42017     -31933.164      4916.9878      3290.3881      14.7487        13.4318        16.6096      
      2900   275.43758     -31915.13      -16877.726      3290.3881      14.7487        13.4318        16.6096      
      3000   298.53432     -31906.883     -10361.454      3290.3881      14.7487        13.4318        16.6096      
      3100   300.03273     -31894.536     -20643.982      3290.3881      14.7487        13.4318        16.6096      
      3200   313.09915     -31906.228     -10742.476      3290.3881      14.7487        13.4318        16.6096      
      3300   291.98165     -31898.397     -8772.3449      3290.3881      14.7487        13.4318        16.6096      
      3400   296.01326     -31910.044     -1839.5785      3290.3881      14.7487        13.4318        16.6096      
      3500   281.97012     -31920.228     -5652.2359      3290.3881      14.7487        13.4318        16.6096      
      3600   287.70643     -31932.181     -4316.4937      3290.3881      14.7487        13.4318        16.6096      
      3700   289.05542     -31900.099      8556.5152      3290.3881      14.7487        13.4318        16.6096      
      3800   317.60305     -31905.251      3679.4956      3290.3881      14.7487        13.4318        16.6096      
      3900   313.07215     -31899.479      2910.7349      3290.3881      14.7487        13.4318        16.6096      
      4000   305.67375     -31911.313     -7198.9285      3290.3881      14.7487        13.4318        16.6096      
      4100   303.18896     -31924.728     -7971.1687      3290.3881      14.7487        13.4318        16.6096      
      4200   279.42543     -31900.463      6495.0531      3290.3881      14.7487        13.4318        16.6096      
      4300   296.46012     -31900.852     -6127.188       3290.3881      14.7487        13.4318        16.6096      
      4400   301.14316     -31895.441      4564.3426      3290.3881      14.7487        13.4318        16.6096      
      4500   286.74819     -31883.342      1843.9676      3290.3881      14.7487        13.4318        16.6096      
      4600   295.53552     -31905.097     -6493.9791      3290.3881      14.7487        13.4318        16.6096      
      4700   271.64946     -31908.196     -2379.3141      3290.3881      14.7487        13.4318        16.6096      
      4800   288.67535     -31913.868     -1909.9848      3290.3881      14.7487        13.4318        16.6096      
      4900   300.13869     -31901.364      8663.0616      3290.3881      14.7487        13.4318        16.6096      
      5000   304.09958     -31893.85      -7574.7131      3290.3881      14.7487        13.4318        16.6096      
Loop time of 203.488 on 16 procs for 5000 steps with 271 atoms

Performance: 1.061 ns/day, 22.610 hours/ns, 24.571 timesteps/s, 6.659 katom-step/s
99.2% CPU use with 8 MPI tasks x 2 OpenMP threads

MPI task timing breakdown:
Section |  min time  |  avg time  |  max time  |%varavg| %total
---------------------------------------------------------------
Pair    | 147.1      | 151.9      | 156.67     |  29.0 | 74.65
Bond    | 0.0017384  | 0.0019303  | 0.0021684  |   0.3 |  0.00
Neigh   | 12.242     | 12.467     | 12.83      |   5.2 |  6.13
Comm    | 14.572     | 19.348     | 24.271     |  80.9 |  9.51
Output  | 0.030127   | 0.033457   | 0.03904    |   1.7 |  0.02
Modify  | 18.531     | 18.86      | 19.197     |   4.6 |  9.27
Other   |            | 0.8755     |            |       |  0.43

Nlocal:         33.875 ave          40 max          21 min
Histogram: 1 0 0 0 1 0 0 4 0 2
Nghost:        2787.88 ave        2845 max        2732 min
Histogram: 1 1 0 2 1 1 0 0 0 2
Neighs:        19544.4 ave       22738 max       12350 min
Histogram: 1 0 0 0 0 1 0 3 1 2

Total # of neighbors = 156355
Ave neighs/atom = 576.95572
Ave special neighs/atom = 0
Neighbor list builds = 500
Dangerous builds not checked
  using 2 OpenMP thread(s) per MPI task
Reading restart file ...
  restart file = 2 Aug 2023, LAMMPS = 2 Aug 2023
  restoring atom style full from restart
  triclinic box = (0 0 0) to (14.7487 13.4318 16.6096) with tilt (-6.1972 -1.0047 -1.8606)
  2 by 2 by 2 MPI processor grid
  pair style reaxff stores no restart info
  271 atoms
Finding 1-2 1-3 1-4 neighbors ...
  special bond factors lj:    0        0        0       
  special bond factors coul:  0        0        0       
     0 = max # of 1-2 neighbors
     0 = max # of 1-3 neighbors
     0 = max # of 1-4 neighbors
     1 = max # of special neighbors
  special bonds CPU = 0.000 seconds
  read_restart CPU = 0.004 seconds
*****Positive-deform 4 starts.*****
Resetting global fix info from restart file:
  fix style: nvt, fix ID: fnvt
All restart file global fix info was re-assigned
Neighbor list info ...
  update: every = 10 steps, delay = 0 steps, check = no
  max neighbors/atom: 2000, page size: 100000
  master list distance cutoff = 12
  ghost atom cutoff = 12
  binsize = 6, bins = 4 3 3
  2 neighbor lists, perpetual/occasional/extra = 2 0 0
  (1) pair reaxff, perpetual
      attributes: half, newton off, ghost
      pair build: half/bin/newtoff/ghost
      stencil: full/ghost/bin/3d
      bin: standard
  (2) fix qeq/reaxff, perpetual, copy from (1)
      attributes: half, newton off
      pair build: copy
      stencil: none
      bin: none
Setting up Verlet run ...
  Unit style    : real
  Current step  : 0
  Time step     : 0.5
Per MPI rank memory allocation (min/avg/max) = 107.9 | 109 | 110.4 Mbytes
   Step          Temp          PotEng         Press          Volume           Lx             Ly             Lz      
         0   316.45881     -31911.511      13486.486      3290.3881      14.7487        13.4318        16.6096      
       100   305.95203     -31898.029     -5307.8921      3290.3881      14.7487        13.4318        16.6096      
       200   308.26959     -31895.672     -12778.765      3290.3881      14.7487        13.4318        16.6096      
       300   308.09068     -31910.224      3470.9343      3290.3881      14.7487        13.4318        16.6096      
       400   267.53913     -31895.974     -8687.182       3290.3881      14.7487        13.4318        16.6096      
       500   285.28825     -31906.234     -11302.081      3290.3881      14.7487        13.4318        16.6096      
       600   292.61444     -31896.738     -14430.581      3290.3881      14.7487        13.4318        16.6096      
       700   307.8339      -31874.905     -7741.2199      3290.3881      14.7487        13.4318        16.6096      
       800   334.42463     -31900.209      2982.8636      3290.3881      14.7487        13.4318        16.6096      
       900   296.71824     -31893.497      3486.5871      3290.3881      14.7487        13.4318        16.6096      
      1000   288.06958     -31892.013     -1281.5673      3290.3881      14.7487        13.4318        16.6096      
      1100   305.85826     -31910.091     -2918.0672      3290.3881      14.7487        13.4318        16.6096      
      1200   307.49758     -31916.708     -9218.6254      3290.3881      14.7487        13.4318        16.6096      
      1300   305.5574      -31916.179      4388.7415      3290.3881      14.7487        13.4318        16.6096      
      1400   303.78508     -31925.244      14771.884      3290.3881      14.7487        13.4318        16.6096      
      1500   296.18691     -31936.607     -3931.9941      3290.3881      14.7487        13.4318        16.6096      
      1600   266.11286     -31913.101      8613.0929      3290.3881      14.7487        13.4318        16.6096      
      1700   313.23025     -31920.74      -4584.8712      3290.3881      14.7487        13.4318        16.6096      
      1800   317.89901     -31909.521      5005.6264      3290.3881      14.7487        13.4318        16.6096      
      1900   290.7041      -31894.434     -7202.4965      3290.3881      14.7487        13.4318        16.6096      
      2000   310.46184     -31916.078     -4713.3304      3290.3881      14.7487        13.4318        16.6096      
      2100   279.67407     -31909.061      10439.128      3290.3881      14.7487        13.4318        16.6096      
      2200   247.15686     -31903.976      2246.7559      3290.3881      14.7487        13.4318        16.6096      
      2300   282.5271      -31919.162      3377.2075      3290.3881      14.7487        13.4318        16.6096      
      2400   280.42128     -31909.62      -10371.285      3290.3881      14.7487        13.4318        16.6096      
      2500   307.13502     -31914.693      648.47809      3290.3881      14.7487        13.4318        16.6096      
      2600   304.99476     -31904.433      2637.3038      3290.3881      14.7487        13.4318        16.6096      
      2700   300.49843     -31902.542     -6919.2641      3290.3881      14.7487        13.4318        16.6096      
      2800   284.83475     -31909.201     -6819.988       3290.3881      14.7487        13.4318        16.6096      
      2900   278.82301     -31917.818      11819.789      3290.3881      14.7487        13.4318        16.6096      
      3000   279.82278     -31909.829     -10423.866      3290.3881      14.7487        13.4318        16.6096      
      3100   306.90241     -31910.512     -14905.283      3290.3881      14.7487        13.4318        16.6096      
      3200   318.63119     -31890.923      2382.3595      3290.3881      14.7487        13.4318        16.6096      
      3300   292.90769     -31878.119     -3056.9498      3290.3881      14.7487        13.4318        16.6096      
      3400   314.03586     -31926.656      1726.4628      3290.3881      14.7487        13.4318        16.6096      
      3500   311.67929     -31928.531     -4535.3321      3290.3881      14.7487        13.4318        16.6096      
      3600   265.00943     -31891.099     -3533.9917      3290.3881      14.7487        13.4318        16.6096      
      3700   297.26498     -31895.711     -4080.288       3290.3881      14.7487        13.4318        16.6096      
      3800   334.46761     -31907.969     -1821.3818      3290.3881      14.7487        13.4318        16.6096      
      3900   313.84273     -31902.058      4275.4271      3290.3881      14.7487        13.4318        16.6096      
      4000   291.6775      -31913.089      755.42582      3290.3881      14.7487        13.4318        16.6096      
      4100   298.79965     -31915.744      6565.8871      3290.3881      14.7487        13.4318        16.6096      
      4200   298.10906     -31906.812     -9194.5843      3290.3881      14.7487        13.4318        16.6096      
      4300   327.67953     -31912.53      -11010.361      3290.3881      14.7487        13.4318        16.6096      
[...]
      4400   296.34585     -31904.674      7862.649       3290.3881      14.7487        13.4318        16.6096      
      4500   293.26075     -31909.105     -5263.1078      3290.3881      14.7487        13.4318        16.6096      
      4600   280.57757     -31907.004     -2024.2173      3290.3881      14.7487        13.4318        16.6096      
      4700   288.09001     -31906.196     -1436.5297      3290.3881      14.7487        13.4318        16.6096      
      4800   321.26572     -31901.982     -6732.6946      3290.3881      14.7487        13.4318        16.6096      
      4900   304.39647     -31882.718     -6768.7506      3290.3881      14.7487        13.4318        16.6096      
      5000   308.8319      -31894.408      1007.2021      3290.3881      14.7487        13.4318        16.6096      
Loop time of 203.196 on 16 procs for 5000 steps with 271 atoms

Performance: 1.063 ns/day, 22.577 hours/ns, 24.607 timesteps/s, 6.668 katom-step/s
99.3% CPU use with 8 MPI tasks x 2 OpenMP threads

MPI task timing breakdown:
Section |  min time  |  avg time  |  max time  |%varavg| %total
---------------------------------------------------------------
Pair    | 148.05     | 152.42     | 158.18     |  28.6 | 75.01
Bond    | 0.0017408  | 0.001987   | 0.0022936  |   0.3 |  0.00
Neigh   | 11.584     | 12.016     | 12.255     |   5.4 |  5.91
Comm    | 13.465     | 19.241     | 23.554     |  80.5 |  9.47
Output  | 0.030706   | 0.035663   | 0.042549   |   2.2 |  0.02
Modify  | 18.396     | 18.666     | 19.179     |   5.1 |  9.19
Other   |            | 0.8121     |            |       |  0.40

Nlocal:         33.875 ave          38 max          20 min
Histogram: 1 0 0 0 0 0 0 0 5 2
Nghost:        2769.25 ave        2825 max        2704 min
Histogram: 1 0 0 2 0 1 1 2 0 1
Neighs:        19559.9 ave       21923 max       11725 min
Histogram: 1 0 0 0 0 0 0 0 5 2

Total # of neighbors = 156479
Ave neighs/atom = 577.41328
Ave special neighs/atom = 0
Neighbor list builds = 500
Dangerous builds not checked
  using 2 OpenMP thread(s) per MPI task
Reading restart file ...
  restart file = 2 Aug 2023, LAMMPS = 2 Aug 2023
  restoring atom style full from restart
  triclinic box = (0 0 0) to (14.7487 13.4318 16.6096) with tilt (-6.1972 -1.0047 -1.8606)
  2 by 2 by 2 MPI processor grid
  pair style reaxff stores no restart info
  271 atoms
Finding 1-2 1-3 1-4 neighbors ...
  special bond factors lj:    0        0        0       
  special bond factors coul:  0        0        0       
     0 = max # of 1-2 neighbors
     0 = max # of 1-3 neighbors
     0 = max # of 1-4 neighbors
     1 = max # of special neighbors
  special bonds CPU = 0.000 seconds
  read_restart CPU = 0.003 seconds
*****debug*****
xy = -6.1971999999999995978, deltaxy = 0.61972
xz = -1.0046999999999999265, deltaxz = 0.10047
yz = -1.8606000000000000316, deltayz = 0.18606
*****
*****Negative-deform 6 starts.*****
Resetting global fix info from restart file:
  fix style: nvt, fix ID: fnvt
All restart file global fix info was re-assigned
Neighbor list info ...
  update: every = 10 steps, delay = 0 steps, check = no
  max neighbors/atom: 2000, page size: 100000
  master list distance cutoff = 12
  ghost atom cutoff = 12
  binsize = 6, bins = 4 3 3
  2 neighbor lists, perpetual/occasional/extra = 2 0 0
  (1) pair reaxff, perpetual
      attributes: half, newton off, ghost
      pair build: half/bin/newtoff/ghost
      stencil: full/ghost/bin/3d
      bin: standard
  (2) fix qeq/reaxff, perpetual, copy from (1)
      attributes: half, newton off
      pair build: copy
      stencil: none
      bin: none
Setting up Verlet run ...
  Unit style    : real
  Current step  : 0
  Time step     : 0.5
Per MPI rank memory allocation (min/avg/max) = 107.9 | 109 | 110.3 Mbytes
   Step          Temp          PotEng         Press          Volume           Lx             Ly             Lz      
         0   316.45881     -31911.511      13486.486      3290.3881      14.7487        13.4318        16.6096      
       100   306.21754     -31898.212     -4394.3975      3290.3881      14.7487        13.4318        16.6096      
       200   311.28771     -31900.197     -10559.791      3290.3881      14.7487        13.4318        16.6096      
       300   308.80838     -31909.284      3788.0168      3290.3881      14.7487        13.4318        16.6096      
       400   273.7398      -31900.495     -189.61122      3290.3881      14.7487        13.4318        16.6096      
       500   293.02421     -31917.841     -16896.442      3290.3881      14.7487        13.4318        16.6096      
       600   293.92678     -31904.02      -11848.1        3290.3881      14.7487        13.4318        16.6096      
       700   322.32734     -31892.806     -10322.422      3290.3881      14.7487        13.4318        16.6096      
       800   345.0021      -31916.159      3110.8465      3290.3881      14.7487        13.4318        16.6096      
       900   307.27337     -31910.14      -6073.8069      3290.3881      14.7487        13.4318        16.6096      
      1000   298.49276     -31910.738     -24987.518      3290.3881      14.7487        13.4318        16.6096      
      1100   292.27975     -31905.473      5205.2521      3290.3881      14.7487        13.4318        16.6096      
      1200   300.31624     -31907.371      929.11891      3290.3881      14.7487        13.4318        16.6096      
      1300   299.34172     -31900.227      10548.442      3290.3881      14.7487        13.4318        16.6096      
      1400   291.81881     -31881.685     -5711.3427      3290.3881      14.7487        13.4318        16.6096      
      1500   310.56515     -31907.242      6537.285       3290.3881      14.7487        13.4318        16.6096      
      1600   305.50262     -31923.321      581.269        3290.3881      14.7487        13.4318        16.6096      
      1700   296.6257      -31927.353      3607.2295      3290.3881      14.7487        13.4318        16.6096      
      1800   295.23685     -31919.001     -511.19049      3290.3881      14.7487        13.4318        16.6096      
      1900   313.84996     -31919.034     -15452.042      3290.3881      14.7487        13.4318        16.6096      
      2000   306.72532     -31881.008     -9155.2321      3290.3881      14.7487        13.4318        16.6096      
      2100   313.7108      -31870.349      858.8817       3290.3881      14.7487        13.4318        16.6096      
      2200   320.47733     -31898.75      -10341.013      3290.3881      14.7487        13.4318        16.6096      
      2300   305.61066     -31909.082     -4269.5286      3290.3881      14.7487        13.4318        16.6096      
      2400   298.77303     -31918.095      1520.7192      3290.3881      14.7487        13.4318        16.6096      
      2500   278.73311     -31905.248     -19195.262      3290.3881      14.7487        13.4318        16.6096      
      2600   299.98816     -31897.98      -2097.1487      3290.3881      14.7487        13.4318        16.6096      
      2700   323.15635     -31898.977     -9820.0548      3290.3881      14.7487        13.4318        16.6096      
      2800   295.25895     -31889.951     -4548.3513      3290.3881      14.7487        13.4318        16.6096      
      2900   283.47849     -31916.519      1172.1742      3290.3881      14.7487        13.4318        16.6096      
      3000   282.58833     -31909.987     -6316.301       3290.3881      14.7487        13.4318        16.6096      
      3100   285.66835     -31884.744     -8030.8411      3290.3881      14.7487        13.4318        16.6096      
      3200   316.87468     -31896.934     -12842.621      3290.3881      14.7487        13.4318        16.6096      
      3300   301.06359     -31889.24      -20448.851      3290.3881      14.7487        13.4318        16.6096      
      3400   287.69619     -31893.291     -1781.8098      3290.3881      14.7487        13.4318        16.6096      
      3500   295.36841     -31925.241     -6165.2286      3290.3881      14.7487        13.4318        16.6096      
      3600   287.97205     -31920.26      -8504.8112      3290.3881      14.7487        13.4318        16.6096      
      3700   294.53784     -31902.663      6536.6206      3290.3881      14.7487        13.4318        16.6096      
      3800   282.21715     -31880.338     -7213.9749      3290.3881      14.7487        13.4318        16.6096      
      3900   291.4375      -31887.463      812.74921      3290.3881      14.7487        13.4318        16.6096      
      4000   300.73184     -31898.35      -5794.5565      3290.3881      14.7487        13.4318        16.6096      
      4100   304.49248     -31913.839     -9153.1794      3290.3881      14.7487        13.4318        16.6096      
      4200   267.1759      -31900.658     -6816.1533      3290.3881      14.7487        13.4318        16.6096      
      4300   265.93164     -31900.128     -15164.044      3290.3881      14.7487        13.4318        16.6096      
      4400   314.3271      -31907.68       1427.4879      3290.3881      14.7487        13.4318        16.6096      
      4500   311.54821     -31887.887     -400.29293      3290.3881      14.7487        13.4318        16.6096      
      4600   303.74584     -31887.124     -8584.5339      3290.3881      14.7487        13.4318        16.6096      
      4700   294.06781     -31896.807     -15521.742      3290.3881      14.7487        13.4318        16.6096      
      4800   294.69376     -31903.002     -4661.2467      3290.3881      14.7487        13.4318        16.6096      
      4900   294.25939     -31906.144     -1499.1655      3290.3881      14.7487        13.4318        16.6096      
      5000   307.75411     -31921.86       5275.3294      3290.3881      14.7487        13.4318        16.6096      
Loop time of 198.998 on 16 procs for 5000 steps with 271 atoms

Performance: 1.085 ns/day, 22.111 hours/ns, 25.126 timesteps/s, 6.809 katom-step/s
99.2% CPU use with 8 MPI tasks x 2 OpenMP threads

MPI task timing breakdown:
Section |  min time  |  avg time  |  max time  |%varavg| %total
---------------------------------------------------------------
Pair    | 134.42     | 144.96     | 156.98     |  66.8 | 72.85
Bond    | 0.0016591  | 0.001865   | 0.002207   |   0.4 |  0.00
Neigh   | 11.557     | 12.182     | 13.258     |  17.1 |  6.12
Comm    | 10.72      | 22.669     | 33.271     | 168.3 | 11.39
Output  | 0.022669   | 0.024928   | 0.028389   |   1.3 |  0.01
Modify  | 17.433     | 18.487     | 19.043     |  12.8 |  9.29
Other   |            | 0.6683     |            |       |  0.34

Nlocal:         33.875 ave          40 max          19 min
Histogram: 1 0 0 0 1 0 1 0 2 3
Nghost:        2884.62 ave        2936 max        2815 min
Histogram: 1 0 2 1 0 0 0 0 1 3
Neighs:        19545.5 ave       22768 max       11252 min
Histogram: 1 0 0 0 1 0 1 0 2 3

Total # of neighbors = 156364
Ave neighs/atom = 576.98893
Ave special neighs/atom = 0
Neighbor list builds = 500
Dangerous builds not checked
  using 2 OpenMP thread(s) per MPI task
Reading restart file ...
  restart file = 2 Aug 2023, LAMMPS = 2 Aug 2023
  restoring atom style full from restart
  triclinic box = (0 0 0) to (14.7487 13.4318 16.6096) with tilt (-6.1972 -1.0047 -1.8606)
  2 by 2 by 2 MPI processor grid
  pair style reaxff stores no restart info
  271 atoms
Finding 1-2 1-3 1-4 neighbors ...
  special bond factors lj:    0        0        0       
  special bond factors coul:  0        0        0       
     0 = max # of 1-2 neighbors
     0 = max # of 1-3 neighbors
     0 = max # of 1-4 neighbors
     1 = max # of special neighbors
  special bonds CPU = 0.000 seconds
  read_restart CPU = 0.003 seconds
*****Positive-deform 6 starts.*****
Resetting global fix info from restart file:
  fix style: nvt, fix ID: fnvt
All restart file global fix info was re-assigned
Neighbor list info ...
  update: every = 10 steps, delay = 0 steps, check = no
  max neighbors/atom: 2000, page size: 100000
  master list distance cutoff = 12
  ghost atom cutoff = 12
  binsize = 6, bins = 4 3 3
  2 neighbor lists, perpetual/occasional/extra = 2 0 0
  (1) pair reaxff, perpetual
      attributes: half, newton off, ghost
      pair build: half/bin/newtoff/ghost
      stencil: full/ghost/bin/3d
      bin: standard
  (2) fix qeq/reaxff, perpetual, copy from (1)
      attributes: half, newton off
      pair build: copy
      stencil: none
      bin: none
Setting up Verlet run ...
  Unit style    : real
  Current step  : 0
  Time step     : 0.5
Per MPI rank memory allocation (min/avg/max) = 107.9 | 109 | 110.4 Mbytes
   Step          Temp          PotEng         Press          Volume           Lx             Ly             Lz      
         0   316.45881     -31911.511      13486.486      3290.3881      14.7487        13.4318        16.6096      
       100   305.45075     -31897.633     -5720.1913      3290.3881      14.7487        13.4318        16.6096      
       200   313.08367     -31898.423     -9836.2157      3290.3881      14.7487        13.4318        16.6096      
       300   297.18138     -31903.674      12765.287      3290.3881      14.7487        13.4318        16.6096      
       400   266.84257     -31895.546     -19330.488      3290.3881      14.7487        13.4318        16.6096      
       500   296.0541      -31915.577     -8204.0038      3290.3881      14.7487        13.4318        16.6096      
       600   293.69763     -31896.676     -21142.778      3290.3881      14.7487        13.4318        16.6096      
       700   323.65991     -31887.858     -1388.4854      3290.3881      14.7487        13.4318        16.6096      
       800   319.96871     -31893.823      6289.0094      3290.3881      14.7487        13.4318        16.6096      
       900   299.81375     -31903.416      2038.0473      3290.3881      14.7487        13.4318        16.6096      
      1000   290.35015     -31905.401     -4213.9493      3290.3881      14.7487        13.4318        16.6096      
      1100   306.61587     -31911.662     -6327.3132      3290.3881      14.7487        13.4318        16.6096      
      1200   292.78157     -31903.075      6033.1211      3290.3881      14.7487        13.4318        16.6096      
      1300   288.8342      -31880.238      4800.1258      3290.3881      14.7487        13.4318        16.6096      
      1400   316.74889     -31887.897     -6446.2535      3290.3881      14.7487        13.4318        16.6096      
      1500   296.44845     -31892.715     -7117.9138      3290.3881      14.7487        13.4318        16.6096      
      1600   288.90811     -31897.236      2742.2783      3290.3881      14.7487        13.4318        16.6096      
      1700   292.19536     -31901.066     -6200.2214      3290.3881      14.7487        13.4318        16.6096      
      1800   302.00597     -31907.175      11536.085      3290.3881      14.7487        13.4318        16.6096      
      1900   309.6043      -31888.055     -3999.5441      3290.3881      14.7487        13.4318        16.6096      
      2000   327.66773     -31880.511     -17553.716      3290.3881      14.7487        13.4318        16.6096      
      2100   305.06826     -31877.103     -2774.0284      3290.3881      14.7487        13.4318        16.6096      
      2200   296.14341     -31886.495      3214.7328      3290.3881      14.7487        13.4318        16.6096      
      2300   305.50663     -31891.679     -6682.5282      3290.3881      14.7487        13.4318        16.6096      
      2400   304.63732     -31894.692     -9555.3765      3290.3881      14.7487        13.4318        16.6096      
      2500   280.31365     -31895.468     -6207.4384      3290.3881      14.7487        13.4318        16.6096      
      2600   290.52721     -31912.435     -4196.0371      3290.3881      14.7487        13.4318        16.6096      
      2700   305.06029     -31900.97       5794.0654      3290.3881      14.7487        13.4318        16.6096      
      2800   324.10401     -31883.116     -2611.9751      3290.3881      14.7487        13.4318        16.6096      
      2900   330.57997     -31889.729     -2999.9628      3290.3881      14.7487        13.4318        16.6096      
      3000   327.53248     -31908.496      7616.3924      3290.3881      14.7487        13.4318        16.6096      
      3100   286.14055     -31888.361     -5723.3486      3290.3881      14.7487        13.4318        16.6096      
      3200   307.97865     -31902.189     -6068.4737      3290.3881      14.7487        13.4318        16.6096      
      3300   304.85574     -31878.449      11934.079      3290.3881      14.7487        13.4318        16.6096      
      3400   311.4055      -31854.228     -3013.7195      3290.3881      14.7487        13.4318        16.6096      
      3500   323.25726     -31867.008      1445.8273      3290.3881      14.7487        13.4318        16.6096      
      3600   313.2016      -31876.245     -4977.675       3290.3881      14.7487        13.4318        16.6096      
      3700   304.62278     -31883.249      6651.3         3290.3881      14.7487        13.4318        16.6096      
      3800   288.03564     -31872.179      3064.9037      3290.3881      14.7487        13.4318        16.6096      
      3900   299.85182     -31872.582     -3101.9871      3290.3881      14.7487        13.4318        16.6096      
      4000   314.57612     -31848.654     -2403.3718      3290.3881      14.7487        13.4318        16.6096      
      4100   319.34408     -31857.705     -2204.2599      3290.3881      14.7487        13.4318        16.6096      
      4200   284.41537     -31847.468     -6006.3377      3290.3881      14.7487        13.4318        16.6096      
      4300   310.18232     -31879.377     -2316.3711      3290.3881      14.7487        13.4318        16.6096      
      4400   292.05177     -31874.147      4520.1021      3290.3881      14.7487        13.4318        16.6096      
      4500   289.59341     -31885.216      150.92734      3290.3881      14.7487        13.4318        16.6096      
      4600   298.89105     -31898.219     -5882.4368      3290.3881      14.7487        13.4318        16.6096      
      4700   304.22618     -31881.71       9688.6748      3290.3881      14.7487        13.4318        16.6096      
      4800   323.54245     -31873.569      2013.6435      3290.3881      14.7487        13.4318        16.6096      
      4900   321.39119     -31858.606      13966.118      3290.3881      14.7487        13.4318        16.6096      
      5000   318.59645     -31866.421     -3468.9036      3290.3881      14.7487        13.4318        16.6096      
Loop time of 153.589 on 16 procs for 5000 steps with 271 atoms

Performance: 1.406 ns/day, 17.065 hours/ns, 32.554 timesteps/s, 8.822 katom-step/s
99.4% CPU use with 8 MPI tasks x 2 OpenMP threads

MPI task timing breakdown:
Section |  min time  |  avg time  |  max time  |%varavg| %total
---------------------------------------------------------------
Pair    | 95.674     | 111.34     | 127.33     | 116.3 | 72.49
Bond    | 0.0012206  | 0.0014979  | 0.0017704  |   0.4 |  0.00
Neigh   | 8.574      | 9.5964     | 10.659     |  28.6 |  6.25
Comm    | 1.4411     | 17.447     | 33.113     | 294.0 | 11.36
Output  | 0.01141    | 0.0129     | 0.014591   |   1.0 |  0.01
Modify  | 14.043     | 15.098     | 16.125     |  22.8 |  9.83
Other   |            | 0.09615    |            |       |  0.06

Nlocal:         33.875 ave          42 max          23 min
Histogram: 1 0 0 0 2 0 3 1 0 1
Nghost:         2661.5 ave        2687 max        2633 min
Histogram: 1 1 1 1 0 0 1 0 1 2
Neighs:          19583 ave       24058 max       13457 min
Histogram: 1 0 0 0 2 0 2 2 0 1

Total # of neighbors = 156664
Ave neighs/atom = 578.09594
Ave special neighs/atom = 0
Neighbor list builds = 500
Dangerous builds not checked
Total wall time: 0:43:19
