LAMMPS data file via write_data, version 2 Aug 2023, timestep = 5000, units = real

366 atoms
4 atom types

0 16.1249 xlo xhi
0 13.4224 ylo yhi
0 16.909 zlo zhi
-8.2539 0.6162 -0.6491 xy xz yz

Masses

1 12.0107
2 1.00794
3 15.9994
4 28.0855

Atoms # full

3 1 4 1.044537151289695 0.8303213127059336 2.7258666719702545 4.710183612468408 0 0 0
8 1 4 1.268734621693751 -0.46718734291057984 4.210544902831096 7.319860749867031 0 0 0
64 1 1 -0.6772340332184787 0.807494783999917 3.8352173480269784 3.1954528730467553 0 0 0
65 1 1 -0.6770326541789558 -0.24733697861058518 0.993594395543089 4.496562444053185 0 0 0
67 1 1 -0.6903836418422165 -1.8324463979785983 5.400101817771381 6.8069398201446445 0 0 0
98 1 3 -0.7887479893507593 0.13670005548365063 3.4715904499220827 6.0166949259817635 0 0 0
125 1 3 -0.7689173797749782 1.0398847935689612 5.23236551265251 7.885885879355822 0 0 0
201 1 2 0.1760810833825096 0.44070759229790507 4.8371814035659755 3.409572558357617 0 0 0
202 1 2 0.1324505575253206 -0.02108142762292818 3.118179202138269 2.6724330872101367 0 0 0
203 1 2 0.1700309525698739 1.7748567200275458 3.838325581136314 2.6392180570779997 0 0 0
317 7 1 -0.6548784548290048 -1.4805011887951165 4.860038332892732 0.531101833255886 0 0 0
209 1 2 0.1625172279757746 -1.9080972635737588 5.7759821720874855 5.675708497337636 0 0 0
288 2 1 -0.6941157588508675 -2.179987308114422 6.35999998311507 3.7601460606785038 0 0 0
291 2 2 0.1702853349415254 -2.194758784710926 5.300668774612794 4.150853072326726 0 0 0
310 5 1 -0.6792432744554866 1.3907251520475887 0.5504630521133465 6.949049087870367 0 0 0
312 5 2 0.1983808979678973 1.3851093871519595 0.23421110736274536 5.864254136004558 0 0 0
318 7 2 0.1366649046174756 -1.1217311237105936 5.417347187093778 1.500370869354392 0 0 0
345 14 2 0.1539854140775511 1.8481677736727995 5.92661490961239 1.9838864522145694 0 0 0
319 7 2 0.2404492527843105 -2.476513521500528 4.251364822711837 0.6327101589636372 0 0 0
241 1 2 0.2827013164034299 1.8586937234815846 5.631488029609448 6.334778452821902 0 0 0
208 1 2 0.2221116551765515 -2.7352241920186295 4.751673403109159 7.24982929194701 0 0 0
207 1 2 0.1602856863688484 -1.4820432940547295 6.248822242546867 7.593501112068925 0 0 0
313 5 2 0.2495110994713571 1.6359213449352887 1.6111306387248039 7.140801769124482 0 0 0
204 1 2 0.173864995223766 0.4830306328013549 0.19593679307192313 4.332888320013278 0 0 0
311 5 2 0.238676803203459 0.4969839414056181 0.16015434082578345 7.5103543804740776 0 0 0
358 21 2 0.1551368938327077 -0.32748555168950855 2.472804509099552 0.0010690605915352018 0 0 0
290 2 2 0.1384088458913024 -1.4836650456726634 6.499974239155912 2.8979940430955455 0 0 0
126 1 3 -0.7302125513358573 4.923018717516205 4.932335930737148 6.599644508322742 0 0 0
119 1 3 -0.8165734565847259 7.249329102449919 0.48398250999732795 6.649877563054778 0 0 0
25 1 4 1.592266541333927 6.912261426611209 1.9120362090587704 5.923092216743865 0 0 0
341 13 2 0.1678644461176548 3.1548030321989162 2.8657397036830257 0.9208463247298652 0 0 0
246 1 2 0.1667310411688133 4.77378871987779 4.607085800578799 3.360936290861903 0 0 0
31 1 4 0.9482984209783573 4.240717526077652 5.947455322377711 5.489974938759562 0 0 0
118 1 3 -0.793552751343728 5.43201289402814 1.8954176939314435 5.133125962356575 0 0 0
29 1 4 1.581068649816411 5.722690129751883 3.968441525036268 7.885544993894537 0 0 0
361 24 2 0.1403161100863155 3.1021650647990446 0.5107950935418999 0.6953219612322015 0 0 0
333 11 2 0.2205181475254246 4.93371187799888 0.267569342808168 1.1671372737878032 0 1 0
344 14 2 0.1593294495260419 2.8831206582963453 4.476946332731046 0.9503494446047764 0 0 0
218 1 2 0.1563753186787646 3.3061936984875127 3.503031912504335 2.5414543125265476 0 0 0
219 1 2 0.1591827598335175 4.036900217728303 1.762124880919805 2.0718159808511247 0 0 0
343 14 2 0.15692646102589 3.8027528489245905 5.658862802642381 2.4199010340061586 0 0 0
217 1 2 0.134592643352449 3.0943280305995877 0.16187783317983473 2.710280393732999 0 0 0
220 1 2 0.1914209103404455 5.240139857338221 3.261443088909913 2.4156800006108843 0 0 0
239 1 2 0.1843113780158917 2.43097575237589 4.894055920184365 4.727432412332887 0 0 0
21 1 4 1.156771229979704 4.037464797282696 1.8474573744921248 4.307614613850304 0 0 0
342 14 1 -0.656529581790615 2.881455182716376 5.597316742134069 1.5925968603785343 0 0 0
20 1 4 1.591219204810718 7.78529165742498 0.17725364367889274 1.9374806132215197 0 0 0
70 1 1 -0.6754665148053492 3.9407709394209998 0.04479180168993574 3.5033102674373557 0 0 0
71 1 1 -0.6736261790007496 4.200638804941678 2.809809090825352 2.676944531820949 0 0 0
78 1 1 -0.6730132781554419 2.4033289070255384 5.865836428069152 5.366702094603607 0 0 0
114 1 3 -0.7571428006097858 2.5358803593861525 2.2058944131340184 4.872620095524234 0 0 0
115 1 3 -0.8741385816594596 6.906280664213821 1.3354764071527132 1.4126143114160978 0 0 0
23 1 4 1.665195535924023 8.255610600619438 -0.25780845892026594 7.728990668641432 0 1 0
332 11 1 -0.6812598203786333 4.120414594753301 0.19340040784940304 0.3868431273014817 0 1 0
6 1 4 1.639200259523007 1.2820352119420508 1.7210111097895855 10.89771635274509 0 0 0
10 1 4 1.544416897107973 0.21111746802423553 3.757221372428233 13.165295981357392 0 0 0
30 1 4 1.122027467142597 1.5833593337840894 6.203890148346364 9.03069424312066 0 0 0
76 1 1 -0.6634137891462918 1.337499245124714 5.211377636994647 10.52093023475381 0 0 0
95 1 3 -0.841657751789667 0.05611424145591881 1.5632285743131278 9.91464444960029 0 0 0
96 1 3 -0.8156288276591621 1.566869998070445 0.42013584872848947 11.72368882265993 0 0 0
99 1 3 -0.8244898465629231 -0.6219529923280546 2.742903829811563 14.144432716762065 0 0 0
100 1 3 -0.8176165117377469 0.8589915047096702 2.858047048950826 12.00524749703511 0 0 0
102 1 3 -0.8343646033786978 -2.3277725761324466 5.767577920524691 10.35709546501488 0 0 0
103 1 3 -0.7948166738605272 -0.7031170805491955 4.9195971289468705 12.376494494318663 0 0 0
127 1 3 -0.7938497458129302 1.7407546627815527 4.405133058290541 13.824139179011992 0 0 0
233 1 2 0.2597309612029929 2.0463240366694744 4.350737030863529 10.45121230680412 0 0 0
234 1 2 0.2261859538254822 0.22988582713540245 4.872419885665495 10.24369711196704 0 0 0
235 1 2 0.172604349809172 1.4901287887246046 5.955768412713644 11.441393871075682 0 0 0
314 6 1 -0.6589221837642282 0.04438932523229644 0.9749731870620154 16.261919203210134 0 0 0
315 6 2 0.1738833062666843 0.9673634643304913 0.6746859692155265 15.548653211478904 0 0 0
32 1 4 1.468261437304857 1.6165089518148075 5.91141042188367 14.532002843423154 0 0 0
337 12 2 0.1228196377732861 2.0562877890854656 -0.36832505721628594 15.346340788611492 0 0 0
335 12 2 0.1933499348641602 1.8829798002824047 1.1684984737378459 14.108437743874042 0 0 0
7 1 4 1.204422064957934 -1.1213296308568312 5.836144995569642 16.383576151312507 0 0 0
97 1 3 -0.8336741262999028 -1.031797962077273 3.31668293655965 8.577355563331906 0 0 0
129 1 3 -0.7884786798136498 0.03414009082405922 5.806926847232655 15.263387124133605 0 0 0
101 1 3 -0.8231178310581566 -2.631346292591547 5.998952369510494 15.911517174003487 0 0 0
359 22 2 0.1736829373808547 -0.0137441131387811 3.7720104951439826 16.819828354246223 0 0 0
12 1 4 1.424437836503867 -1.607419686910617 6.201404191259995 11.690582597235947 0 0 0
116 1 3 -0.8104084532420601 3.563460134502279 0.533706813202782 8.684602414435018 0 0 0
339 13 2 0.1664579246036144 2.8966563348813135 1.2056409580179737 16.44643249533098 0 0 -1
297 3 1 -0.6536958608793462 5.606101609576532 0.9924543772451573 14.62612476346291 0 0 0
249 1 2 0.2231335826499381 4.9298427233464395 4.293589342348903 10.431868442149218 0 0 0
296 3 4 0.9328968116453962 4.849381674409421 2.5163468921881558 15.605483840350542 0 0 0
298 3 1 -0.6590164861826648 4.619559898160555 4.087617571169665 14.386012092097658 0 0 0
299 3 2 0.2102852609949555 5.427282919491584 -0.11885124461696117 14.306201106346938 0 0 0
81 1 1 -0.6923080815431039 4.63758292572071 4.907199754091684 11.342582926651295 0 0 0
123 1 3 -0.853195555584722 4.562907812812247 3.0446120618683628 8.563453405048339 0 0 0
250 1 2 0.1875182771934658 3.5454413628280705 4.711882452399713 11.737891615136782 0 0 0
340 13 2 0.1706363211512169 2.4582713448407185 2.998741564699214 16.575635914940833 0 0 -1
360 23 2 0.193699225387842 5.081458301326287 0.0804411553937362 16.308855379635055 0 0 -1
122 1 3 -0.7865882286851101 6.906442545397137 0.26808444854236324 12.456138989666046 0 0 0
302 3 2 0.1908881272820901 4.0956769726105415 3.642835510285867 13.43802532592169 0 0 0
300 3 2 0.2014875220060985 6.715850698370708 1.0418246188484477 14.97117070826346 0 0 0
304 3 2 0.2422053464168466 3.874156872075429 4.8095843145207136 14.98679878212157 0 0 0
334 12 1 -0.6727498251714088 2.501885642196001 0.22846682703710552 14.412534874361583 0 0 0
120 1 3 -0.7746704560016677 5.96585100192573 2.7232279026316952 16.65047618308273 0 0 -1
117 1 3 -0.8615445899200891 2.6282791627783313 2.2584208517156554 10.074373445512494 0 0 0
336 12 2 0.1691710131059452 3.6428432118824565 0.5314189714136861 14.45485853387341 0 0 0
24 1 4 1.612711228316763 4.003962973461999 1.8791930949272926 9.473405161049108 0 0 0
27 1 4 1.371946675878426 6.80008568244619 1.5458329161443731 11.490308236470165 0 0 0
301 3 2 0.1609460557287508 5.362082895096066 1.6025950805902687 13.621983021312456 0 0 0
121 1 3 -0.7686332300052042 5.324006915339888 1.517447427027039 10.619389883205265 0 0 0
338 13 1 -0.6596557079531076 3.2629124530915514 2.2223924492855547 16.71322574492336 0 0 -1
128 1 3 -0.808505135644894 2.7347174988292524 5.992122957613977 15.83665699498712 0 0 0
15 1 4 1.381870870367218 -2.8415935458660146 8.904958589828324 7.646723811000822 0 0 0
17 1 4 1.489884354612141 -4.289662562995931 10.854986900465565 5.8366648034160225 0 0 0
106 1 3 -0.8254985984160698 -5.512345194293523 10.576365239075365 4.694149020478465 0 0 0
107 1 3 -0.8257594604266211 -4.17161239044012 9.46550761431371 6.921297981769818 0 0 0
108 1 3 -0.8507817937418642 -4.665543126287691 12.220148006192312 6.650438779687351 0 0 0
133 1 3 -0.8014547118887229 -2.859155771872675 11.147323162500744 5.019279803925883 0 0 0
214 1 2 0.1780258676170239 -2.2090645929438564 8.912047669004467 5.1650948154267695 0 0 0
255 1 2 0.1613304484644804 -2.710360235681145 9.205413855576422 2.6704466085451988 0 0 0
289 2 1 -0.6683121900172612 -4.098654593762714 7.789866946089264 1.968457092171181 0 0 0
294 2 2 0.1604730212097467 -3.000743567433532 7.977375281866868 1.529228731623282 0 0 0
216 1 2 0.2691966351130293 -3.2696354771427996 13.209979842085234 3.0968515597665713 0 -1 0
326 9 2 0.173621332397623 -5.954961004434609 12.432841734973906 3.0899079165890186 0 0 0
328 10 1 -0.6797674863939716 -4.6167739334843265 10.568739860071515 1.2590517679617044 0 0 0
329 10 2 0.1863118415948718 -3.6280156444664486 10.269401563238878 1.8323007891290988 0 0 0
330 10 2 0.189210574053072 -4.949075739018448 9.828412706156872 0.4852525344883525 0 0 0
331 10 2 0.1850238016928923 -5.468049806194734 10.946180328408785 1.9288931396420008 0 0 0
362 25 2 0.2261895074885805 -4.643339318157361 12.975714205509115 4.473993369033139 0 0 0
295 2 2 0.2031370774835076 -4.404384116187474 8.602523123496178 2.6947603787819863 0 0 0
1 1 4 1.458934187919978 -5.471921275641244 12.892621824209133 7.795673845652716 0 0 0
324 9 1 -0.6773942317849913 -6.999342995082068 11.896140274308463 2.8451143307569335 0 0 0
292 2 2 0.1576026627027576 -1.990769847660964 7.204856564483922 4.55098503099401 0 0 0
322 8 2 0.2164673375582584 -1.9368264588260045 8.853981893237734 0.5032467235675216 0 0 0
34 1 4 1.34805633003898 1.9420279676127263 9.439331768728316 2.191221308238811 0 0 0
131 1 3 -0.7952765369532699 2.730082294859232 8.308744492837583 1.0988976481244317 0 0 0
36 1 4 1.587442988685296 0.5822363400374061 11.271033037732082 0.17801381971095873 0 0 1
83 1 1 -0.6884320125920265 -1.8659962961616288 9.914025365206372 2.698953606356915 0 0 0
323 8 2 0.2374762635408259 -0.15734894568320776 8.302440269812111 0.1942059158173142 0 0 0
259 1 2 0.142611054475946 0.7819215443952461 8.69255546410166 5.9076602209628275 0 0 0
258 1 2 0.1983498829777533 2.398777659330375 9.07408864666715 5.091132803430836 0 0 0
69 1 1 -0.675218340712097 -1.7183257873563191 8.471371679179466 6.1338914709866845 0 0 0
254 1 2 0.1998197681912266 -1.8879476291481072 10.580945241595316 1.713375183490701 0 0 0
354 17 3 -0.8451549066021158 0.07135681779259292 12.710291058610848 0.7114877551582641 0 0 0
321 8 2 0.1243190747903584 -1.0897264913563065 7.7056113708466 1.7379772402183749 0 0 0
28 1 4 1.131403313705604 2.9875729017506125 6.988273914470742 0.32827426520906583 0 0 1
134 1 3 -0.859857166261483 0.8825345435614689 10.427865982033056 1.5167145294776585 0 0 0
320 8 1 -0.6623305002932082 -1.171674213009852 8.038374639647282 0.6172487869598683 0 0 0
35 1 4 1.345542943235628 -1.5836277726147465 11.312687224634935 3.9361253515703605 0 0 0
82 1 1 -0.6676977538146331 0.8259254683268563 8.230323461646284 3.159401840935792 0 0 0
84 1 1 -0.7098713527962321 1.7621455753469477 9.34482177468862 5.957317922701557 0 0 0
132 1 3 -0.826489749507667 -1.5738544858068892 12.619104623717112 2.955617675062354 0 0 0
240 1 2 0.1469898592521043 1.8706679315948422 6.719708001844728 4.823650808610352 0 0 0
138 1 3 -0.803954397202304 -0.03613778631846579 11.088792637308883 4.6777763206614855 0 0 0
213 1 2 0.1783971145939254 -0.6449424533105451 8.873558093334037 6.1523510722021575 0 0 0
215 1 2 0.1607492883975387 -1.719379934815193 7.30951801620046 6.26952500855324 0 0 0
230 1 2 0.1795134552853686 1.164735923323204 8.495432229956796 7.706037134216612 0 0 0
251 1 2 0.1387544296503572 1.58735461594493 7.438604851458848 3.6410820626073077 0 0 0
252 1 2 0.1297150925175317 0.07876946832614203 7.558612295953247 2.4706500877774213 0 0 0
253 1 2 0.1788124861388081 0.3188175721176766 8.845264569998148 3.949516080603755 0 0 0
256 1 2 0.2032415749301601 -0.8822009165200488 9.280009806346785 2.7830967443580943 0 0 0
135 1 3 -0.8407398345075242 -1.836577374682632 9.933102987963968 8.390492798082171 0 0 0
257 1 2 0.1663292626074672 2.351534013227116 9.335709531207266 6.889376006249329 0 0 0
4 1 4 1.198221059860036 -6.154323148581916 12.61227790983786 12.714881320366505 0 0 0
18 1 4 1.549505481432234 -2.983352276549582 8.450105508978965 13.402455869150815 0 0 0
19 1 4 1.551993499073143 -4.1775972932926 10.46700777983028 11.40349298246235 0 0 0
68 1 1 -0.6760261376409848 -4.854686677301129 10.755901531430352 15.423815799544293 0 0 0
105 1 3 -0.8334082493290073 -6.210275388271594 11.724558323246765 8.741199206656344 0 0 0
109 1 3 -0.7970473505853893 -4.130349022021333 7.770301806173591 14.494327130728168 0 0 0
110 1 3 -0.8524711992417514 -2.4455307345719266 7.053109900840663 12.667374912435314 0 0 0
111 1 3 -0.8054477036200545 -5.475862035045937 9.909804946463241 10.526228936121342 0 0 0
112 1 3 -0.9186892715263211 -3.716105649002847 9.507386195811561 12.547776920726225 0 0 0
113 1 3 -0.7796660868553851 -4.87218929895532 11.808912606173683 12.226220356301608 0 0 0
137 1 3 -0.8001559284193015 -2.8760306126389 11.13314975585537 10.486912114868575 0 0 0
145 1 3 -0.7971359164213528 -2.244794417844649 10.75332874552554 16.132303514273246 0 0 0
210 1 2 0.1610272993697308 -5.125443613419625 11.899436606535938 15.048274194666861 0 0 0
211 1 2 0.166140146784033 -5.745088706078479 10.251254897774214 15.973066532654668 0 0 0
212 1 2 0.2601207289404638 -4.474655517925325 10.149727861216018 14.62153343633061 0 0 0
9 1 4 1.566741912420182 -3.6936516654860467 6.351233319913013 9.496557448983799 0 0 0
14 1 4 0.9925512702321271 -3.583112075513517 11.13660858845933 16.76309208030875 0 0 0
104 1 3 -0.8553214854473812 -3.2513715799969725 7.603223413531833 8.55540242091593 0 0 0
142 1 3 -0.8316546792675777 -1.6398366845366414 9.097006000637142 14.274145044269549 0 0 0
232 1 2 0.1816196815952791 -0.29405149089334864 7.960617454879802 8.678880151587432 0 0 0
143 1 3 -0.824184311046261 0.09840395780451638 9.808889360915098 16.11153472699084 0 0 0
144 1 3 -0.8938400372812955 -0.5012766760674298 11.5816870458007 14.189093978339885 0 0 0
26 1 4 1.624447307418567 0.006143716464086069 12.727243148243202 13.21125058357795 0 -1 0
146 1 3 -0.8851384833908822 -0.18424248266033655 10.46350334893872 10.455098503850397 0 0 0
147 1 3 -0.8507140621108787 1.6312769447876647 9.439884287889567 12.086412736496927 0 0 0
236 1 2 0.2503617202722689 -0.5402566946464461 8.329263383493203 12.169600029051455 0 0 0
238 1 2 0.1844015409810237 -0.6134690228666027 7.9999140280313386 10.178108357729643 0 0 0
237 1 2 0.1813062182410831 0.736039837648369 7.099961868958884 11.398041226222771 0 0 0
75 1 1 -0.6975622807769248 0.7822572802915093 8.085914613489761 8.700521655819237 0 0 0
37 1 4 1.590891047161177 -1.4765614542335754 11.012099774200427 9.595435999657624 0 0 0
39 1 4 1.559785110460459 2.6589708193848742 8.37995193250958 12.98918486674241 0 0 0
40 1 4 1.60380105494602 -0.9965156206055777 10.33465621906528 15.057035530314334 0 0 0
41 1 4 1.601903436264848 1.1343314658370818 10.685251532359345 11.240348174712649 0 0 0
130 1 3 -0.7547552027143576 3.1388761529378035 6.532704856629823 9.3820231696327 0 0 0
77 1 1 -0.6586584977452411 -0.34763625961155425 7.603844507753792 11.304510048150178 0 0 0
231 1 2 0.2098121528520461 1.125139813317407 8.73124679074672 9.49045843962454 0 0 0
136 1 3 -0.7923961658811511 -0.9739243279747514 12.420462610080556 8.923493505257373 0 0 0
140 1 3 -0.8628930158078159 1.7440384361926862 7.1841296917661 13.55557792392784 0 0 0
279 1 2 0.1798509182909292 2.609198264237178 8.932323801323498 8.594596243273896 0 0 0
22 1 4 1.27663542183328 6.909641135443315 2.7128146505476862 0.46504680609775684 0 0 0
42 1 4 1.591972988618351 9.319587143704679 2.048217741325591 3.819221223768396 0 0 0
72 1 1 -0.6758562402817901 7.091964535919508 3.933250628617362 1.9247556498380787 0 0 0
86 1 1 -0.6724707454000235 8.326532367913337 5.775458145372169 4.616622103438655 0 0 0
87 1 1 -0.6921429681567977 9.322105184679266 4.571114561207157 7.003497936581977 0 0 0
124 1 3 -0.8615692112022144 6.734912302251102 3.034183655076853 7.111112263498947 0 0 0
149 1 3 -0.8354434439387427 8.980112663971234 0.7801546688060337 2.8841338907963334 0 0 0
150 1 3 -0.8670822563573607 8.102441278221088 2.2821980653731586 4.88674175731982 0 0 0
164 1 3 -0.8890190427926373 9.460885925100023 3.3388215241922277 2.9923418949305263 0 0 0
168 1 3 -0.8535390591894456 9.764621309184975 5.033681372611007 0.9129126943982677 0 0 0
221 1 2 0.2612935024699427 8.049855750760106 4.513711375026126 1.912836501944354 0 0 0
222 1 2 0.2250877691684555 7.012534391591899 3.2515108323259145 2.830942074563553 0 0 0
223 1 2 0.1723142520273504 6.107909286211365 4.535979060397158 1.6978485082849675 0 0 0
263 1 2 0.1943199850095306 7.635006890769151 5.46905637868733 5.501931125126939 0 0 0
264 1 2 0.2459912909939966 8.762985102244608 4.841882275425163 4.0344128881785934 0 0 0
266 1 2 0.2738859209103511 8.453511797706888 3.8564071351438387 7.118647641964913 0 0 0
268 1 2 0.1884311377176566 9.023285813761644 5.646034741136315 7.331579882423131 0 0 0
267 1 2 0.1876419550459052 9.717662693762918 4.576916706099209 5.953380258682653 0 0 0
80 1 1 -0.6673895979974845 5.269553667503563 5.6590775109753 3.7829540534467583 0 0 0
247 1 2 0.1955356365618203 6.3304794579947385 5.557160531890945 4.149083055567317 0 0 0
51 1 4 1.346029409160416 9.059431418385147 6.338962850831994 0.18940079746706892 0 0 0
228 1 2 0.1650297897137049 5.1186359082193045 6.12084624478738 0.18581824284572612 0 0 1
265 1 2 0.1735063744720426 7.820974273370438 6.510279005858582 3.831261925408537 0 0 0
245 1 2 0.1420196655055583 5.152105499012858 6.521011963256437 3.0549244920775034 0 0 0
165 1 3 -0.9139536954420867 11.248774771829552 2.863090908997922 0.8752648026041893 0 0 0
305 4 4 1.16576964747489 13.099699802867834 0.009879781501980281 1.6967772298449186 0 0 0
170 1 3 -0.8320173663405463 11.55919343328125 2.911707041940332 7.139717850519456 0 0 0
166 1 3 -0.7721767607436953 11.804018564374008 4.9456485135115695 2.5632307546572934 0 0 0
260 1 2 0.1890202441477418 12.600301309141306 3.3362393752550576 4.084529722550341 0 0 0
261 1 2 0.1756337728763036 14.297688366852048 2.20629559141492 4.809584079909628 0 0 0
306 4 1 -0.6849103465464064 13.852392056829627 1.6674562019567496 2.0872670634249455 0 0 0
269 1 2 0.2094770438536212 11.431216547309896 6.047831395012904 6.534872168220964 0 0 0
205 1 2 0.1589918258639241 15.126289430492806 1.1613297129902447 3.6226800891485995 -1 0 0
309 4 2 0.1824478863345119 13.640645373359193 2.147816353264916 3.1520472602512872 0 0 0
307 4 3 -0.7582964068759864 12.049024286796332 0.28737088045637277 0.4670866991655457 0 0 0
308 4 2 0.2245084193813105 13.580269179134422 2.449381415027987 1.275629568765922 0 0 0
287 2 4 1.099771806505374 12.11816564803624 6.3906384459819 3.2014864518923822 -1 0 0
155 1 3 -0.8063119762955852 10.818954993724303 1.778857209988969 4.734526542192607 0 0 0
46 1 4 1.421895700204646 11.967909918986136 1.9156919729784214 5.85347334344832 0 0 0
50 1 4 1.533593355696146 10.547186230204213 3.928402436458868 1.7481686436462625 0 0 0
52 1 4 1.421277896866937 10.779911642188063 3.948267920285981 8.122206505527858 0 0 0
85 1 1 -0.6625903494776333 13.304756587758092 2.974382834415888 4.9854834255288605 0 0 0
363 26 2 0.1224574355653414 14.94924566833619 1.3370636509635532 1.9095742435757634 -1 0 0
156 1 3 -0.8341138045131693 12.774524043954504 0.6828037670363092 6.341236474364977 0 0 0
262 1 2 0.180478364477268 13.547728421844255 3.8974887847745188 5.642749753599797 0 0 0
44 1 4 1.571578607493561 13.497919969140117 -0.22614202024317398 7.486792185461235 0 0 0
355 18 2 0.2169365229005538 15.404189951273125 1.027770850950407 5.523774535470623 0 0 0
45 1 4 1.646691077718645 9.609896430280008 1.6403660532708582 9.814812182903761 0 0 0
48 1 4 1.612146897545009 9.675091433361453 1.5986244414425428 14.921998740377203 0 0 0
352 16 2 0.1890160280062629 7.333015967638119 5.609468651862635 16.100120628059138 0 0 0
73 1 1 -0.6850125276237481 7.057701097832087 3.1408310904121284 12.543113859620762 0 0 0
154 1 3 -0.8065847581603883 8.200811885461867 1.8215598732332787 10.682813292862324 0 0 0
158 1 3 -0.840098131263037 9.168855315886852 0.3700826684642995 14.032306535837117 0 0 0
160 1 3 -0.860677296864397 8.628390058099798 2.142359577726182 16.227627449704748 0 0 0
169 1 3 -0.8264951484254979 10.050601001462736 3.114820099125785 9.296579277518983 0 0 0
172 1 3 -0.8629544474987908 6.548039091709008 4.913980179172863 8.853614107770838 0 0 0
175 1 3 -0.8854588491946668 9.679517249959677 2.9255667774315812 14.043585503433846 0 0 0
180 1 3 -0.7911653249340371 10.09285111899231 4.885918756445325 12.061673105287268 0 0 0
224 1 2 0.2110721648327585 7.202207577343018 3.8461348784330127 11.616281435322728 0 0 0
225 1 2 0.272647681752322 7.965251312150807 3.062116601340533 13.119950604555461 0 0 0
350 16 1 -0.6718802601851204 8.383694442718372 5.131382807640551 15.80118423091511 0 0 0
351 16 2 0.1787861052339812 8.76080722004538 5.460620290261775 14.8058394924957 0 0 0
353 16 2 0.2616265063240437 8.361182916027651 3.9635715547916783 15.834392208196785 0 0 0
153 1 3 -0.8532191152392664 9.21501563026552 0.7333134188537609 8.460351584655145 0 0 0
303 3 2 0.1544741326966052 5.627052668714417 4.582069729903379 14.228712431860307 0 0 0
248 1 2 0.1559595339584734 5.426814200315614 5.114834848655668 12.181982424444536 0 0 0
226 1 2 0.1579119640970033 6.175004209933296 3.464804694631617 13.223358759632571 0 0 0
171 1 3 -0.8485109492823079 11.709130750035275 5.154790697275506 8.550245437997445 0 0 0
55 1 4 1.558361938944241 10.801388892896632 3.923487118847344 13.289228105720433 0 0 0
177 1 3 -0.8251268272646556 11.474573383708837 5.086255404996318 14.312808662859318 0 0 0
316 6 2 0.1798129193004803 15.827262103024035 0.06031825859867501 16.833987810220933 -1 0 0
157 1 3 -0.8257340009442093 14.682010623825128 0.09530498502342977 14.380135529561677 0 0 0
43 1 4 1.585289726777434 12.126080840991106 1.2110973258617386 16.666622544640486 0 0 0
151 1 3 -0.8270965465041027 13.594919816447225 1.9907750043606882 16.05401746084454 0 0 0
159 1 3 -0.8843449851464157 11.08780399147205 1.1510946586287725 15.550463673205567 0 0 0
163 1 3 -0.8503684902220026 12.678581023539225 0.6882353910851577 12.688822187790386 0 0 0
161 1 3 -0.7800380023349217 13.5079103327778 2.0656685753445063 10.457388135909865 0 0 0
49 1 4 1.637759354752175 12.12630898102554 1.7417713196121833 11.604767071990002 0 0 0
176 1 3 -0.8426004624664627 11.856450458220337 2.9894001408511857 12.472397268844057 0 0 0
162 1 3 -0.8279213013000296 10.755894691556783 1.1687728912485718 10.810975439953756 0 0 0
2 1 4 1.645790325269336 14.734320015143444 1.980248097424346 9.367097039481646 0 0 0
5 1 4 1.385315430120836 14.779156595508486 1.6061612097743203 15.10441379465165 0 0 0
47 1 4 1.580257818294533 13.471467858712709 -0.4532000799889953 13.38270053382158 0 0 0
152 1 3 -0.8569202628342949 14.238103820235152 0.7170058056711326 8.459018681260373 0 0 0
58 1 4 1.533454645615217 3.753722371694528 11.257609620402564 3.932443540434703 0 0 0
79 1 1 -0.6137687342057233 4.541362207402263 7.721067295205585 6.223797487915133 0 0 0
90 1 1 -0.6793551002035648 5.9878173315076895 9.340934197820264 1.9605212353354111 0 0 0
229 1 2 0.1771336151875063 5.317068725363078 8.016297702451878 0.562765716325484 0 0 1
183 1 3 -0.8454163342338988 3.119785411258242 10.023394931971984 3.1321462965017917 0 0 0
184 1 3 -0.7945610951218363 4.295913983852924 12.516377479914249 2.9261478059080925 0 0 0
185 1 3 -0.7991614824463927 2.6155798908443626 11.709848061517047 4.962335899015539 0 0 0
192 1 3 -0.7949541876493416 5.01935014522953 10.603818471113552 4.905715686212961 0 0 0
242 1 2 0.1636460452215806 5.3149592585643 7.8941385921530935 5.281326091395791 0 0 0
243 1 2 0.2580902585725773 5.111217367170907 7.7014824599461695 7.292262392059986 0 0 0
274 1 2 0.1653041008236242 5.637010990540404 8.297379838700486 2.30903852457232 0 0 0
275 1 2 0.1819491355672136 5.3725639403633245 9.711490044610235 1.07275461466803 0 0 0
276 1 2 0.20073285478101 5.97213048051926 10.09189969307599 2.8823255635913765 0 0 0
278 1 2 0.1926703287926585 3.956768488785489 9.684290625921392 7.345925574138153 0 0 0
244 1 2 0.1882371879645828 3.605792819067852 8.344439932538473 6.175345998492353 0 0 0
283 1 2 0.2004481928102688 4.157866142249426 10.997324406658539 0.24707961322369115 0 0 1
38 1 4 1.433532348318833 1.250573371373489 11.19976647093344 5.670425265512775 0 0 0
139 1 3 -0.8426548870156952 0.790225685288829 12.047422828599812 6.927431110335563 0 0 0
189 1 3 -0.7954865580951515 3.9947770586618643 12.238418427511707 8.325446394782867 0 0 0
191 1 3 -0.8381274665629967 7.856294833494074 10.712815303016972 5.121941764836035 0 0 0
327 9 2 0.1543736560908904 8.198651664729804 12.563832968857074 3.095012416827734 -1 0 0
364 27 2 0.2902484173950137 11.045319636830918 7.900135591715701 6.759853914519186 -1 0 0
325 9 2 0.1599124710810001 9.004799840453702 11.377845962920192 1.794151746228123 -1 0 0
277 1 2 0.1530777516715574 7.693244619721627 10.922187058610154 0.3351836328621842 0 0 0
193 1 3 -0.8246096365429035 6.560964087120881 9.596838407819467 7.212660361970818 0 0 0
91 1 1 -0.6707927587816198 8.468216338797728 9.992257797813151 0.3528493710198584 0 0 0
348 15 2 0.1573470037783196 6.128333591289373 11.249972143493356 1.2067110620238433 0 0 0
349 15 2 0.1360355547866571 7.300054628058104 12.901148789233085 1.168416168140453 0 0 0
346 15 1 -0.6727758932313547 6.34793231705365 12.42239267500618 0.7770366204215053 0 0 0
194 1 3 -0.8246440148398766 6.406834158632941 12.203299283595468 6.7108719971970565 0 0 0
365 28 2 0.1629740579787917 9.591211154626953 10.204233189079739 0.7218583118562015 0 0 1
270 1 2 0.1840856414111857 9.925008319371228 6.589021556321575 7.700231459922842 0 0 0
293 2 2 0.2606769840110185 11.260256600227526 7.656747819834689 1.1236958626532658 -1 0 0
13 1 4 1.366199513993829 9.09116505844227 10.454274915151554 4.1229750448117795 0 0 0
54 1 4 1.24820612212967 9.507997638761125 7.140957665459628 5.175064183605855 0 0 0
57 1 4 1.088142542007227 7.843805091534795 8.809231562275563 1.7484939220770397 0 0 0
59 1 4 1.553404158750284 7.893995062806794 8.71210064543579 7.486136547027334 0 0 0
61 1 4 1.479053202764874 6.4260750696148 10.770322337743403 5.989642698477232 0 0 0
88 1 1 -0.6188740500491031 10.65817746019578 6.834673142880922 6.689185341917861 0 0 0
174 1 3 -0.7807856094169516 10.759439654964943 6.903784167194014 4.294327071981455 0 0 0
181 1 3 -0.7848940638831688 8.04605206495738 7.226031792410861 1.1617457590251754 0 0 0
182 1 3 -0.791052664144727 8.775047194987945 9.213348621205032 3.0921492064885907 0 0 0
186 1 3 -0.8471310442981852 7.325909808146442 7.296160729327473 8.107426887638775 0 0 0
187 1 3 -0.8267959436948518 8.609032576784513 8.104934623586363 5.97331587353125 0 0 0
33 1 4 1.276990749981648 4.379776603359544 6.6967342375562 10.764948840058539 0 0 0
60 1 4 1.460265954331165 3.796375971563736 11.075235927549038 9.342044141924776 0 0 0
62 1 4 1.380369657156143 3.743687802980432 10.385248525189684 14.994438796917933 0 0 0
93 1 1 -0.6614290013158702 5.069210951147054 9.703745390086553 16.20368121190639 0 0 0
173 1 3 -0.8245906027149813 5.729347040343392 7.237965334179782 10.15344914087535 0 0 0
280 1 2 0.2691172066917392 4.522576173163 8.768223623276233 8.992487242778667 0 0 0
190 1 3 -0.7959253428339887 2.4468761440217057 11.155100630587725 10.154831528587064 0 0 0
195 1 3 -0.869396066732354 3.3865992856090203 9.148790611169519 14.125961774136368 0 0 0
196 1 3 -0.7959824969009871 4.348367167217006 11.71893018004176 14.049925386093346 0 0 0
197 1 3 -0.776453590060641 2.540709067762398 10.85570096902433 16.133221308627483 0 0 0
199 1 3 -0.7992300239548936 5.136637674824351 10.78683658591608 10.214860834166265 0 0 0
281 1 2 0.1479067418065835 5.969840835882241 10.13353721180743 15.677630719929303 0 0 0