LAMMPS (2 Aug 2023 - Update 2)
OMP_NUM_THREADS environment is not set. Defaulting to 1 thread. (src/comm.cpp:98)
  using 1 OpenMP thread(s) per MPI task
Reading data file ...
  triclinic box = (0 0 0) to (16.1249 13.4224 16.909) with tilt (-8.2539 0.6162 -0.6491)
WARNING: Triclinic box skew is large. LAMMPS will run inefficiently. (src/domain.cpp:220)
  2 by 2 by 2 MPI processor grid
  reading atoms ...
  366 atoms
Finding 1-2 1-3 1-4 neighbors ...
  special bond factors lj:    0        0        0       
  special bond factors coul:  0        0        0       
     0 = max # of 1-2 neighbors
     0 = max # of 1-3 neighbors
     0 = max # of 1-4 neighbors
     1 = max # of special neighbors
  special bonds CPU = 0.001 seconds
  read_data CPU = 0.008 seconds
*****Minimization starts.*****
Setting up cg style minimization ...
  Unit style    : real
  Current step  : 0
WARNING: No pairwise cutoff or binsize set. Atom sorting therefore disabled. (src/atom.cpp:2366)
WARNING: Communication cutoff is 0.0. No ghost atoms will be generated. Atoms may get lost. (src/comm_brick.cpp:210)
Per MPI rank memory allocation (min/avg/max) = 6.365 | 6.365 | 6.365 Mbytes
   Step          Temp          E_pair         E_mol          TotEng         Press     
         0   0              0              0              0              0            
         1   0              0              0              0              0            
Loop time of 6.72259e-05 on 8 procs for 1 steps with 366 atoms

52.2% CPU use with 8 MPI tasks x 1 OpenMP threads

Minimization stats:
  Stopping criterion = search direction is not downhill
  Energy initial, next-to-last, final = 
                     0                  0                  0
  Force two-norm initial, final = 0 0
  Force max component initial, final = 0 0
  Final line search alpha, max atom move = 0 0
  Iterations, force evaluations = 1 0

MPI task timing breakdown:
Section |  min time  |  avg time  |  max time  |%varavg| %total
---------------------------------------------------------------
Pair    | 0          | 0          | 0          |   0.0 |  0.00
Bond    | 1.68e-07   | 3.005e-07  | 3.64e-07   |   0.0 |  0.45
Neigh   | 0          | 0          | 0          |   0.0 |  0.00
Comm    | 1.143e-06  | 1.6173e-06 | 2.008e-06  |   0.0 |  2.41
Output  | 0          | 0          | 0          |   0.0 |  0.00
Modify  | 0          | 0          | 0          |   0.0 |  0.00
Other   |            | 6.531e-05  |            |       | 97.15

Nlocal:          45.75 ave          58 max          36 min
Histogram: 1 0 2 1 1 1 1 0 0 1
Nghost:              0 ave           0 max           0 min
Histogram: 8 0 0 0 0 0 0 0 0 0
Neighs:              0 ave           0 max           0 min
Histogram: 8 0 0 0 0 0 0 0 0 0

Total # of neighbors = 0
Ave neighs/atom = 0
Ave special neighs/atom = 0
Neighbor list builds = 0
Dangerous builds = 0
System init for write_data ...
WARNING: Communication cutoff is 0.0. No ghost atoms will be generated. Atoms may get lost. (src/comm_brick.cpp:210)
WARNING: New thermo_style command, previous thermo_modify settings will be lost (src/output.cpp:903)

CITE-CITE-CITE-CITE-CITE-CITE-CITE-CITE-CITE-CITE-CITE-CITE-CITE

Your simulation uses code contributions which should be cited:
- pair reaxff command: doi:10.1016/j.parco.2011.08.005
- fix qeq/reaxff command: doi:10.1016/j.parco.2011.08.005
The log file lists these citations in BibTeX format.

CITE-CITE-CITE-CITE-CITE-CITE-CITE-CITE-CITE-CITE-CITE-CITE-CITE

WARNING: Fix qeq/reaxff group is not charge neutral, net charge = -29.52 (src/REAXFF/fix_qeq_reaxff.cpp:392)
Neighbor list info ...
  update: every = 10 steps, delay = 0 steps, check = no
  max neighbors/atom: 2000, page size: 100000
  master list distance cutoff = 12
  ghost atom cutoff = 12
  binsize = 6, bins = 5 3 3
  2 neighbor lists, perpetual/occasional/extra = 2 0 0
  (1) pair reaxff, perpetual
      attributes: half, newton off, ghost
      pair build: half/bin/newtoff/ghost
      stencil: full/ghost/bin/3d
      bin: standard
  (2) fix qeq/reaxff, perpetual, copy from (1)
      attributes: half, newton off
      pair build: copy
      stencil: none
      bin: none
Setting up Verlet run ...
  Unit style    : real
  Current step  : 0
  Time step     : 0.5
Per MPI rank memory allocation (min/avg/max) = 137.6 | 139.4 | 141 Mbytes
   Step          Temp          PotEng         Press         Density         Volume    
         0   300           -43286.839      45299.205      1.9525358      3659.697     
       100   599.27424     -43834.059     -3009.8602      1.9525358      3659.697     
       200   458.30867     -43941.185      11212.708      1.9525358      3659.697     
       300   393.17497     -44073.096      1211.1542      1.9525358      3659.697     
       400   341.50667     -44162.038      7913.201       1.9525358      3659.697     
       500   295.84906     -44209.187      5491.8649      1.9525358      3659.697     
       600   282.31452     -44247.015     -5543.8252      1.9525358      3659.697     
       700   283.481       -44269.891      4184.8378      1.9525358      3659.697     
       800   284.08298     -44256.915     -2109.4199      1.9525358      3659.697     
       900   313.45681     -44256.089     -2028.3296      1.9525358      3659.697     
      1000   298.18214     -44225.18      -1924.1231      1.9525358      3659.697     
      1100   312.09253     -44240.133     -1798.2958      1.9525358      3659.697     
      1200   313.08627     -44259.874     -12021.533      1.9525358      3659.697     
      1300   313.71648     -44294.202     -2721.8391      1.9525358      3659.697     
      1400   282.00449     -44298.798     -149.98277      1.9525358      3659.697     
      1500   293.92582     -44319.884     -2285.4836      1.9525358      3659.697     
      1600   280.18657     -44285.806     -8576.4799      1.9525358      3659.697     
      1700   310.36768     -44287.703     -4590.3589      1.9525358      3659.697     
      1800   313.24526     -44276.286      777.31426      1.9525358      3659.697     
      1900   314.01998     -44294.153     -5367.7754      1.9525358      3659.697     
      2000   297.57615     -44308.157      4937.6857      1.9525358      3659.697     
      2100   300.25404     -44328.294     -7391.909       1.9525358      3659.697     
      2200   296.27262     -44320.627     -10745.644      1.9525358      3659.697     
      2300   292.37136     -44290.05      -2296.2793      1.9525358      3659.697     
      2400   314.53135     -44285.083     -10056.945      1.9525358      3659.697     
      2500   318.36978     -44282.394      3138.0747      1.9525358      3659.697     
      2600   303.09921     -44287.021      9501.509       1.9525358      3659.697     
      2700   289.29067     -44304.412      85.032593      1.9525358      3659.697     
      2800   273.74553     -44304.487     -1822.301       1.9525358      3659.697     
      2900   298.69053     -44317.052     -9247.0211      1.9525358      3659.697     
      3000   279.8848      -44271.102      3186.9141      1.9525358      3659.697     
      3100   304.53085     -44276.566      2190.4138      1.9525358      3659.697     
      3200   320.81074     -44295.455     -10252.827      1.9525358      3659.697     
      3300   280.17473     -44276.443      5200.9767      1.9525358      3659.697     
      3400   280.1679      -44290.634      608.08454      1.9525358      3659.697     
      3500   303.82172     -44308.612      7252.2435      1.9525358      3659.697     
      3600   308.75773     -44287.64      -1899.1094      1.9525358      3659.697     
      3700   320.07211     -44277.425     -3457.526       1.9525358      3659.697     
      3800   292.9438      -44268.558     -12847.436      1.9525358      3659.697     
      3900   303.14934     -44295.845     -1717.9318      1.9525358      3659.697     
      4000   314.71741     -44317.723     -6187.5512      1.9525358      3659.697     
      4100   285.87726     -44293.283     -1529.9656      1.9525358      3659.697     
      4200   299.89469     -44308.362     -10641.036      1.9525358      3659.697     
      4300   295.99306     -44302.393     -6387.7763      1.9525358      3659.697     
      4400   287.33314     -44291.823     -13756.704      1.9525358      3659.697     
      4500   305.73471     -44310.325      3304.1786      1.9525358      3659.697     
      4600   309.15862     -44300.972      6386.6518      1.9525358      3659.697     
      4700   303.77823     -44296.993     -5592.3991      1.9525358      3659.697     
      4800   277.39703     -44289.828     -1950.2303      1.9525358      3659.697     
      4900   295.71786     -44324.85      -1097.1783      1.9525358      3659.697     
      5000   293.20709     -44324.632     -6669.2567      1.9525358      3659.697     
Loop time of 293.712 on 8 procs for 5000 steps with 366 atoms

Performance: 0.735 ns/day, 32.635 hours/ns, 17.023 timesteps/s, 6.231 katom-step/s
99.0% CPU use with 8 MPI tasks x 1 OpenMP threads

MPI task timing breakdown:
Section |  min time  |  avg time  |  max time  |%varavg| %total
---------------------------------------------------------------
Pair    | 172.46     | 229.08     | 250.72     | 210.8 | 77.99
Bond    | 0.0016421  | 0.0019154  | 0.0022261  |   0.4 |  0.00
Neigh   | 12.409     | 16.369     | 18.049     |  55.4 |  5.57
Comm    | 3.5553     | 25.233     | 81.8       | 634.8 |  8.59
Output  | 0.0027113  | 0.002934   | 0.0042865  |   0.9 |  0.00
Modify  | 21.198     | 22.923     | 26.921     |  47.4 |  7.80
Other   |            | 0.1068     |            |       |  0.04

Nlocal:          45.75 ave          52 max          36 min
Histogram: 1 0 1 1 0 0 1 1 0 3
Nghost:         3557.5 ave        3600 max        3517 min
Histogram: 1 0 1 1 2 1 0 0 1 1
Neighs:        32065.6 ave       36336 max       25715 min
Histogram: 1 0 2 0 0 0 1 1 0 3

Total # of neighbors = 256525
Ave neighs/atom = 700.88798
Ave special neighs/atom = 0
Neighbor list builds = 500
Dangerous builds not checked
System init for write_data ...
System init for write_restart ...
OMP_NUM_THREADS environment is not set. Defaulting to 1 thread. (src/comm.cpp:98)
  using 1 OpenMP thread(s) per MPI task
Reading restart file ...
  restart file = 2 Aug 2023, LAMMPS = 2 Aug 2023
  restoring atom style full from restart
  triclinic box = (0 0 0) to (16.1249 13.4224 16.909) with tilt (-8.2539 0.6162 -0.6491)
WARNING: Triclinic box skew is large. LAMMPS will run inefficiently. (src/domain.cpp:220)
  2 by 2 by 2 MPI processor grid
  pair style reaxff stores no restart info
  366 atoms
Finding 1-2 1-3 1-4 neighbors ...
  special bond factors lj:    0        0        0       
  special bond factors coul:  0        0        0       
     0 = max # of 1-2 neighbors
     0 = max # of 1-3 neighbors
     0 = max # of 1-4 neighbors
     1 = max # of special neighbors
  special bonds CPU = 0.000 seconds
  read_restart CPU = 0.004 seconds
*****debug*****
xy = -8.2538999999999997925, deltaxy = 0.82539
xz = 0.61619999999999996998, deltaxz = -0.06162
yz = -0.6491000000000000103, deltayz = 0.06491
*****
*****Negative-deform 1 starts.*****
Resetting global fix info from restart file:
  fix style: nvt, fix ID: fnvt
All restart file global fix info was re-assigned
Neighbor list info ...
  update: every = 10 steps, delay = 0 steps, check = no
  max neighbors/atom: 2000, page size: 100000
  master list distance cutoff = 12
  ghost atom cutoff = 12
  binsize = 6, bins = 5 3 3
  2 neighbor lists, perpetual/occasional/extra = 2 0 0
  (1) pair reaxff, perpetual
      attributes: half, newton off, ghost
      pair build: half/bin/newtoff/ghost
      stencil: full/ghost/bin/3d
      bin: standard
  (2) fix qeq/reaxff, perpetual, copy from (1)
      attributes: half, newton off
      pair build: copy
      stencil: none
      bin: none
Setting up Verlet run ...
  Unit style    : real
  Current step  : 0
  Time step     : 0.5
Per MPI rank memory allocation (min/avg/max) = 137.4 | 138.7 | 139.9 Mbytes
   Step          Temp          PotEng         Press          Volume           Lx             Ly             Lz      
         0   293.20709     -44324.632     -6669.185       3659.697       16.1249        13.4224        16.909       
       100   296.68118     -44298.341     -1083.6335      3652.3776      16.09265       13.4224        16.909       
       200   297.87405     -44275.348     -2065.8496      3645.0582      16.0604        13.4224        16.909       
       300   302.61207     -44286.923      8665.4093      3637.7388      16.028151      13.4224        16.909       
       400   312.00367     -44312.821      9592.7114      3630.4194      15.995901      13.4224        16.909       
       500   304.09433     -44314.292      2928.7092      3623.1         15.963651      13.4224        16.909       
       600   304.92287     -44323.152      8197.3501      3615.7806      15.931401      13.4224        16.909       
       700   284.05945     -44307.868      11122.567      3608.4613      15.899151      13.4224        16.909       
       800   279.56409     -44317.545      278.37117      3601.1419      15.866902      13.4224        16.909       
       900   274.85679     -44325.133      25130.222      3593.8225      15.834652      13.4224        16.909       
      1000   270.12218     -44324.247      10545.726      3586.5031      15.802402      13.4224        16.909       
      1100   278.23296     -44311.814      9306.0166      3579.1837      15.770152      13.4224        16.909       
      1200   292.21534     -44290.287      20554.948      3571.8643      15.737902      13.4224        16.909       
      1300   308.31503     -44290.291      9901.0072      3564.5449      15.705653      13.4224        16.909       
      1400   323.52398     -44316.613      9638.4826      3557.2255      15.673403      13.4224        16.909       
      1500   304.4268      -44310.622      5060.0948      3549.9061      15.641153      13.4224        16.909       
      1600   299.55595     -44302.649      8980.126       3542.5867      15.608903      13.4224        16.909       
      1700   295.7408      -44305.427      11872.04       3535.2673      15.576653      13.4224        16.909       
      1800   314.08685     -44329.863      25136.509      3527.9479      15.544404      13.4224        16.909       
      1900   300.23317     -44308.507      21559.556      3520.6285      15.512154      13.4224        16.909       
      2000   296.00378     -44304.778      17140.527      3513.3091      15.479904      13.4224        16.909       
      2100   282.41439     -44328.886      39717.747      3505.9897      15.447654      13.4224        16.909       
      2200   294.97391     -44323.704      28348.162      3498.6703      15.415404      13.4224        16.909       
      2300   312.02393     -44311.354      30459.803      3491.3509      15.383155      13.4224        16.909       
      2400   309.21615     -44287.425      23252.03       3484.0316      15.350905      13.4224        16.909       
      2500   304.45695     -44287.472      22972.18       3476.7122      15.318655      13.4224        16.909       
      2600   289.98932     -44300.806      19218.728      3469.3928      15.286405      13.4224        16.909       
      2700   288.9393      -44293.51       27289.564      3462.0734      15.254155      13.4224        16.909       
      2800   299.99346     -44279.032      21144.889      3454.754       15.221906      13.4224        16.909       
      2900   310.29053     -44266.538      30735.539      3447.4346      15.189656      13.4224        16.909       
      3000   318.36507     -44269.688      35820.959      3440.1152      15.157406      13.4224        16.909       
      3100   294.22035     -44274.895      35937.301      3432.7958      15.125156      13.4224        16.909       
      3200   300.32662     -44280.299      47398.068      3425.4764      15.092906      13.4224        16.909       
      3300   303.59761     -44272.072      32242.627      3418.157       15.060657      13.4224        16.909       
      3400   312.39715     -44281.419      35844.516      3410.8376      15.028407      13.4224        16.909       
      3500   289.91438     -44274.565      25925.558      3403.5182      14.996157      13.4224        16.909       
      3600   293.80785     -44279.194      30117.644      3396.1988      14.963907      13.4224        16.909       
      3700   301.54952     -44261.628      58175.036      3388.8794      14.931657      13.4224        16.909       
      3800   334.1833      -44254.318      30671.218      3381.56        14.899408      13.4224        16.909       
      3900   310.64402     -44241.091      48548.58       3374.2406      14.867158      13.4224        16.909       
      4000   319.45226     -44266.298      57661.705      3366.9212      14.834908      13.4224        16.909       
      4100   285.58463     -44246.111      37238.763      3359.6019      14.802658      13.4224        16.909       
      4200   288.3281      -44254.63       43990.879      3352.2825      14.770408      13.4224        16.909       
      4300   281.90432     -44241.962      44959.988      3344.9631      14.738159      13.4224        16.909       
      4400   311.65026     -44252.459      35396.877      3337.6437      14.705909      13.4224        16.909       
      4500   327.1772      -44232.319      52625.517      3330.3243      14.673659      13.4224        16.909       
      4600   305.6565      -44209.245      49867.291      3323.0049      14.641409      13.4224        16.909       
      4700   301.86535     -44227.927      47751.205      3315.6855      14.609159      13.4224        16.909       
      4800   320.05599     -44248.512      33812.027      3308.3661      14.57691       13.4224        16.909       
      4900   311.01415     -44243.706      52983.886      3301.0467      14.54466       13.4224        16.909       
      5000   294.77672     -44226.627      46518.136      3293.7273      14.51241       13.4224        16.909       
Loop time of 324.205 on 8 procs for 5000 steps with 366 atoms

Performance: 0.666 ns/day, 36.023 hours/ns, 15.422 timesteps/s, 5.645 katom-step/s
98.8% CPU use with 8 MPI tasks x 1 OpenMP threads

MPI task timing breakdown:
Section |  min time  |  avg time  |  max time  |%varavg| %total
---------------------------------------------------------------
Pair    | 227.71     | 255.64     | 274.89     |  93.8 | 78.85
Bond    | 0.0017191  | 0.0020138  | 0.00232    |   0.4 |  0.00
Neigh   | 16.828     | 19.419     | 20.856     |  27.1 |  5.99
Comm    | 3.9805     | 23.313     | 51.324     | 311.3 |  7.19
Output  | 0.017863   | 0.021348   | 0.023691   |   1.1 |  0.01
Modify  | 24.269     | 25.694     | 28.216     |  23.2 |  7.93
Other   |            | 0.115      |            |       |  0.04

Nlocal:          45.75 ave          54 max          35 min
Histogram: 1 0 0 1 1 1 1 1 1 1
Nghost:        3807.75 ave        3874 max        3734 min
Histogram: 1 0 1 1 1 0 1 1 1 1
Neighs:        35656.5 ave       42266 max       27775 min
Histogram: 1 0 0 2 0 2 0 2 0 1

Total # of neighbors = 285252
Ave neighs/atom = 779.37705
Ave special neighs/atom = 0
Neighbor list builds = 500
Dangerous builds not checked
OMP_NUM_THREADS environment is not set. Defaulting to 1 thread. (src/comm.cpp:98)
  using 1 OpenMP thread(s) per MPI task
Reading restart file ...
  restart file = 2 Aug 2023, LAMMPS = 2 Aug 2023
  restoring atom style full from restart
  triclinic box = (0 0 0) to (16.1249 13.4224 16.909) with tilt (-8.2539 0.6162 -0.6491)
WARNING: Triclinic box skew is large. LAMMPS will run inefficiently. (src/domain.cpp:220)
  2 by 2 by 2 MPI processor grid
  pair style reaxff stores no restart info
  366 atoms
Finding 1-2 1-3 1-4 neighbors ...
  special bond factors lj:    0        0        0       
  special bond factors coul:  0        0        0       
     0 = max # of 1-2 neighbors
     0 = max # of 1-3 neighbors
     0 = max # of 1-4 neighbors
     1 = max # of special neighbors
  special bonds CPU = 0.000 seconds
  read_restart CPU = 0.003 seconds
*****Positive-deform 1 starts.*****
Resetting global fix info from restart file:
  fix style: nvt, fix ID: fnvt
All restart file global fix info was re-assigned
Neighbor list info ...
  update: every = 10 steps, delay = 0 steps, check = no
  max neighbors/atom: 2000, page size: 100000
  master list distance cutoff = 12
  ghost atom cutoff = 12
  binsize = 6, bins = 5 3 3
  2 neighbor lists, perpetual/occasional/extra = 2 0 0
  (1) pair reaxff, perpetual
      attributes: half, newton off, ghost
      pair build: half/bin/newtoff/ghost
      stencil: full/ghost/bin/3d
      bin: standard
  (2) fix qeq/reaxff, perpetual, copy from (1)
      attributes: half, newton off
      pair build: copy
      stencil: none
      bin: none
Setting up Verlet run ...
  Unit style    : real
  Current step  : 0
  Time step     : 0.5
Per MPI rank memory allocation (min/avg/max) = 137.4 | 138.7 | 139.9 Mbytes
   Step          Temp          PotEng         Press          Volume           Lx             Ly             Lz      
         0   293.20709     -44324.632     -6669.185       3659.697       16.1249        13.4224        16.909       
       100   296.76714     -44298.603     -1052.713       3667.0164      16.15715       13.4224        16.909       
       200   308.24073     -44282.283     -8519.5374      3674.3358      16.1894        13.4224        16.909       
       300   305.94894     -44287.951     -6100.5813      3681.6552      16.221649      13.4224        16.909       
       400   299.82713     -44302.009      2214.1054      3688.9746      16.253899      13.4224        16.909       
       500   314.04536     -44318.602     -10745.767      3696.294       16.286149      13.4224        16.909       
       600   276.56411     -44271.081     -9302.7213      3703.6134      16.318399      13.4224        16.909       
       700   294.77731     -44272.705     -2351.5973      3710.9328      16.350649      13.4224        16.909       
       800   325.57842     -44275.157     -5121.6364      3718.2522      16.382898      13.4224        16.909       
       900   312.70563     -44256.318     -11169.794      3725.5716      16.415148      13.4224        16.909       
      1000   305.67444     -44276.588     -10351.404      3732.891       16.447398      13.4224        16.909       
      1100   295.15318     -44276.127     -10796.404      3740.2103      16.479648      13.4224        16.909       
      1200   296.38975     -44266.465     -11741.58       3747.5297      16.511898      13.4224        16.909       
      1300   311.6557      -44253.985     -6952.1296      3754.8491      16.544147      13.4224        16.909       
      1400   303.96805     -44228.071     -14972.089      3762.1685      16.576397      13.4224        16.909       
      1500   312.54705     -44241.796     -17457.611      3769.4879      16.608647      13.4224        16.909       
      1600   289.81474     -44246.197     -18126.186      3776.8073      16.640897      13.4224        16.909       
      1700   311.8817      -44257.922     -24828.129      3784.1267      16.673147      13.4224        16.909       
      1800   308.21827     -44247.794     -15073.209      3791.4461      16.705396      13.4224        16.909       
      1900   294.09213     -44236.056     -23310.424      3798.7655      16.737646      13.4224        16.909       
      2000   310.74059     -44248.057     -17739.176      3806.0849      16.769896      13.4224        16.909       
      2100   296.53706     -44249.847     -15545.996      3813.4043      16.802146      13.4224        16.909       
      2200   287.81566     -44244.251     -14908.442      3820.7237      16.834396      13.4224        16.909       
      2300   288.50512     -44214.714     -35148.855      3828.0431      16.866645      13.4224        16.909       
      2400   296.80056     -44191.887     -26824.456      3835.3625      16.898895      13.4224        16.909       
      2500   306.05623     -44190.574     -18730.717      3842.6819      16.931145      13.4224        16.909       
      2600   293.14669     -44190.586     -30843.801      3850.0013      16.963395      13.4224        16.909       
      2700   302.82695     -44210.478     -25392.967      3857.3206      16.995645      13.4224        16.909       
      2800   300.44173     -44200.406     -26102.126      3864.64        17.027894      13.4224        16.909       
      2900   297.45051     -44183.296     -26280.156      3871.9594      17.060144      13.4224        16.909       
      3000   317.57806     -44166.002     -31439.87       3879.2788      17.092394      13.4224        16.909       
      3100   307.41565     -44135.326     -23533.122      3886.5982      17.124644      13.4224        16.909       
      3200   305.77329     -44150.363     -29476.222      3893.9176      17.156894      13.4224        16.909       
      3300   305.94134     -44162.108     -18401.21       3901.237       17.189143      13.4224        16.909       
      3400   295.09659     -44159.974     -26298.34       3908.5564      17.221393      13.4224        16.909       
      3500   286.20486     -44147.829     -19357.617      3915.8758      17.253643      13.4224        16.909       
      3600   320.71179     -44162.521     -28888.512      3923.1952      17.285893      13.4224        16.909       
      3700   318.26363     -44122.019     -28391.683      3930.5146      17.318143      13.4224        16.909       
      3800   316.54694     -44112.16      -21707.537      3937.834       17.350392      13.4224        16.909       
      3900   311.13829     -44136.532     -23081.759      3945.1534      17.382642      13.4224        16.909       
      4000   294.67605     -44132.958     -24011.306      3952.4728      17.414892      13.4224        16.909       
      4100   307.91413     -44140.393     -25729.793      3959.7922      17.447142      13.4224        16.909       
      4200   295.30077     -44112.48      -31720.859      3967.1116      17.479392      13.4224        16.909       
      4300   310.03577     -44097.649     -18031.212      3974.431       17.511641      13.4224        16.909       
      4400   325.34983     -44091.531     -32721.367      3981.7503      17.543891      13.4224        16.909       
      4500   305.97612     -44092.441     -23507.323      3989.0697      17.576141      13.4224        16.909       
      4600   317.18145     -44117.534     -23330.476      3996.3891      17.608391      13.4224        16.909       
      4700   283.87909     -44076.876     -24295.576      4003.7085      17.640641      13.4224        16.909       
      4800   306.01538     -44086.816     -26277.937      4011.0279      17.67289       13.4224        16.909       
      4900   310.38537     -44084.46      -32997.118      4018.3473      17.70514       13.4224        16.909       
      5000   286.6911      -44074.159     -33550.567      4025.6667      17.73739       13.4224        16.909       
Loop time of 274.469 on 8 procs for 5000 steps with 366 atoms

Performance: 0.787 ns/day, 30.497 hours/ns, 18.217 timesteps/s, 6.667 katom-step/s
99.0% CPU use with 8 MPI tasks x 1 OpenMP threads

MPI task timing breakdown:
Section |  min time  |  avg time  |  max time  |%varavg| %total
---------------------------------------------------------------
Pair    | 156.61     | 217.19     | 231.67     | 165.1 | 79.13
Bond    | 0.0016923  | 0.0019387  | 0.0022208  |   0.4 |  0.00
Neigh   | 11.696     | 15.946     | 16.981     |  42.0 |  5.81
Comm    | 4.1528     | 18.691     | 79.278     | 562.9 |  6.81
Output  | 0.017432   | 0.020336   | 0.022509   |   1.0 |  0.01
Modify  | 21.455     | 22.512     | 26.768     |  35.4 |  8.20
Other   |            | 0.1112     |            |       |  0.04

Nlocal:          45.75 ave          55 max          40 min
Histogram: 1 0 3 2 0 0 0 1 0 1
Nghost:         3362.5 ave        3401 max        3339 min
Histogram: 2 1 0 2 1 0 1 0 0 1
Neighs:        29095.8 ave       34695 max       25527 min
Histogram: 1 1 2 2 0 0 0 1 0 1

Total # of neighbors = 232766
Ave neighs/atom = 635.97268
Ave special neighs/atom = 0
Neighbor list builds = 500
Dangerous builds not checked
OMP_NUM_THREADS environment is not set. Defaulting to 1 thread. (src/comm.cpp:98)
  using 1 OpenMP thread(s) per MPI task
Reading restart file ...
  restart file = 2 Aug 2023, LAMMPS = 2 Aug 2023
  restoring atom style full from restart
  triclinic box = (0 0 0) to (16.1249 13.4224 16.909) with tilt (-8.2539 0.6162 -0.6491)
WARNING: Triclinic box skew is large. LAMMPS will run inefficiently. (src/domain.cpp:220)
  2 by 2 by 2 MPI processor grid
  pair style reaxff stores no restart info
  366 atoms
Finding 1-2 1-3 1-4 neighbors ...
  special bond factors lj:    0        0        0       
  special bond factors coul:  0        0        0       
     0 = max # of 1-2 neighbors
     0 = max # of 1-3 neighbors
     0 = max # of 1-4 neighbors
     1 = max # of special neighbors
  special bonds CPU = 0.000 seconds
  read_restart CPU = 0.004 seconds
*****debug*****
xy = -8.2538999999999997925, deltaxy = 0.82539
xz = 0.61619999999999996998, deltaxz = -0.06162
yz = -0.6491000000000000103, deltayz = 0.06491
*****
*****Negative-deform 2 starts.*****
Resetting global fix info from restart file:
  fix style: nvt, fix ID: fnvt
All restart file global fix info was re-assigned
Neighbor list info ...
  update: every = 10 steps, delay = 0 steps, check = no
  max neighbors/atom: 2000, page size: 100000
  master list distance cutoff = 12
  ghost atom cutoff = 12
  binsize = 6, bins = 5 3 3
  2 neighbor lists, perpetual/occasional/extra = 2 0 0
  (1) pair reaxff, perpetual
      attributes: half, newton off, ghost
      pair build: half/bin/newtoff/ghost
      stencil: full/ghost/bin/3d
      bin: standard
  (2) fix qeq/reaxff, perpetual, copy from (1)
      attributes: half, newton off
      pair build: copy
      stencil: none
      bin: none
Setting up Verlet run ...
  Unit style    : real
  Current step  : 0
  Time step     : 0.5
Per MPI rank memory allocation (min/avg/max) = 137.4 | 138.7 | 139.9 Mbytes
   Step          Temp          PotEng         Press          Volume           Lx             Ly             Lz      
         0   293.20709     -44324.632     -6669.185       3659.697       16.1249        13.4224        16.909       
       100   297.06467     -44298.332     -1488.1695      3652.3776      16.1249        13.395555      16.909       
       200   305.52646     -44283.273     -3686.1592      3645.0582      16.1249        13.36871       16.909       
       300   304.53738     -44290.017      5871.0125      3637.7388      16.1249        13.341866      16.909       
       400   308.66288     -44318.978      3041.8668      3630.4194      16.1249        13.315021      16.909       
       500   298.30989     -44313.792      3657.1137      3623.1         16.1249        13.288176      16.909       
       600   267.7722      -44275.767      6645.9945      3615.7806      16.1249        13.261331      16.909       
       700   298.56214     -44293.845     -2348.03        3608.4613      16.1249        13.234486      16.909       
       800   293.06926     -44280.968      5349.7445      3601.1419      16.1249        13.207642      16.909       
       900   294.16661     -44286.266      17395.072      3593.8225      16.1249        13.180797      16.909       
      1000   321.1051      -44321.866      3009.318       3586.5031      16.1249        13.153952      16.909       
      1100   286.4626      -44298.596     -1046.2837      3579.1837      16.1249        13.127107      16.909       
      1200   271.73142     -44286.155      531.31774      3571.8643      16.1249        13.100262      16.909       
      1300   306.44244     -44287.353      12547.804      3564.5449      16.1249        13.073418      16.909       
      1400   317.85763     -44284.709      19360.48       3557.2255      16.1249        13.046573      16.909       
      1500   331.91726     -44309.979      12005.403      3549.9061      16.1249        13.019728      16.909       
      1600   295.57286     -44288.447      10610.829      3542.5867      16.1249        12.992883      16.909       
      1700   300.5394      -44292.771      15767.461      3535.2673      16.1249        12.966038      16.909       
      1800   303.41752     -44293.589      16731.673      3527.9479      16.1249        12.939194      16.909       
      1900   279.90413     -44276.296      17061.926      3520.6285      16.1249        12.912349      16.909       
      2000   284.89065     -44301.475      13945.455      3513.3091      16.1249        12.885504      16.909       
      2100   288.82275     -44294.473      7240.0577      3505.9897      16.1249        12.858659      16.909       
      2200   311.79975     -44301.087      17423.72       3498.6703      16.1249        12.831814      16.909       
      2300   315.43473     -44275.222      19022.872      3491.3509      16.1249        12.80497       16.909       
      2400   314.92109     -44253.904      14179.992      3484.0316      16.1249        12.778125      16.909       
      2500   320.15156     -44291.061      16350.289      3476.7122      16.1249        12.75128       16.909       
      2600   289.84883     -44266.531      27100          3469.3928      16.1249        12.724435      16.909       
      2700   295.80768     -44262.286      24776.227      3462.0734      16.1249        12.69759       16.909       
      2800   309.52234     -44271.634      32523.659      3454.754       16.1249        12.670746      16.909       
      2900   310.77082     -44296.777      23424.497      3447.4346      16.1249        12.643901      16.909       
      3000   278.44026     -44265.283      43029.841      3440.1152      16.1249        12.617056      16.909       
      3100   297.96047     -44263.877      21567.937      3432.7958      16.1249        12.590211      16.909       
      3200   307.72977     -44244.545      27354.397      3425.4764      16.1249        12.563366      16.909       
      3300   300.88326     -44227.294      23116.316      3418.157       16.1249        12.536522      16.909       
      3400   306.60112     -44249.422      21748.391      3410.8376      16.1249        12.509677      16.909       
      3500   294.81963     -44271.882      37939.708      3403.5182      16.1249        12.482832      16.909       
      3600   292.84104     -44250.626      34913.494      3396.1988      16.1249        12.455987      16.909       
      3700   291.99649     -44219.522      39219.893      3388.8794      16.1249        12.429142      16.909       
      3800   315.84115     -44228.482      43891.412      3381.56        16.1249        12.402298      16.909       
      3900   305.36538     -44217.722      36679.771      3374.2406      16.1249        12.375453      16.909       
      4000   299.69059     -44228.312      36748.469      3366.9212      16.1249        12.348608      16.909       
      4100   295.92169     -44230.356      34041.603      3359.6019      16.1249        12.321763      16.909       
      4200   289.17557     -44208.083      40739.916      3352.2825      16.1249        12.294918      16.909       
      4300   305.26905     -44208.719      40179.095      3344.9631      16.1249        12.268074      16.909       
      4400   283.90214     -44188.443      27308.277      3337.6437      16.1249        12.241229      16.909       
      4500   303.68861     -44206.797      42340.106      3330.3243      16.1249        12.214384      16.909       
      4600   289.74492     -44190.38       33971.173      3323.0049      16.1249        12.187539      16.909       
      4700   307.41006     -44210.048      45661.045      3315.6855      16.1249        12.160694      16.909       
      4800   265.69466     -44193.984      39571.295      3308.3661      16.1249        12.13385       16.909       
      4900   283.21532     -44206.957      53130.281      3301.0467      16.1249        12.107005      16.909       
      5000   315.6208      -44213.667      45777.515      3293.7273      16.1249        12.08016       16.909       
Loop time of 327.33 on 8 procs for 5000 steps with 366 atoms

Performance: 0.660 ns/day, 36.370 hours/ns, 15.275 timesteps/s, 5.591 katom-step/s
99.0% CPU use with 8 MPI tasks x 1 OpenMP threads

MPI task timing breakdown:
Section |  min time  |  avg time  |  max time  |%varavg| %total
---------------------------------------------------------------
Pair    | 192.46     | 261.45     | 280.63     | 166.6 | 79.87
Bond    | 0.0017021  | 0.0020055  | 0.0023578  |   0.5 |  0.00
Neigh   | 14.222     | 18.333     | 19.321     |  38.1 |  5.60
Comm    | 2.5453     | 21.784     | 90.706     | 576.7 |  6.66
Output  | 0.017627   | 0.020054   | 0.022007   |   0.9 |  0.01
Modify  | 24.626     | 25.629     | 29.816     |  32.7 |  7.83
Other   |            | 0.1141     |            |       |  0.03

Nlocal:          45.75 ave          54 max          34 min
Histogram: 1 0 0 0 1 1 2 1 1 1
Nghost:        3989.38 ave        4059 max        3912 min
Histogram: 2 0 0 2 0 0 0 2 0 2
Neighs:        35591.4 ave       41572 max       26985 min
Histogram: 1 0 0 1 0 1 3 0 1 1

Total # of neighbors = 284731
Ave neighs/atom = 777.95355
Ave special neighs/atom = 0
Neighbor list builds = 500
Dangerous builds not checked
OMP_NUM_THREADS environment is not set. Defaulting to 1 thread. (src/comm.cpp:98)
  using 1 OpenMP thread(s) per MPI task
Reading restart file ...
  restart file = 2 Aug 2023, LAMMPS = 2 Aug 2023
  restoring atom style full from restart
  triclinic box = (0 0 0) to (16.1249 13.4224 16.909) with tilt (-8.2539 0.6162 -0.6491)
WARNING: Triclinic box skew is large. LAMMPS will run inefficiently. (src/domain.cpp:220)
  2 by 2 by 2 MPI processor grid
  pair style reaxff stores no restart info
  366 atoms
Finding 1-2 1-3 1-4 neighbors ...
  special bond factors lj:    0        0        0       
  special bond factors coul:  0        0        0       
     0 = max # of 1-2 neighbors
     0 = max # of 1-3 neighbors
     0 = max # of 1-4 neighbors
     1 = max # of special neighbors
  special bonds CPU = 0.000 seconds
  read_restart CPU = 0.003 seconds
*****Positive-deform 2 starts.*****
Resetting global fix info from restart file:
  fix style: nvt, fix ID: fnvt
All restart file global fix info was re-assigned
Neighbor list info ...
  update: every = 10 steps, delay = 0 steps, check = no
  max neighbors/atom: 2000, page size: 100000
  master list distance cutoff = 12
  ghost atom cutoff = 12
  binsize = 6, bins = 5 3 3
  2 neighbor lists, perpetual/occasional/extra = 2 0 0
  (1) pair reaxff, perpetual
      attributes: half, newton off, ghost
      pair build: half/bin/newtoff/ghost
      stencil: full/ghost/bin/3d
      bin: standard
  (2) fix qeq/reaxff, perpetual, copy from (1)
      attributes: half, newton off
      pair build: copy
      stencil: none
      bin: none
Setting up Verlet run ...
  Unit style    : real
  Current step  : 0
  Time step     : 0.5
Per MPI rank memory allocation (min/avg/max) = 137.4 | 138.7 | 139.9 Mbytes
   Step          Temp          PotEng         Press          Volume           Lx             Ly             Lz      
         0   293.20709     -44324.632     -6669.185       3659.697       16.1249        13.4224        16.909       
       100   296.3508      -44298.604     -792.20233      3667.0164      16.1249        13.449245      16.909       
       200   305.70284     -44284.707     -13162.923      3674.3358      16.1249        13.47609       16.909       
       300   317.3877      -44303.739     -4087.017       3681.6552      16.1249        13.502934      16.909       
       400   304.98111     -44316.856     -4482.6928      3688.9746      16.1249        13.529779      16.909       
       500   305.25933     -44320.269     -6234.6933      3696.294       16.1249        13.556624      16.909       
       600   304.04584     -44310.444     -4269.4317      3703.6134      16.1249        13.583469      16.909       
       700   283.21689     -44269.766     -9025.4791      3710.9328      16.1249        13.610314      16.909       
       800   316.07241     -44269.293     -16814.31       3718.2522      16.1249        13.637158      16.909       
       900   310.38644     -44241.55       5939.2769      3725.5716      16.1249        13.664003      16.909       
      1000   317.1808      -44281.457     -17518.978      3732.891       16.1249        13.690848      16.909       
      1100   301.46893     -44277.373     -13006.324      3740.2103      16.1249        13.717693      16.909       
      1200   305.06147     -44285.237     -16937.948      3747.5297      16.1249        13.744538      16.909       
      1300   303.6821      -44289.23      -9282.7557      3754.8491      16.1249        13.771382      16.909       
      1400   296.77079     -44290.422     -17832.967      3762.1685      16.1249        13.798227      16.909       
      1500   304.41377     -44313.77      -21189.277      3769.4879      16.1249        13.825072      16.909       
      1600   288.78557     -44309.46      -17783.129      3776.8073      16.1249        13.851917      16.909       
      1700   272.05986     -44271.221     -19704.368      3784.1267      16.1249        13.878762      16.909       
      1800   298.27758     -44257.952     -24438.785      3791.4461      16.1249        13.905606      16.909       
      1900   314.9107      -44272.202     -15311.959      3798.7655      16.1249        13.932451      16.909       
      2000   291.04905     -44261.404     -20708.876      3806.0849      16.1249        13.959296      16.909       
      2100   299.06201     -44281.02      -12822.962      3813.4043      16.1249        13.986141      16.909       
      2200   285.1041      -44268.565     -17269.749      3820.7237      16.1249        14.012986      16.909       
      2300   289.75192     -44264.654     -15495.143      3828.0431      16.1249        14.03983       16.909       
      2400   310.00724     -44275.878     -14027.471      3835.3625      16.1249        14.066675      16.909       
      2500   314.75494     -44269.57      -22076.062      3842.6819      16.1249        14.09352       16.909       
      2600   305.88585     -44255.739     -23713.676      3850.0013      16.1249        14.120365      16.909       
      2700   299.85347     -44262.926     -31136.962      3857.3206      16.1249        14.14721       16.909       
      2800   296.06546     -44277.523     -21973.266      3864.64        16.1249        14.174054      16.909       
      2900   281.48249     -44255.11      -32248.845      3871.9594      16.1249        14.200899      16.909       
      3000   297.66918     -44235.441     -33942.673      3879.2788      16.1249        14.227744      16.909       
      3100   305.79818     -44225.386     -20565.009      3886.5982      16.1249        14.254589      16.909       
      3200   306.05843     -44228.58      -23275.961      3893.9176      16.1249        14.281434      16.909       
      3300   300.48946     -44235.223     -18684.732      3901.237       16.1249        14.308278      16.909       
      3400   287.65593     -44227.912     -30045.001      3908.5564      16.1249        14.335123      16.909       
      3500   305.74853     -44237.762     -32978.579      3915.8758      16.1249        14.361968      16.909       
      3600   304.74631     -44223.425     -25708.321      3923.1952      16.1249        14.388813      16.909       
      3700   306.70292     -44221.41      -30751.64       3930.5146      16.1249        14.415658      16.909       
      3800   290.79794     -44194.431     -28787.937      3937.834       16.1249        14.442502      16.909       
      3900   294.55645     -44180.715     -39182.521      3945.1534      16.1249        14.469347      16.909       
      4000   290.37449     -44176.627     -36458.783      3952.4728      16.1249        14.496192      16.909       
      4100   289.42856     -44202.618     -30333.319      3959.7922      16.1249        14.523037      16.909       
      4200   298.34935     -44209.492     -35189.688      3967.1116      16.1249        14.549882      16.909       
      4300   298.87902     -44185.716     -36606.557      3974.431       16.1249        14.576726      16.909       
      4400   311.11978     -44178.101     -31509.25       3981.7503      16.1249        14.603571      16.909       
      4500   284.25388     -44143.17      -45649.04       3989.0697      16.1249        14.630416      16.909       
      4600   313.33893     -44171.842     -29515.091      3996.3891      16.1249        14.657261      16.909       
      4700   313.64485     -44170.795     -21623.58       4003.7085      16.1249        14.684106      16.909       
      4800   292.21105     -44155.401     -43370.055      4011.0279      16.1249        14.71095       16.909       
      4900   307.99341     -44172.07      -44833.194      4018.3473      16.1249        14.737795      16.909       
      5000   285.25964     -44152.733     -38713.185      4025.6667      16.1249        14.76464       16.909       
Loop time of 272.316 on 8 procs for 5000 steps with 366 atoms

Performance: 0.793 ns/day, 30.257 hours/ns, 18.361 timesteps/s, 6.720 katom-step/s
98.9% CPU use with 8 MPI tasks x 1 OpenMP threads

MPI task timing breakdown:
Section |  min time  |  avg time  |  max time  |%varavg| %total
---------------------------------------------------------------
Pair    | 156.01     | 219.27     | 230.41     | 161.7 | 80.52
Bond    | 0.001755   | 0.0019488  | 0.0022443  |   0.4 |  0.00
Neigh   | 12.035     | 15.864     | 16.839     |  36.9 |  5.83
Comm    | 3.9019     | 15.047     | 78.274     | 617.0 |  5.53
Output  | 0.018473   | 0.02112    | 0.023615   |   1.1 |  0.01
Modify  | 20.989     | 21.996     | 25.873     |  31.7 |  8.08
Other   |            | 0.1129     |            |       |  0.04

Nlocal:          45.75 ave          55 max          39 min
Histogram: 2 0 1 1 0 2 1 0 0 1
Nghost:        3204.12 ave        3256 max        3156 min
Histogram: 2 1 1 0 0 0 0 1 2 1
Neighs:          29098 ave       34660 max       25031 min
Histogram: 2 0 1 1 0 2 1 0 0 1

Total # of neighbors = 232784
Ave neighs/atom = 636.02186
Ave special neighs/atom = 0
Neighbor list builds = 500
Dangerous builds not checked
OMP_NUM_THREADS environment is not set. Defaulting to 1 thread. (src/comm.cpp:98)
  using 1 OpenMP thread(s) per MPI task
Reading restart file ...
  restart file = 2 Aug 2023, LAMMPS = 2 Aug 2023
  restoring atom style full from restart
  triclinic box = (0 0 0) to (16.1249 13.4224 16.909) with tilt (-8.2539 0.6162 -0.6491)
WARNING: Triclinic box skew is large. LAMMPS will run inefficiently. (src/domain.cpp:220)
  2 by 2 by 2 MPI processor grid
  pair style reaxff stores no restart info
  366 atoms
Finding 1-2 1-3 1-4 neighbors ...
  special bond factors lj:    0        0        0       
  special bond factors coul:  0        0        0       
     0 = max # of 1-2 neighbors
     0 = max # of 1-3 neighbors
     0 = max # of 1-4 neighbors
     1 = max # of special neighbors
  special bonds CPU = 0.001 seconds
  read_restart CPU = 0.004 seconds
*****debug*****
xy = -8.2538999999999997925, deltaxy = 0.82539
xz = 0.61619999999999996998, deltaxz = -0.06162
yz = -0.6491000000000000103, deltayz = 0.06491
*****
*****Negative-deform 3 starts.*****
Resetting global fix info from restart file:
  fix style: nvt, fix ID: fnvt
All restart file global fix info was re-assigned
Neighbor list info ...
  update: every = 10 steps, delay = 0 steps, check = no
  max neighbors/atom: 2000, page size: 100000
  master list distance cutoff = 12
  ghost atom cutoff = 12
  binsize = 6, bins = 5 3 3
  2 neighbor lists, perpetual/occasional/extra = 2 0 0
  (1) pair reaxff, perpetual
      attributes: half, newton off, ghost
      pair build: half/bin/newtoff/ghost
      stencil: full/ghost/bin/3d
      bin: standard
  (2) fix qeq/reaxff, perpetual, copy from (1)
      attributes: half, newton off
      pair build: copy
      stencil: none
      bin: none
Setting up Verlet run ...
  Unit style    : real
  Current step  : 0
  Time step     : 0.5
Per MPI rank memory allocation (min/avg/max) = 137.4 | 138.7 | 139.9 Mbytes
   Step          Temp          PotEng         Press          Volume           Lx             Ly             Lz      
         0   293.20709     -44324.632     -6669.185       3659.697       16.1249        13.4224        16.909       
       100   296.79085     -44298.558     -1016.527       3652.3776      16.1249        13.4224        16.875182    
       200   308.12217     -44286.337     -3959.684       3645.0582      16.1249        13.4224        16.841364    
       300   299.66789     -44281.928      6314.3633      3637.7388      16.1249        13.4224        16.807546    
       400   296.37907     -44302.77       10357.741      3630.4194      16.1249        13.4224        16.773728    
       500   304.84908     -44314.028     -1468.4865      3623.1         16.1249        13.4224        16.73991     
       600   296.20665     -44306.235      5937.6303      3615.7806      16.1249        13.4224        16.706092    
       700   301.28651     -44315.272     -897.2994       3608.4613      16.1249        13.4224        16.672274    
       800   286.59114     -44307.501      2813.5709      3601.1419      16.1249        13.4224        16.638456    
       900   273.72268     -44303.348      16931.022      3593.8225      16.1249        13.4224        16.604638    
      1000   308.73071     -44319.268      5091.6604      3586.5031      16.1249        13.4224        16.57082     
      1100   321.72366     -44298.631      3395.995       3579.1837      16.1249        13.4224        16.537002    
      1200   301.53139     -44269.107      7801.3254      3571.8643      16.1249        13.4224        16.503184    
      1300   299.00179     -44283.562      9141.7374      3564.5449      16.1249        13.4224        16.469366    
      1400   304.48778     -44314.684      12273.841      3557.2255      16.1249        13.4224        16.435548    
      1500   298.85907     -44299.689      9831.6486      3549.9061      16.1249        13.4224        16.40173     
      1600   304.95288     -44285.5        20292.948      3542.5867      16.1249        13.4224        16.367912    
      1700   306.7156      -44280.428      9433.2966      3535.2673      16.1249        13.4224        16.334094    
      1800   289.01912     -44283.927      10331.476      3527.9479      16.1249        13.4224        16.300276    
      1900   294.21914     -44301.711     -1078.8276      3520.6285      16.1249        13.4224        16.266458    
      2000   299.15529     -44293.157      15722.258      3513.3091      16.1249        13.4224        16.23264     
      2100   296.18524     -44265.824      22881.85       3505.9897      16.1249        13.4224        16.198822    
      2200   297.92753     -44263.149      17371.45       3498.6703      16.1249        13.4224        16.165004    
      2300   290.0202      -44288.979      13085.101      3491.3509      16.1249        13.4224        16.131186    
      2400   293.61238     -44286.536      15446.038      3484.0316      16.1249        13.4224        16.097368    
      2500   317.76542     -44297.749      28083.423      3476.7122      16.1249        13.4224        16.06355     
      2600   295.84468     -44263.345      25469.477      3469.3928      16.1249        13.4224        16.029732    
      2700   317.4796      -44278.798      22593.106      3462.0734      16.1249        13.4224        15.995914    
      2800   316.01069     -44292.889      22512.101      3454.754       16.1249        13.4224        15.962096    
      2900   279.16499     -44263.805      29346.802      3447.4346      16.1249        13.4224        15.928278    
      3000   307.32771     -44272.33       20862.787      3440.1152      16.1249        13.4224        15.89446     
      3100   334.16847     -44290.9        18739.349      3432.7958      16.1249        13.4224        15.860642    
      3200   311.32789     -44301.255      38815.766      3425.4764      16.1249        13.4224        15.826824    
      3300   288.53731     -44267.892      28054.132      3418.157       16.1249        13.4224        15.793006    
      3400   297.29028     -44252.675      30142.555      3410.8376      16.1249        13.4224        15.759188    
      3500   312.41894     -44230.288      41370.182      3403.5182      16.1249        13.4224        15.72537     
      3600   329.4073      -44240.249      43555.643      3396.1988      16.1249        13.4224        15.691552    
      3700   300.77384     -44236.25       27914.317      3388.8794      16.1249        13.4224        15.657734    
      3800   297.42624     -44243.384      34113.588      3381.56        16.1249        13.4224        15.623916    
      3900   295.34276     -44244.358      35850.657      3374.2406      16.1249        13.4224        15.590098    
      4000   296.96341     -44235.584      34923.421      3366.9212      16.1249        13.4224        15.55628     
      4100   280.48541     -44219.938      35029.349      3359.6019      16.1249        13.4224        15.522462    
      4200   301.57385     -44241.978      43161.38       3352.2825      16.1249        13.4224        15.488644    
      4300   301.5862      -44226.897      58440.893      3344.9631      16.1249        13.4224        15.454826    
      4400   289.13261     -44215.502      38490.485      3337.6437      16.1249        13.4224        15.421008    
      4500   298.31749     -44225.477      47856.75       3330.3243      16.1249        13.4224        15.38719     
      4600   308.17109     -44234.538      42194.571      3323.0049      16.1249        13.4224        15.353372    
      4700   272.86623     -44194.894      47715.817      3315.6855      16.1249        13.4224        15.319554    
      4800   277.96885     -44197.658      56926.442      3308.3661      16.1249        13.4224        15.285736    
      4900   298.35225     -44210.53       53471.244      3301.0467      16.1249        13.4224        15.251918    
      5000   293.52894     -44208.491      44670.13       3293.7273      16.1249        13.4224        15.2181      
Loop time of 320.722 on 8 procs for 5000 steps with 366 atoms

Performance: 0.673 ns/day, 35.636 hours/ns, 15.590 timesteps/s, 5.706 katom-step/s
98.9% CPU use with 8 MPI tasks x 1 OpenMP threads

MPI task timing breakdown:
Section |  min time  |  avg time  |  max time  |%varavg| %total
---------------------------------------------------------------
Pair    | 189.61     | 258.07     | 273.87     | 163.5 | 80.46
Bond    | 0.0017602  | 0.0019806  | 0.0022982  |   0.4 |  0.00
Neigh   | 13.821     | 17.964     | 18.908     |  37.9 |  5.60
Comm    | 3.4422     | 19.27      | 87.679     | 597.9 |  6.01
Output  | 0.017272   | 0.019723   | 0.021939   |   0.9 |  0.01
Modify  | 24.307     | 25.286     | 29.488     |  32.4 |  7.88
Other   |            | 0.1151     |            |       |  0.04

Nlocal:          45.75 ave          56 max          36 min
Histogram: 1 0 1 0 2 1 2 0 0 1
Nghost:        3837.38 ave        3878 max        3804 min
Histogram: 1 1 1 1 0 2 0 0 1 1
Neighs:        35568.1 ave       42680 max       28589 min
Histogram: 1 0 1 0 2 1 2 0 0 1

Total # of neighbors = 284545
Ave neighs/atom = 777.44536
Ave special neighs/atom = 0
Neighbor list builds = 500
Dangerous builds not checked
OMP_NUM_THREADS environment is not set. Defaulting to 1 thread. (src/comm.cpp:98)
  using 1 OpenMP thread(s) per MPI task
Reading restart file ...
  restart file = 2 Aug 2023, LAMMPS = 2 Aug 2023
  restoring atom style full from restart
  triclinic box = (0 0 0) to (16.1249 13.4224 16.909) with tilt (-8.2539 0.6162 -0.6491)
WARNING: Triclinic box skew is large. LAMMPS will run inefficiently. (src/domain.cpp:220)
  2 by 2 by 2 MPI processor grid
  pair style reaxff stores no restart info
  366 atoms
Finding 1-2 1-3 1-4 neighbors ...
  special bond factors lj:    0        0        0       
  special bond factors coul:  0        0        0       
     0 = max # of 1-2 neighbors
     0 = max # of 1-3 neighbors
     0 = max # of 1-4 neighbors
     1 = max # of special neighbors
  special bonds CPU = 0.000 seconds
  read_restart CPU = 0.003 seconds
*****Positive-deform 3 starts.*****
Resetting global fix info from restart file:
  fix style: nvt, fix ID: fnvt
All restart file global fix info was re-assigned
Neighbor list info ...
  update: every = 10 steps, delay = 0 steps, check = no
  max neighbors/atom: 2000, page size: 100000
  master list distance cutoff = 12
  ghost atom cutoff = 12
  binsize = 6, bins = 5 3 3
  2 neighbor lists, perpetual/occasional/extra = 2 0 0
  (1) pair reaxff, perpetual
      attributes: half, newton off, ghost
      pair build: half/bin/newtoff/ghost
      stencil: full/ghost/bin/3d
      bin: standard
  (2) fix qeq/reaxff, perpetual, copy from (1)
      attributes: half, newton off
      pair build: copy
      stencil: none
      bin: none
Setting up Verlet run ...
  Unit style    : real
  Current step  : 0
  Time step     : 0.5
Per MPI rank memory allocation (min/avg/max) = 137.4 | 138.7 | 139.9 Mbytes
   Step          Temp          PotEng         Press          Volume           Lx             Ly             Lz      
         0   293.20709     -44324.632     -6669.185       3659.697       16.1249        13.4224        16.909       
       100   296.58733     -44298.256     -1040.3346      3667.0164      16.1249        13.4224        16.942818    
       200   301.6415      -44276.33      -6024.741       3674.3358      16.1249        13.4224        16.976636    
       300   308.1739      -44293.682     -8552.3254      3681.6552      16.1249        13.4224        17.010454    
       400   301.11551     -44304.955      1267.4498      3688.9746      16.1249        13.4224        17.044272    
       500   298.14274     -44299.815     -9826.5226      3696.294       16.1249        13.4224        17.07809     
       600   279.52435     -44275.755      2150.7526      3703.6134      16.1249        13.4224        17.111908    
       700   293.15627     -44280.821     -4710.514       3710.9328      16.1249        13.4224        17.145726    
       800   269.51389     -44262.519     -11979.579      3718.2522      16.1249        13.4224        17.179544    
       900   271.84043     -44277.463     -7109.4573      3725.5716      16.1249        13.4224        17.213362    
      1000   287.91495     -44287.423     -4076.5678      3732.891       16.1249        13.4224        17.24718     
      1100   308.06777     -44274.449     -12779.67       3740.2103      16.1249        13.4224        17.280998    
      1200   336.93468     -44276.914     -24248.351      3747.5297      16.1249        13.4224        17.314816    
      1300   316.14218     -44248.647     -16897.914      3754.8491      16.1249        13.4224        17.348634    
      1400   295.92989     -44265.828     -21190.845      3762.1685      16.1249        13.4224        17.382452    
      1500   295.22619     -44276.22      -14360.117      3769.4879      16.1249        13.4224        17.41627     
      1600   302.08565     -44293.717     -15652.685      3776.8073      16.1249        13.4224        17.450088    
      1700   290.9778      -44288.11      -7026.8917      3784.1267      16.1249        13.4224        17.483906    
      1800   295.13629     -44283.446     -18432.896      3791.4461      16.1249        13.4224        17.517724    
      1900   293.29278     -44244.05      -34114.526      3798.7655      16.1249        13.4224        17.551542    
      2000   316.78298     -44244.392     -13927.078      3806.0849      16.1249        13.4224        17.58536     
      2100   303.16883     -44235.197     -19405.594      3813.4043      16.1249        13.4224        17.619178    
      2200   300.34063     -44246.588     -9749.4846      3820.7237      16.1249        13.4224        17.652996    
      2300   302.19865     -44251.985     -12086.902      3828.0431      16.1249        13.4224        17.686814    
      2400   307.62957     -44240.6       -19867.652      3835.3625      16.1249        13.4224        17.720632    
      2500   286.79048     -44215.656     -27812.887      3842.6819      16.1249        13.4224        17.75445     
      2600   299.63385     -44225.95      -21430.963      3850.0013      16.1249        13.4224        17.788268    
      2700   270.44944     -44192.485     -18384.573      3857.3206      16.1249        13.4224        17.822086    
      2800   292.67986     -44233.971     -26761.385      3864.64        16.1249        13.4224        17.855904    
      2900   280.36357     -44236.825     -20562.704      3871.9594      16.1249        13.4224        17.889722    
      3000   286.28637     -44219.314     -25771.522      3879.2788      16.1249        13.4224        17.92354     
      3100   307.68834     -44211.162     -18399.979      3886.5982      16.1249        13.4224        17.957358    
      3200   308.46883     -44199.383     -28613.512      3893.9176      16.1249        13.4224        17.991176    
      3300   314.58823     -44200.768     -11156.786      3901.237       16.1249        13.4224        18.024994    
      3400   303.61744     -44207.719     -19214.281      3908.5564      16.1249        13.4224        18.058812    
      3500   286.557       -44197.001     -18237.989      3915.8758      16.1249        13.4224        18.09263     
      3600   288.57594     -44206.585     -28007.48       3923.1952      16.1249        13.4224        18.126448    
      3700   281.77197     -44200.653     -21064.252      3930.5146      16.1249        13.4224        18.160266    
      3800   280.74224     -44173.855     -24237.903      3937.834       16.1249        13.4224        18.194084    
      3900   306.53298     -44166.285     -30772.503      3945.1534      16.1249        13.4224        18.227902    
      4000   326.12673     -44170.679     -34952.951      3952.4728      16.1249        13.4224        18.26172     
      4100   311.52074     -44163.591     -36157.904      3959.7922      16.1249        13.4224        18.295538    
      4200   305.15037     -44173.726     -24655.655      3967.1116      16.1249        13.4224        18.329356    
      4300   293.02188     -44156.18      -36469.922      3974.431       16.1249        13.4224        18.363174    
      4400   286.5182      -44132.074     -41406.859      3981.7503      16.1249        13.4224        18.396992    
      4500   313.57374     -44140.536     -30905.368      3989.0697      16.1249        13.4224        18.43081     
      4600   303.11228     -44149.005     -17908.778      3996.3891      16.1249        13.4224        18.464628    
      4700   276.46543     -44143.926     -33978.641      4003.7085      16.1249        13.4224        18.498446    
      4800   299.76801     -44156.26      -34476.723      4011.0279      16.1249        13.4224        18.532264    
      4900   313.76596     -44153.862     -28964.426      4018.3473      16.1249        13.4224        18.566082    
      5000   317.60753     -44120.936     -25893.059      4025.6667      16.1249        13.4224        18.5999      
Loop time of 277.437 on 8 procs for 5000 steps with 366 atoms

Performance: 0.779 ns/day, 30.826 hours/ns, 18.022 timesteps/s, 6.596 katom-step/s
98.9% CPU use with 8 MPI tasks x 1 OpenMP threads

MPI task timing breakdown:
Section |  min time  |  avg time  |  max time  |%varavg| %total
---------------------------------------------------------------
Pair    | 164.42     | 222.37     | 237.28     | 148.6 | 80.15
Bond    | 0.0017626  | 0.0019353  | 0.002237   |   0.4 |  0.00
Neigh   | 12.161     | 15.729     | 16.577     |  34.8 |  5.67
Comm    | 2.1392     | 17.102     | 74.998     | 535.5 |  6.16
Output  | 0.017174   | 0.019402   | 0.021432   |   0.9 |  0.01
Modify  | 21.299     | 22.11      | 25.742     |  29.8 |  7.97
Other   |            | 0.1076     |            |       |  0.04

Nlocal:          45.75 ave          50 max          39 min
Histogram: 1 0 1 1 0 0 0 2 0 3
Nghost:         3337.5 ave        3385 max        3298 min
Histogram: 1 0 1 2 2 0 0 0 1 1
Neighs:        29063.4 ave       31832 max       25068 min
Histogram: 1 0 1 1 0 0 2 0 1 2

Total # of neighbors = 232507
Ave neighs/atom = 635.26503
Ave special neighs/atom = 0
Neighbor list builds = 500
Dangerous builds not checked
OMP_NUM_THREADS environment is not set. Defaulting to 1 thread. (src/comm.cpp:98)
  using 1 OpenMP thread(s) per MPI task
Reading restart file ...
  restart file = 2 Aug 2023, LAMMPS = 2 Aug 2023
  restoring atom style full from restart
  triclinic box = (0 0 0) to (16.1249 13.4224 16.909) with tilt (-8.2539 0.6162 -0.6491)
WARNING: Triclinic box skew is large. LAMMPS will run inefficiently. (src/domain.cpp:220)
  2 by 2 by 2 MPI processor grid
  pair style reaxff stores no restart info
  366 atoms
Finding 1-2 1-3 1-4 neighbors ...
  special bond factors lj:    0        0        0       
  special bond factors coul:  0        0        0       
     0 = max # of 1-2 neighbors
     0 = max # of 1-3 neighbors
     0 = max # of 1-4 neighbors
     1 = max # of special neighbors
  special bonds CPU = 0.000 seconds
  read_restart CPU = 0.003 seconds
*****debug*****
xy = -8.2538999999999997925, deltaxy = 0.82539
xz = 0.61619999999999996998, deltaxz = -0.06162
yz = -0.6491000000000000103, deltayz = 0.06491
*****
*****Negative-deform 4 starts.*****
Resetting global fix info from restart file:
  fix style: nvt, fix ID: fnvt
All restart file global fix info was re-assigned
Neighbor list info ...
  update: every = 10 steps, delay = 0 steps, check = no
  max neighbors/atom: 2000, page size: 100000
  master list distance cutoff = 12
  ghost atom cutoff = 12
  binsize = 6, bins = 5 3 3
  2 neighbor lists, perpetual/occasional/extra = 2 0 0
  (1) pair reaxff, perpetual
      attributes: half, newton off, ghost
      pair build: half/bin/newtoff/ghost
      stencil: full/ghost/bin/3d
      bin: standard
  (2) fix qeq/reaxff, perpetual, copy from (1)
      attributes: half, newton off
      pair build: copy
      stencil: none
      bin: none
Setting up Verlet run ...
  Unit style    : real
  Current step  : 0
  Time step     : 0.5
Per MPI rank memory allocation (min/avg/max) = 137.4 | 138.7 | 139.9 Mbytes
   Step          Temp          PotEng         Press          Volume           Lx             Ly             Lz      
         0   293.20709     -44324.632     -6669.185       3659.697       16.1249        13.4224        16.909       
       100   296.65535     -44298.339     -1012.5353      3659.697       16.1249        13.4224        16.909       
       200   301.30338     -44278.512     -8947.4551      3659.697       16.1249        13.4224        16.909       
       300   311.66302     -44295.869      2647.0889      3659.697       16.1249        13.4224        16.909       
       400   293.40953     -44302.105     -665.4808       3659.697       16.1249        13.4224        16.909       
       500   299.96029     -44308.24      -570.6344       3659.697       16.1249        13.4224        16.909       
       600   297.32916     -44300.751     -1856.3787      3659.697       16.1249        13.4224        16.909       
       700   308.29306     -44300.044      2473.095       3659.697       16.1249        13.4224        16.909       
       800   284.84227     -44264.287     -6245.3883      3659.697       16.1249        13.4224        16.909       
       900   295.11376     -44293.46       788.7545       3659.697       16.1249        13.4224        16.909       
      1000   278.95328     -44292.889      3406.2086      3659.697       16.1249        13.4224        16.909       
      1100   290.73932     -44305.532     -10604.042      3659.697       16.1249        13.4224        16.909       
      1200   294.91176     -44286.068     -12077.427      3659.697       16.1249        13.4224        16.909       
      1300   294.30632     -44265.052      1493.4414      3659.697       16.1249        13.4224        16.909       
      1400   313.35041     -44269.191      9102.2046      3659.697       16.1249        13.4224        16.909       
      1500   314.34551     -44250.021     -5414.889       3659.697       16.1249        13.4224        16.909       
      1600   304.88757     -44270.152      7752.4828      3659.697       16.1249        13.4224        16.909       
      1700   318.28851     -44301.89       4173.7771      3659.697       16.1249        13.4224        16.909       
      1800   276.85226     -44270.504     -10990.048      3659.697       16.1249        13.4224        16.909       
      1900   297.21129     -44285.28       4825.6725      3659.697       16.1249        13.4224        16.909       
      2000   306.07463     -44280.893      2659.8406      3659.697       16.1249        13.4224        16.909       
      2100   299.57847     -44262.238     -8489.1806      3659.697       16.1249        13.4224        16.909       
      2200   303.68678     -44280.533      3397.5955      3659.697       16.1249        13.4224        16.909       
      2300   279.95434     -44278.485      1474.2572      3659.697       16.1249        13.4224        16.909       
      2400   289.64817     -44292.996     -1780.2577      3659.697       16.1249        13.4224        16.909       
      2500   273.36424     -44269.77      -7052.0106      3659.697       16.1249        13.4224        16.909       
      2600   298.33567     -44251.618     -6883.7944      3659.697       16.1249        13.4224        16.909       
      2700   318.94073     -44260.093     -4074.591       3659.697       16.1249        13.4224        16.909       
      2800   298.06382     -44248.261      6671.8202      3659.697       16.1249        13.4224        16.909       
      2900   292.28885     -44256.763      4997.0967      3659.697       16.1249        13.4224        16.909       
      3000   298.76854     -44281.218      6686.4511      3659.697       16.1249        13.4224        16.909       
      3100   291.96563     -44275.193     -3694.2614      3659.697       16.1249        13.4224        16.909       
      3200   288.15688     -44263.926     -3682.2195      3659.697       16.1249        13.4224        16.909       
      3300   304.95331     -44271.939      1896.9346      3659.697       16.1249        13.4224        16.909       
      3400   296.2588      -44247.528      3686.6603      3659.697       16.1249        13.4224        16.909       
      3500   300.11046     -44243.89      -4998.8514      3659.697       16.1249        13.4224        16.909       
      3600   309.95697     -44268.589      6543.3544      3659.697       16.1249        13.4224        16.909       
      3700   282.82912     -44265.226     -2921.6788      3659.697       16.1249        13.4224        16.909       
      3800   305.7427      -44277.432     -3971.6364      3659.697       16.1249        13.4224        16.909       
      3900   274.75588     -44221.121     -62.089786      3659.697       16.1249        13.4224        16.909       
      4000   307.94119     -44222.247     -1624.3369      3659.697       16.1249        13.4224        16.909       
      4100   335.54093     -44220.354     -4977.9075      3659.697       16.1249        13.4224        16.909       
      4200   303.58268     -44225.655     -5705.6511      3659.697       16.1249        13.4224        16.909       
      4300   301.85076     -44243.298     -5712.4144      3659.697       16.1249        13.4224        16.909       
      4400   287.01811     -44240.52       12673.495      3659.697       16.1249        13.4224        16.909       
      4500   306.14615     -44258.851      3743.1018      3659.697       16.1249        13.4224        16.909       
      4600   313.41843     -44253.628     -11958.465      3659.697       16.1249        13.4224        16.909       
      4700   309.76755     -44229.603     -1990.7636      3659.697       16.1249        13.4224        16.909       
      4800   298.77125     -44199.454     -4560.0523      3659.697       16.1249        13.4224        16.909       
      4900   307.4713      -44213.523     -1395.9218      3659.697       16.1249        13.4224        16.909       
      5000   299.3526      -44228.761      11991.444      3659.697       16.1249        13.4224        16.909       
Loop time of 302.125 on 8 procs for 5000 steps with 366 atoms

Performance: 0.715 ns/day, 33.569 hours/ns, 16.549 timesteps/s, 6.057 katom-step/s
99.0% CPU use with 8 MPI tasks x 1 OpenMP threads

MPI task timing breakdown:
Section |  min time  |  avg time  |  max time  |%varavg| %total
---------------------------------------------------------------
Pair    | 176.28     | 241.64     | 258.27     | 160.5 | 79.98
Bond    | 0.0017602  | 0.0019784  | 0.0021919  |   0.3 |  0.00
Neigh   | 13.531     | 17.753     | 18.612     |  38.2 |  5.88
Comm    | 2.0779     | 18.756     | 84.064     | 575.8 |  6.21
Output  | 0.016704   | 0.019039   | 0.021145   |   1.0 |  0.01
Modify  | 22.93      | 23.841     | 28.133     |  33.5 |  7.89
Other   |            | 0.1124     |            |       |  0.04

Nlocal:          45.75 ave          54 max          34 min
Histogram: 1 0 0 0 1 1 1 3 0 1
Nghost:        3617.75 ave        3668 max        3553 min
Histogram: 1 0 0 2 0 2 0 0 2 1
Neighs:        32030.9 ave       37235 max       24215 min
Histogram: 1 0 0 0 1 1 1 3 0 1

Total # of neighbors = 256247
Ave neighs/atom = 700.12842
Ave special neighs/atom = 0
Neighbor list builds = 500
Dangerous builds not checked
OMP_NUM_THREADS environment is not set. Defaulting to 1 thread. (src/comm.cpp:98)
  using 1 OpenMP thread(s) per MPI task
Reading restart file ...
  restart file = 2 Aug 2023, LAMMPS = 2 Aug 2023
  restoring atom style full from restart
  triclinic box = (0 0 0) to (16.1249 13.4224 16.909) with tilt (-8.2539 0.6162 -0.6491)
WARNING: Triclinic box skew is large. LAMMPS will run inefficiently. (src/domain.cpp:220)
  2 by 2 by 2 MPI processor grid
  pair style reaxff stores no restart info
  366 atoms
Finding 1-2 1-3 1-4 neighbors ...
  special bond factors lj:    0        0        0       
  special bond factors coul:  0        0        0       
     0 = max # of 1-2 neighbors
     0 = max # of 1-3 neighbors
     0 = max # of 1-4 neighbors
     1 = max # of special neighbors
  special bonds CPU = 0.000 seconds
  read_restart CPU = 0.002 seconds
*****Positive-deform 4 starts.*****
Resetting global fix info from restart file:
  fix style: nvt, fix ID: fnvt
All restart file global fix info was re-assigned
Neighbor list info ...
  update: every = 10 steps, delay = 0 steps, check = no
  max neighbors/atom: 2000, page size: 100000
  master list distance cutoff = 12
  ghost atom cutoff = 12
  binsize = 6, bins = 5 3 3
  2 neighbor lists, perpetual/occasional/extra = 2 0 0
  (1) pair reaxff, perpetual
      attributes: half, newton off, ghost
      pair build: half/bin/newtoff/ghost
      stencil: full/ghost/bin/3d
      bin: standard
  (2) fix qeq/reaxff, perpetual, copy from (1)
      attributes: half, newton off
      pair build: copy
      stencil: none
      bin: none
Setting up Verlet run ...
  Unit style    : real
  Current step  : 0
  Time step     : 0.5
Per MPI rank memory allocation (min/avg/max) = 137.4 | 138.7 | 139.9 Mbytes
   Step          Temp          PotEng         Press          Volume           Lx             Ly             Lz      
         0   293.20709     -44324.632     -6669.185       3659.697       16.1249        13.4224        16.909       
       100   296.67451     -44298.487     -1047.7999      3659.697       16.1249        13.4224        16.909       
       200   301.32055     -44277.874     -7216.8838      3659.697       16.1249        13.4224        16.909       
       300   309.67191     -44295.883     -9372.1356      3659.697       16.1249        13.4224        16.909       
       400   295.69501     -44308.216      7719.3533      3659.697       16.1249        13.4224        16.909       
       500   295.36038     -44314.676     -7777.105       3659.697       16.1249        13.4224        16.909       
       600   283.79363     -44295.38       17.633665      3659.697       16.1249        13.4224        16.909       
       700   304.26028     -44296.988     -6623.9418      3659.697       16.1249        13.4224        16.909       
       800   305.72649     -44285.616     -12776.16       3659.697       16.1249        13.4224        16.909       
       900   311.55533     -44302.002     -4597.4595      3659.697       16.1249        13.4224        16.909       
      1000   304.87901     -44312.175     -910.29327      3659.697       16.1249        13.4224        16.909       
      1100   294.01729     -44310.988     -2271.4858      3659.697       16.1249        13.4224        16.909       
      1200   291.68747     -44302.009      4047.947       3659.697       16.1249        13.4224        16.909       
      1300   310.2734      -44287.768      6243.3657      3659.697       16.1249        13.4224        16.909       
      1400   310.50665     -44268.508      2337.8065      3659.697       16.1249        13.4224        16.909       
      1500   303.11274     -44284.322     -2358.3601      3659.697       16.1249        13.4224        16.909       
      1600   295.9206      -44293.17      -9726.5349      3659.697       16.1249        13.4224        16.909       
      1700   293.66684     -44300.69      -1849.7803      3659.697       16.1249        13.4224        16.909       
      1800   304.80038     -44313.981     -6812.5212      3659.697       16.1249        13.4224        16.909       
      1900   301.81023     -44315.505     -179.46844      3659.697       16.1249        13.4224        16.909       
      2000   284.34794     -44309.451     -11611.568      3659.697       16.1249        13.4224        16.909       
      2100   291.86802     -44313.582      1024.909       3659.697       16.1249        13.4224        16.909       
      2200   313.35908     -44311.014     -9408.9185      3659.697       16.1249        13.4224        16.909       
      2300   314.62701     -44285.068     -1841.0581      3659.697       16.1249        13.4224        16.909       
      2400   314.70499     -44293.295     -5841.9593      3659.697       16.1249        13.4224        16.909       
      2500   305.48306     -44300.368     -1673.6717      3659.697       16.1249        13.4224        16.909       
      2600   313.46163     -44308.471      859.44602      3659.697       16.1249        13.4224        16.909       
      2700   284.56411     -44275.755      14654.42       3659.697       16.1249        13.4224        16.909       
      2800   300.36004     -44291.811      1869.9423      3659.697       16.1249        13.4224        16.909       
      2900   289.87266     -44292.874      6223.2628      3659.697       16.1249        13.4224        16.909       
      3000   292.03902     -44316.913      3172.4567      3659.697       16.1249        13.4224        16.909       
      3100   283.83746     -44294.269      7582.418       3659.697       16.1249        13.4224        16.909       
      3200   284.38722     -44261.513     -9578.7901      3659.697       16.1249        13.4224        16.909       
      3300   280.21631     -44246.374     -981.72408      3659.697       16.1249        13.4224        16.909       
[...]
      4700   287.45465     -44240.74      -7202.4885      3659.697       16.1249        13.4224        16.909       
      4800   319.81557     -44286.674     -1170.6784      3659.697       16.1249        13.4224        16.909       
      4900   298.89872     -44275.375      5996.8687      3659.697       16.1249        13.4224        16.909       
      5000   286.98605     -44279.385     -8186.5537      3659.697       16.1249        13.4224        16.909       
Loop time of 243.718 on 8 procs for 5000 steps with 366 atoms

Performance: 0.886 ns/day, 27.080 hours/ns, 20.516 timesteps/s, 7.509 katom-step/s
99.0% CPU use with 8 MPI tasks x 1 OpenMP threads

MPI task timing breakdown:
Section |  min time  |  avg time  |  max time  |%varavg| %total
---------------------------------------------------------------
Pair    | 154.89     | 174.39     | 202.82     | 164.4 | 71.55
Bond    | 0.0012113  | 0.0014683  | 0.0017858  |   0.5 |  0.00
Neigh   | 12.189     | 13.903     | 16.515     |  50.5 |  5.70
Comm    | 5.6729     | 34.118     | 53.589     | 371.9 | 14.00
Output  | 0.014046   | 0.015796   | 0.017098   |   0.7 |  0.01
Modify  | 18.548     | 21.19      | 22.888     |  40.8 |  8.69
Other   |            | 0.1016     |            |       |  0.04

Nlocal:          45.75 ave          55 max          40 min
Histogram: 2 1 1 1 0 1 0 1 0 1
Nghost:        3537.62 ave        3575 max        3500 min
Histogram: 1 1 1 1 0 1 0 1 0 2
Neighs:        32055.2 ave       38444 max       28170 min
Histogram: 2 1 1 1 0 1 0 1 0 1

Total # of neighbors = 256442
Ave neighs/atom = 700.6612
Ave special neighs/atom = 0
Neighbor list builds = 500
Dangerous builds not checked
OMP_NUM_THREADS environment is not set. Defaulting to 1 thread. (src/comm.cpp:98)
  using 1 OpenMP thread(s) per MPI task
Reading restart file ...
  restart file = 2 Aug 2023, LAMMPS = 2 Aug 2023
  restoring atom style full from restart
  triclinic box = (0 0 0) to (16.1249 13.4224 16.909) with tilt (-8.2539 0.6162 -0.6491)
WARNING: Triclinic box skew is large. LAMMPS will run inefficiently. (src/domain.cpp:220)
  2 by 2 by 2 MPI processor grid
  pair style reaxff stores no restart info
  366 atoms
Finding 1-2 1-3 1-4 neighbors ...
  special bond factors lj:    0        0        0       
  special bond factors coul:  0        0        0       
     0 = max # of 1-2 neighbors
     0 = max # of 1-3 neighbors
     0 = max # of 1-4 neighbors
     1 = max # of special neighbors
  special bonds CPU = 0.000 seconds
  read_restart CPU = 0.002 seconds
*****debug*****
xy = -8.2538999999999997925, deltaxy = 0.82539
xz = 0.61619999999999996998, deltaxz = -0.06162
yz = -0.6491000000000000103, deltayz = 0.06491
*****
*****Negative-deform 6 starts.*****
Resetting global fix info from restart file:
  fix style: nvt, fix ID: fnvt
All restart file global fix info was re-assigned
Neighbor list info ...
  update: every = 10 steps, delay = 0 steps, check = no
  max neighbors/atom: 2000, page size: 100000
  master list distance cutoff = 12
  ghost atom cutoff = 12
  binsize = 6, bins = 5 3 3
  2 neighbor lists, perpetual/occasional/extra = 2 0 0
  (1) pair reaxff, perpetual
      attributes: half, newton off, ghost
      pair build: half/bin/newtoff/ghost
      stencil: full/ghost/bin/3d
      bin: standard
  (2) fix qeq/reaxff, perpetual, copy from (1)
      attributes: half, newton off
      pair build: copy
      stencil: none
      bin: none
Setting up Verlet run ...
  Unit style    : real
  Current step  : 0
  Time step     : 0.5
Per MPI rank memory allocation (min/avg/max) = 137.4 | 138.7 | 139.9 Mbytes
   Step          Temp          PotEng         Press          Volume           Lx             Ly             Lz      
         0   293.20709     -44324.632     -6669.185       3659.697       16.1249        13.4224        16.909       
       100   296.99254     -44298.568     -1261.7971      3659.697       16.1249        13.4224        16.909       
       200   306.85862     -44287.255     -7708.57        3659.697       16.1249        13.4224        16.909       
       300   303.50688     -44290.299     -1913.8046      3659.697       16.1249        13.4224        16.909       
       400   302.66619     -44316.005     -2334.6087      3659.697       16.1249        13.4224        16.909       
       500   299.25524     -44319.639     -9178.1613      3659.697       16.1249        13.4224        16.909       
       600   301.54541     -44313.923     -4220.0584      3659.697       16.1249        13.4224        16.909       
       700   306.76568     -44311.785     -4918.4234      3659.697       16.1249        13.4224        16.909       
       800   305.23656     -44324.279     -5796.1022      3659.697       16.1249        13.4224        16.909       
       900   289.10106     -44333.35      -9321.3779      3659.697       16.1249        13.4224        16.909       
      1000   292.62957     -44326.981     -268.57773      3659.697       16.1249        13.4224        16.909       
      1100   306.82041     -44317.07      -6333.9362      3659.697       16.1249        13.4224        16.909       
      1200   301.75275     -44281.797      1357.835       3659.697       16.1249        13.4224        16.909       
      1300   300.43168     -44267.806     -4200.127       3659.697       16.1249        13.4224        16.909       
      1400   284.44633     -44291.526     -5518.4468      3659.697       16.1249        13.4224        16.909       
      1500   302.90713     -44320.919     -5546.2846      3659.697       16.1249        13.4224        16.909       
      1600   295.14445     -44305.737     -412.66921      3659.697       16.1249        13.4224        16.909       
      1700   296.22765     -44288.301      2626.3622      3659.697       16.1249        13.4224        16.909       
      1800   305.45013     -44279.077      3428.5258      3659.697       16.1249        13.4224        16.909       
      1900   303.26932     -44279.759      2737.9555      3659.697       16.1249        13.4224        16.909       
      2000   290.45643     -44296.718     -12921.793      3659.697       16.1249        13.4224        16.909       
      2100   292.25881     -44304.502     -4208.8519      3659.697       16.1249        13.4224        16.909       
      2200   310.40444     -44318.889     -1715.4288      3659.697       16.1249        13.4224        16.909       
      2300   310.6898      -44304.242     -8232.3887      3659.697       16.1249        13.4224        16.909       
      2400   297.71762     -44265.15      -4214.2998      3659.697       16.1249        13.4224        16.909       
      2500   325.58479     -44245.89      -13975.772      3659.697       16.1249        13.4224        16.909       
      2600   331.84787     -44257.298     -2757.058       3659.697       16.1249        13.4224        16.909       
      2700   322.88447     -44281.676     -278.05547      3659.697       16.1249        13.4224        16.909       
      2800   313.66242     -44289.008     -3537.8425      3659.697       16.1249        13.4224        16.909       
      2900   287.5903      -44278.209      783.96789      3659.697       16.1249        13.4224        16.909       
      3000   291.54547     -44289.621      6122.798       3659.697       16.1249        13.4224        16.909       
      3100   299.50928     -44290.712     -4823.6347      3659.697       16.1249        13.4224        16.909       
      3200   318.9661      -44274.301     -1858.5541      3659.697       16.1249        13.4224        16.909       
      3300   316.40611     -44255.235      979.37713      3659.697       16.1249        13.4224        16.909       
      3400   317.73117     -44271.235      10908.799      3659.697       16.1249        13.4224        16.909       
      3500   305.63194     -44275.226     -5444.4051      3659.697       16.1249        13.4224        16.909       
      3600   292.19941     -44273.996     -5536.1052      3659.697       16.1249        13.4224        16.909       
      3700   295.24793     -44288.148     -9391.9657      3659.697       16.1249        13.4224        16.909       
      3800   277.51107     -44268.235     -474.71605      3659.697       16.1249        13.4224        16.909       
      3900   304.80771     -44273.934      1704.9412      3659.697       16.1249        13.4224        16.909       
      4000   311.08898     -44248.59      -8632.2069      3659.697       16.1249        13.4224        16.909       
      4100   326.34144     -44268.408     -9398.7429      3659.697       16.1249        13.4224        16.909       
      4200   319.09141     -44282.046     -8262.1776      3659.697       16.1249        13.4224        16.909       
      4300   308.81152     -44271.91      -6110.8041      3659.697       16.1249        13.4224        16.909       
      4400   292.95119     -44255.895     -5967.4753      3659.697       16.1249        13.4224        16.909       
      4500   282.70247     -44249.337     -9302.2597      3659.697       16.1249        13.4224        16.909       
      4600   292.80674     -44288.068     -5129.4008      3659.697       16.1249        13.4224        16.909       
      4700   298.62114     -44290.639     -13595.561      3659.697       16.1249        13.4224        16.909       
      4800   303.28602     -44277.511     -4367.6236      3659.697       16.1249        13.4224        16.909       
      4900   318.85446     -44266.075      2140.5183      3659.697       16.1249        13.4224        16.909       
      5000   314.29555     -44262.202     -10754.236      3659.697       16.1249        13.4224        16.909       
Loop time of 162.105 on 8 procs for 5000 steps with 366 atoms

Performance: 1.332 ns/day, 18.012 hours/ns, 30.844 timesteps/s, 11.289 katom-step/s
98.8% CPU use with 8 MPI tasks x 1 OpenMP threads

MPI task timing breakdown:
Section |  min time  |  avg time  |  max time  |%varavg| %total
---------------------------------------------------------------
Pair    | 122.42     | 127.94     | 131.86     |  23.5 | 78.92
Bond    | 0.00082292 | 0.00098997 | 0.0012802  |   0.0 |  0.00
Neigh   | 12.326     | 12.723     | 13.285     |   8.1 |  7.85
Comm    | 1.4293     | 5.3622     | 10.857     | 114.8 |  3.31
Output  | 0.011649   | 0.01333    | 0.014545   |   0.7 |  0.01
Modify  | 15.433     | 15.977     | 16.372     |   7.2 |  9.86
Other   |            | 0.09108    |            |       |  0.06

Nlocal:          45.75 ave          57 max          35 min
Histogram: 1 0 1 1 0 3 1 0 0 1
Nghost:           3713 ave        3773 max        3663 min
Histogram: 2 0 1 1 1 0 1 0 0 2
Neighs:        32029.6 ave       39281 max       24959 min
Histogram: 1 0 1 1 0 2 2 0 0 1

Total # of neighbors = 256237
Ave neighs/atom = 700.10109
Ave special neighs/atom = 0
Neighbor list builds = 500
Dangerous builds not checked
OMP_NUM_THREADS environment is not set. Defaulting to 1 thread. (src/comm.cpp:98)
  using 1 OpenMP thread(s) per MPI task
Reading restart file ...
  restart file = 2 Aug 2023, LAMMPS = 2 Aug 2023
  restoring atom style full from restart
  triclinic box = (0 0 0) to (16.1249 13.4224 16.909) with tilt (-8.2539 0.6162 -0.6491)
WARNING: Triclinic box skew is large. LAMMPS will run inefficiently. (src/domain.cpp:220)
  2 by 2 by 2 MPI processor grid
  pair style reaxff stores no restart info
  366 atoms
Finding 1-2 1-3 1-4 neighbors ...
  special bond factors lj:    0        0        0       
  special bond factors coul:  0        0        0       
     0 = max # of 1-2 neighbors
     0 = max # of 1-3 neighbors
     0 = max # of 1-4 neighbors
     1 = max # of special neighbors
  special bonds CPU = 0.000 seconds
  read_restart CPU = 0.002 seconds
*****Positive-deform 6 starts.*****
Resetting global fix info from restart file:
  fix style: nvt, fix ID: fnvt
All restart file global fix info was re-assigned
Neighbor list info ...
  update: every = 10 steps, delay = 0 steps, check = no
  max neighbors/atom: 2000, page size: 100000
  master list distance cutoff = 12
  ghost atom cutoff = 12
  binsize = 6, bins = 5 3 3
  2 neighbor lists, perpetual/occasional/extra = 2 0 0
  (1) pair reaxff, perpetual
      attributes: half, newton off, ghost
      pair build: half/bin/newtoff/ghost
      stencil: full/ghost/bin/3d
      bin: standard
  (2) fix qeq/reaxff, perpetual, copy from (1)
      attributes: half, newton off
      pair build: copy
      stencil: none
      bin: none
Setting up Verlet run ...
  Unit style    : real
  Current step  : 0
  Time step     : 0.5
Per MPI rank memory allocation (min/avg/max) = 137.4 | 138.7 | 139.9 Mbytes
   Step          Temp          PotEng         Press          Volume           Lx             Ly             Lz      
         0   293.20709     -44324.632     -6669.185       3659.697       16.1249        13.4224        16.909       
       100   296.45685     -44298.299     -955.84663      3659.697       16.1249        13.4224        16.909       
       200   303.32328     -44278.71      -6805.9645      3659.697       16.1249        13.4224        16.909       
       300   306.11572     -44290.208     -1665.6544      3659.697       16.1249        13.4224        16.909       
       400   301.44035     -44307.642      10559.338      3659.697       16.1249        13.4224        16.909       
       500   292.21734     -44301.164     -2595.3913      3659.697       16.1249        13.4224        16.909       
       600   286.35522     -44294.333     -1959.0489      3659.697       16.1249        13.4224        16.909       
       700   298.97789     -44295.962     -2216.1748      3659.697       16.1249        13.4224        16.909       
       800   299.6739      -44268.065     -5296.7251      3659.697       16.1249        13.4224        16.909       
       900   306.34192     -44247.215      11766.274      3659.697       16.1249        13.4224        16.909       
      1000   319.82418     -44279.468      36.905156      3659.697       16.1249        13.4224        16.909       
      1100   304.16102     -44290.406     -4237.9251      3659.697       16.1249        13.4224        16.909       
      1200   285.29758     -44272.773     -10255.313      3659.697       16.1249        13.4224        16.909       
      1300   293.27509     -44277.463      8801.1959      3659.697       16.1249        13.4224        16.909       
      1400   307.59864     -44289.348      11826.644      3659.697       16.1249        13.4224        16.909       
      1500   305.89986     -44291.439     -1589.61        3659.697       16.1249        13.4224        16.909       
      1600   271.05532     -44271.885     -2422.4701      3659.697       16.1249        13.4224        16.909       
      1700   285.24108     -44293.237     -3469.9435      3659.697       16.1249        13.4224        16.909       
      1800   301.58974     -44309.43      -3702.3644      3659.697       16.1249        13.4224        16.909       
      1900   291.69646     -44276.85      -16990.106      3659.697       16.1249        13.4224        16.909       
      2000   316.97299     -44276.827     -1983.7633      3659.697       16.1249        13.4224        16.909       
      2100   322.41234     -44279.064     -2453.5925      3659.697       16.1249        13.4224        16.909       
      2200   278.40806     -44259.179     -3236.0107      3659.697       16.1249        13.4224        16.909       
      2300   302.23942     -44294.34       1399.7928      3659.697       16.1249        13.4224        16.909       
      2400   279.1413      -44266.993     -2334.1262      3659.697       16.1249        13.4224        16.909       
      2500   307.42109     -44287.814     -2252.9716      3659.697       16.1249        13.4224        16.909       
      2600   279.80672     -44245.211     -2256.9282      3659.697       16.1249        13.4224        16.909       
      2700   324.31884     -44287.381     -1218.5715      3659.697       16.1249        13.4224        16.909       
      2800   311.1936      -44285.271      1735.0085      3659.697       16.1249        13.4224        16.909       
      2900   277.08262     -44264.831      2973.5051      3659.697       16.1249        13.4224        16.909       
      3000   289.524       -44266.923     -4502.8546      3659.697       16.1249        13.4224        16.909       
      3100   299.19987     -44241.191     -379.95449      3659.697       16.1249        13.4224        16.909       
      3200   316.98849     -44249.868      1168.1088      3659.697       16.1249        13.4224        16.909       
      3300   284.41696     -44220.025     -1224.6163      3659.697       16.1249        13.4224        16.909       
      3400   310.92553     -44258.557      1049.6872      3659.697       16.1249        13.4224        16.909       
      3500   298.59645     -44259.05      -3637.1107      3659.697       16.1249        13.4224        16.909       
      3600   294.02619     -44252.394     -5097.8268      3659.697       16.1249        13.4224        16.909       
      3700   277.31958     -44215.599     -528.71736      3659.697       16.1249        13.4224        16.909       
      3800   312.21934     -44204.774     -5987.0382      3659.697       16.1249        13.4224        16.909       
      3900   327.07749     -44206.084      4795.5572      3659.697       16.1249        13.4224        16.909       
      4000   297.46775     -44196.79      -6314.8276      3659.697       16.1249        13.4224        16.909       
      4100   314.80989     -44235.4       -21504.953      3659.697       16.1249        13.4224        16.909       
      4200   292.04288     -44212.267     -2780.98        3659.697       16.1249        13.4224        16.909       
      4300   275.0741      -44190.671      3256.0393      3659.697       16.1249        13.4224        16.909       
      4400   316.10744     -44221.312     -1477.1454      3659.697       16.1249        13.4224        16.909       
      4500   305.3281      -44188.806     -19241.615      3659.697       16.1249        13.4224        16.909       
      4600   313.27909     -44196.261     -4270.5765      3659.697       16.1249        13.4224        16.909       
      4700   310.20636     -44229.901     -7886.7677      3659.697       16.1249        13.4224        16.909       
      4800   272.36141     -44195.245     -12243.415      3659.697       16.1249        13.4224        16.909       
      4900   301.93155     -44221.842     -1739.2492      3659.697       16.1249        13.4224        16.909       
      5000   292.90795     -44200.867     -8677.2972      3659.697       16.1249        13.4224        16.909       
Loop time of 149.605 on 8 procs for 5000 steps with 366 atoms

Performance: 1.444 ns/day, 16.623 hours/ns, 33.421 timesteps/s, 12.232 katom-step/s
98.8% CPU use with 8 MPI tasks x 1 OpenMP threads

MPI task timing breakdown:
Section |  min time  |  avg time  |  max time  |%varavg| %total
---------------------------------------------------------------
Pair    | 115.87     | 117.92     | 120.45     |  14.1 | 78.82
Bond    | 0.00078775 | 0.0009474  | 0.0012868  |   0.0 |  0.00
Neigh   | 11.939     | 12.235     | 12.625     |   5.8 |  8.18
Comm    | 1.5297     | 4.0604     | 6.1392     |  76.1 |  2.71
Output  | 0.012194   | 0.013894   | 0.015028   |   0.7 |  0.01
Modify  | 14.869     | 15.285     | 15.577     |   5.3 | 10.22
Other   |            | 0.08652    |            |       |  0.06

Nlocal:          45.75 ave          55 max          39 min
Histogram: 1 1 1 2 0 1 1 0 0 1
Nghost:           3426 ave        3468 max        3388 min
Histogram: 2 1 0 0 1 0 1 2 0 1
Neighs:        32025.5 ave       38019 max       27713 min
Histogram: 1 1 1 2 0 1 0 1 0 1

Total # of neighbors = 256204
Ave neighs/atom = 700.01093
Ave special neighs/atom = 0
Neighbor list builds = 500
Dangerous builds not checked
Total wall time: 0:58:58
