LAMMPS (2 Aug 2023 - Update 2)
OMP_NUM_THREADS environment is not set. Defaulting to 1 thread. (src/comm.cpp:98)
  using 1 OpenMP thread(s) per MPI task
Reading data file ...
  triclinic box = (0 0 0) to (16.1249 13.4224 16.909) with tilt (-8.2539 0.6162 -0.6491)
WARNING: Triclinic box skew is large. LAMMPS will run inefficiently. (src/domain.cpp:220)
  2 by 2 by 2 MPI processor grid
  reading atoms ...
  366 atoms
Finding 1-2 1-3 1-4 neighbors ...
  special bond factors lj:    0        0        0       
  special bond factors coul:  0        0        0       
     0 = max # of 1-2 neighbors
     0 = max # of 1-3 neighbors
     0 = max # of 1-4 neighbors
     1 = max # of special neighbors
  special bonds CPU = 0.001 seconds
  read_data CPU = 0.009 seconds
*****Minimization starts.*****
Setting up cg style minimization ...
  Unit style    : real
  Current step  : 0
WARNING: No pairwise cutoff or binsize set. Atom sorting therefore disabled. (src/atom.cpp:2366)
WARNING: Communication cutoff is 0.0. No ghost atoms will be generated. Atoms may get lost. (src/comm_brick.cpp:210)
Per MPI rank memory allocation (min/avg/max) = 6.365 | 6.365 | 6.365 Mbytes
   Step          Temp          E_pair         E_mol          TotEng         Press     
         0   0              0              0              0              0            
         1   0              0              0              0              0            
Loop time of 7.8624e-05 on 8 procs for 1 steps with 366 atoms

53.4% CPU use with 8 MPI tasks x 1 OpenMP threads

Minimization stats:
  Stopping criterion = search direction is not downhill
  Energy initial, next-to-last, final = 
                     0                  0                  0
  Force two-norm initial, final = 0 0
  Force max component initial, final = 0 0
  Final line search alpha, max atom move = 0 0
  Iterations, force evaluations = 1 0

MPI task timing breakdown:
Section |  min time  |  avg time  |  max time  |%varavg| %total
---------------------------------------------------------------
Pair    | 0          | 0          | 0          |   0.0 |  0.00
Bond    | 1.327e-06  | 2.3834e-06 | 2.654e-06  |   0.0 |  3.03
Neigh   | 0          | 0          | 0          |   0.0 |  0.00
Comm    | 4.051e-06  | 5.9015e-06 | 6.844e-06  |   0.0 |  7.51
Output  | 0          | 0          | 0          |   0.0 |  0.00
Modify  | 0          | 0          | 0          |   0.0 |  0.00
Other   |            | 7.034e-05  |            |       | 89.46

Nlocal:          45.75 ave          58 max          36 min
Histogram: 1 0 2 1 1 1 1 0 0 1
Nghost:              0 ave           0 max           0 min
Histogram: 8 0 0 0 0 0 0 0 0 0
Neighs:              0 ave           0 max           0 min
Histogram: 8 0 0 0 0 0 0 0 0 0

Total # of neighbors = 0
Ave neighs/atom = 0
Ave special neighs/atom = 0
Neighbor list builds = 0
Dangerous builds = 0
System init for write_data ...
WARNING: Communication cutoff is 0.0. No ghost atoms will be generated. Atoms may get lost. (src/comm_brick.cpp:210)

CITE-CITE-CITE-CITE-CITE-CITE-CITE-CITE-CITE-CITE-CITE-CITE-CITE

Your simulation uses code contributions which should be cited:
- pair reaxff command: doi:10.1016/j.parco.2011.08.005
- fix qeq/reaxff command: doi:10.1016/j.parco.2011.08.005
The log file lists these citations in BibTeX format.

CITE-CITE-CITE-CITE-CITE-CITE-CITE-CITE-CITE-CITE-CITE-CITE-CITE

WARNING: Fix qeq/reaxff group is not charge neutral, net charge = -29.52 (src/REAXFF/fix_qeq_reaxff.cpp:392)
Neighbor list info ...
  update: every = 10 steps, delay = 0 steps, check = no
  max neighbors/atom: 2000, page size: 100000
  master list distance cutoff = 12
  ghost atom cutoff = 12
  binsize = 6, bins = 5 3 3
  2 neighbor lists, perpetual/occasional/extra = 2 0 0
  (1) pair reaxff, perpetual
      attributes: half, newton off, ghost
      pair build: half/bin/newtoff/ghost
      stencil: full/ghost/bin/3d
      bin: standard
  (2) fix qeq/reaxff, perpetual, copy from (1)
      attributes: half, newton off
      pair build: copy
      stencil: none
      bin: none
Setting up Verlet run ...
  Unit style    : real
  Current step  : 0
  Time step     : 0.5
Per MPI rank memory allocation (min/avg/max) = 137.6 | 139.4 | 141 Mbytes
   Step          Temp          PotEng         Press         Density         Volume    
         0   300           -43286.839      45299.205      1.9525358      3659.697     
       100   599.27424     -43834.059     -3009.8602      1.9525358      3659.697     
       200   458.30867     -43941.185      11212.708      1.9525358      3659.697     
       300   393.17497     -44073.096      1211.1542      1.9525358      3659.697     
       400   341.50667     -44162.038      7913.201       1.9525358      3659.697     
       500   295.84906     -44209.187      5491.8649      1.9525358      3659.697     
       600   282.31452     -44247.015     -5543.8252      1.9525358      3659.697     
       700   283.481       -44269.891      4184.8378      1.9525358      3659.697     
       800   284.08298     -44256.915     -2109.4199      1.9525358      3659.697     
       900   313.45681     -44256.089     -2028.3296      1.9525358      3659.697     
      1000   298.18214     -44225.18      -1924.1231      1.9525358      3659.697     
      1100   312.09253     -44240.133     -1798.2958      1.9525358      3659.697     
      1200   313.08627     -44259.874     -12021.533      1.9525358      3659.697     
      1300   313.71648     -44294.202     -2721.8391      1.9525358      3659.697     
      1400   282.00449     -44298.798     -149.98277      1.9525358      3659.697     
      1500   293.92582     -44319.884     -2285.4836      1.9525358      3659.697     
      1600   280.18657     -44285.806     -8576.4799      1.9525358      3659.697     
      1700   310.36768     -44287.703     -4590.3589      1.9525358      3659.697     
      1800   313.24526     -44276.286      777.31426      1.9525358      3659.697     
      1900   314.01998     -44294.153     -5367.7754      1.9525358      3659.697     
      2000   297.57615     -44308.157      4937.6857      1.9525358      3659.697     
      2100   300.25404     -44328.294     -7391.909       1.9525358      3659.697     
      2200   296.27262     -44320.627     -10745.644      1.9525358      3659.697     
      2300   292.37136     -44290.05      -2296.2793      1.9525358      3659.697     
      2400   314.53135     -44285.083     -10056.945      1.9525358      3659.697     
      2500   318.36978     -44282.394      3138.0747      1.9525358      3659.697     
      2600   303.09921     -44287.021      9501.509       1.9525358      3659.697     
      2700   289.29067     -44304.412      85.032593      1.9525358      3659.697     
      2800   273.74553     -44304.487     -1822.301       1.9525358      3659.697     
      2900   298.69053     -44317.052     -9247.0211      1.9525358      3659.697     
      3000   279.8848      -44271.102      3186.9141      1.9525358      3659.697     
Loop time of 177.763 on 8 procs for 3000 steps with 366 atoms

Performance: 0.729 ns/day, 32.919 hours/ns, 16.876 timesteps/s, 6.177 katom-step/s
98.9% CPU use with 8 MPI tasks x 1 OpenMP threads

MPI task timing breakdown:
Section |  min time  |  avg time  |  max time  |%varavg| %total
---------------------------------------------------------------
Pair    | 125.92     | 141.63     | 150.08     |  66.3 | 79.67
Bond    | 0.0084801  | 0.0089424  | 0.0096307  |   0.4 |  0.01
Neigh   | 9.1721     | 10.183     | 10.71      |  16.5 |  5.73
Comm    | 3.7171     | 12.181     | 27.914     | 226.4 |  6.85
Output  | 0.0016098  | 0.0017414  | 0.0025652  |   0.7 |  0.00
Modify  | 13.16      | 13.678     | 14.659     |  14.0 |  7.69
Other   |            | 0.079      |            |       |  0.04

Nlocal:          45.75 ave          56 max          33 min
Histogram: 1 0 0 2 0 1 2 0 0 2
Nghost:        3567.25 ave        3625 max        3511 min
Histogram: 1 0 1 0 3 0 1 1 0 1
Neighs:        32074.4 ave       39197 max       23648 min
Histogram: 1 0 0 2 0 2 1 0 0 2

Total # of neighbors = 256595
Ave neighs/atom = 701.07923
Ave special neighs/atom = 0
Neighbor list builds = 300
Dangerous builds not checked
System init for write_data ...
System init for write_restart ...
OMP_NUM_THREADS environment is not set. Defaulting to 1 thread. (src/comm.cpp:98)
  using 1 OpenMP thread(s) per MPI task
Reading restart file ...
  restart file = 2 Aug 2023, LAMMPS = 2 Aug 2023
  restoring atom style full from restart
  triclinic box = (0 0 0) to (16.1249 13.4224 16.909) with tilt (-8.2539 0.6162 -0.6491)
WARNING: Triclinic box skew is large. LAMMPS will run inefficiently. (src/domain.cpp:220)
  2 by 2 by 2 MPI processor grid
  pair style reaxff stores no restart info
  366 atoms
Finding 1-2 1-3 1-4 neighbors ...
  special bond factors lj:    0        0        0       
  special bond factors coul:  0        0        0       
     0 = max # of 1-2 neighbors
     0 = max # of 1-3 neighbors
     0 = max # of 1-4 neighbors
     1 = max # of special neighbors
  special bonds CPU = 0.000 seconds
  read_restart CPU = 0.004 seconds
*****debug*****
xy = -8.2538999999999997925, deltaxy = 0.082539
xz = 0.61619999999999996998, deltaxz = -0.006162
yz = -0.6491000000000000103, deltayz = 0.006491
*****
*****Negative-deform 1 starts.*****
Resetting global fix info from restart file:
  fix style: nvt, fix ID: fnvt
All restart file global fix info was re-assigned
Neighbor list info ...
  update: every = 10 steps, delay = 0 steps, check = no
  max neighbors/atom: 2000, page size: 100000
  master list distance cutoff = 12
  ghost atom cutoff = 12
  binsize = 6, bins = 5 3 3
  2 neighbor lists, perpetual/occasional/extra = 2 0 0
  (1) pair reaxff, perpetual
      attributes: half, newton off, ghost
      pair build: half/bin/newtoff/ghost
      stencil: full/ghost/bin/3d
      bin: standard
  (2) fix qeq/reaxff, perpetual, copy from (1)
      attributes: half, newton off
      pair build: copy
      stencil: none
      bin: none
Setting up Verlet run ...
  Unit style    : real
  Current step  : 0
  Time step     : 0.5
Per MPI rank memory allocation (min/avg/max) = 137.5 | 139.1 | 140.8 Mbytes
   Step          Temp          PotEng         Press         Density         Volume    
         0   279.8848      -44271.102      3186.916       1.9525358      3659.697     
       100   304.55439     -44276.53       2171.5667      1.9531869      3658.4771    
       200   320.90736     -44295.405     -10295.809      1.9538384      3657.2572    
       300   292.62029     -44291.556     -1227.5692      1.9544903      3656.0373    
       400   270.8417      -44281.843      4400.8799      1.9551427      3654.8174    
       500   296.18079     -44303.265      7157.2785      1.9557955      3653.5975    
       600   293.93363     -44268.567      3198.1543      1.9564487      3652.3776    
       700   304.00555     -44261.832      11233.155      1.9571024      3651.1577    
       800   304.40468     -44282.045     -4127.272       1.9577565      3649.9378    
       900   298.67909     -44293.817     -3655.5225      1.958411       3648.7179    
      1000   296.3035      -44299.147      1128.458       1.959066       3647.498     
      1100   301.88315     -44300.379     -1947.2519      1.9597215      3646.2781    
      1200   310.22789     -44295.517      7683.8332      1.9603773      3645.0582    
      1300   324.77243     -44274.422      5338.4967      1.9610336      3643.8383    
      1400   323.07144     -44282.138      1378.9184      1.9616904      3642.6184    
      1500   295.92529     -44287.553      3484.3759      1.9623475      3641.3985    
      1600   311.88364     -44313.213      6705.5694      1.9630052      3640.1786    
      1700   305.11945     -44317.273      1592.9096      1.9636632      3638.9587    
      1800   296.3383      -44322.697      958.26532      1.9643217      3637.7388    
      1900   282.45271     -44307.125      6024.0532      1.9649807      3636.5189    
      2000   306.46804     -44302.941      10827.661      1.9656401      3635.299     
      2100   303.87371     -44281.412      11991.876      1.9662999      3634.0791    
      2200   303.93895     -44283.068      3144.2015      1.9669602      3632.8592    
      2300   295.30469     -44299.957     -213.31206      1.9676209      3631.6393    
      2400   301.38251     -44336.146      4860.2726      1.9682821      3630.4194    
      2500   293.20397     -44328.32       8052.8943      1.9689437      3629.1995    
      2600   282.99383     -44303.159      18302.708      1.9696057      3627.9796    
      2700   307.63057     -44302.421      7743.2403      1.9702682      3626.7597    
      2800   310.66497     -44310.741      6459.9495      1.9709312      3625.5398    
      2900   295.57711     -44306.089      3191.6395      1.9715946      3624.3199    
      3000   290.40723     -44309.376      598.43387      1.9722584      3623.1       
Loop time of 179.48 on 8 procs for 3000 steps with 366 atoms

Performance: 0.722 ns/day, 33.237 hours/ns, 16.715 timesteps/s, 6.118 katom-step/s
99.0% CPU use with 8 MPI tasks x 1 OpenMP threads

MPI task timing breakdown:
Section |  min time  |  avg time  |  max time  |%varavg| %total
---------------------------------------------------------------
Pair    | 106.1      | 140.65     | 153.4      | 137.3 | 78.37
Bond    | 0.0085338  | 0.0090796  | 0.0096313  |   0.3 |  0.01
Neigh   | 7.6083     | 10.001     | 11.096     |  36.1 |  5.57
Comm    | 1.8862     | 14.658     | 49.221     | 425.4 |  8.17
Output  | 0.0090453  | 0.010899   | 0.012338   |   0.9 |  0.01
Modify  | 12.988     | 14.066     | 16.452     |  30.5 |  7.84
Other   |            | 0.08135    |            |       |  0.05

Nlocal:          45.75 ave          52 max          33 min
Histogram: 1 0 0 1 0 0 2 0 2 2
Nghost:        3577.12 ave        3626 max        3535 min
Histogram: 1 1 0 1 1 2 1 0 0 1
Neighs:        32433.6 ave       37009 max       23874 min
Histogram: 1 0 1 0 0 0 2 0 2 2

Total # of neighbors = 259469
Ave neighs/atom = 708.93169
Ave special neighs/atom = 0
Neighbor list builds = 300
Dangerous builds not checked
OMP_NUM_THREADS environment is not set. Defaulting to 1 thread. (src/comm.cpp:98)
  using 1 OpenMP thread(s) per MPI task
Reading restart file ...
  restart file = 2 Aug 2023, LAMMPS = 2 Aug 2023
  restoring atom style full from restart
  triclinic box = (0 0 0) to (16.1249 13.4224 16.909) with tilt (-8.2539 0.6162 -0.6491)
WARNING: Triclinic box skew is large. LAMMPS will run inefficiently. (src/domain.cpp:220)
  2 by 2 by 2 MPI processor grid
  pair style reaxff stores no restart info
  366 atoms
Finding 1-2 1-3 1-4 neighbors ...
  special bond factors lj:    0        0        0       
  special bond factors coul:  0        0        0       
     0 = max # of 1-2 neighbors
     0 = max # of 1-3 neighbors
     0 = max # of 1-4 neighbors
     1 = max # of special neighbors
  special bonds CPU = 0.000 seconds
  read_restart CPU = 0.003 seconds
*****Positive-deform 1 starts.*****
Resetting global fix info from restart file:
  fix style: nvt, fix ID: fnvt
All restart file global fix info was re-assigned
Neighbor list info ...
  update: every = 10 steps, delay = 0 steps, check = no
  max neighbors/atom: 2000, page size: 100000
  master list distance cutoff = 12
  ghost atom cutoff = 12
  binsize = 6, bins = 5 3 3
  2 neighbor lists, perpetual/occasional/extra = 2 0 0
  (1) pair reaxff, perpetual
      attributes: half, newton off, ghost
      pair build: half/bin/newtoff/ghost
      stencil: full/ghost/bin/3d
      bin: standard
  (2) fix qeq/reaxff, perpetual, copy from (1)
      attributes: half, newton off
      pair build: copy
      stencil: none
      bin: none
Setting up Verlet run ...
  Unit style    : real
  Current step  : 0
  Time step     : 0.5
Per MPI rank memory allocation (min/avg/max) = 137.5 | 139.1 | 140.8 Mbytes
   Step          Temp          PotEng         Press         Density         Volume    
         0   279.8848      -44271.102      3186.916       1.9525358      3659.697     
       100   304.49895     -44276.6        2227.6883      1.9518852      3660.9169    
       200   321.82948     -44296.746     -10750.869      1.951235       3662.1368    
       300   280.87601     -44276.617      2863.1973      1.9505852      3663.3567    
       400   280.04819     -44289.762      1604.5751      1.9499359      3664.5766    
       500   303.46136     -44306.428      7636.4122      1.949287       3665.7965    
       600   310.64499     -44278.236      2462.319       1.9486385      3667.0164    
       700   325.25833     -44279.703     -805.24257      1.9479905      3668.2363    
       800   307.61231     -44272.574     -7985.7132      1.9473429      3669.4562    
       900   303.80451     -44285.396     -5444.3585      1.9466957      3670.6761    
      1000   297.17251     -44291.703     -6453.9193      1.946049       3671.896     
      1100   296.10778     -44292.818      1328.6969      1.9454027      3673.1159    
      1200   294.42986     -44286.703      6763.6562      1.9447568      3674.3358    
      1300   298.65347     -44288.368     -11002.659      1.9441113      3675.5557    
      1400   287.54261     -44275.049     -1783.5738      1.9434663      3676.7756    
      1500   323.45615     -44306.938     -6446.379       1.9428217      3677.9955    
      1600   291.77324     -44276.487      5694.352       1.9421775      3679.2154    
      1700   299.16972     -44296.167     -8880.401       1.9415338      3680.4353    
      1800   286.21607     -44295.024      6416.4087      1.9408905      3681.6552    
      1900   302.60505     -44305.406     -9900.0853      1.9402476      3682.8751    
      2000   305.541       -44279.517     -15007.784      1.9396051      3684.095     
      2100   318.49377     -44279.15      -18572.139      1.9389631      3685.3149    
      2200   317.53333     -44287.061     -4414.986       1.9383215      3686.5348    
      2300   289.19022     -44275.115     -9546.6653      1.9376803      3687.7547    
      2400   293.83237     -44281.705     -1241.7386      1.9370395      3688.9746    
      2500   280.69661     -44264.567      1409.2563      1.9363992      3690.1945    
      2600   310.18376     -44279.674     -4416.9213      1.9357592      3691.4144    
      2700   312.34765     -44272.286     -3127.7996      1.9351197      3692.6343    
      2800   288.55128     -44263.682     -8563.9374      1.9344807      3693.8542    
      2900   293.31217     -44301.267     -9200.5398      1.933842       3695.0741    
      3000   285.13802     -44296.9       -10257.308      1.9332038      3696.294     
Loop time of 178.085 on 8 procs for 3000 steps with 366 atoms

Performance: 0.728 ns/day, 32.979 hours/ns, 16.846 timesteps/s, 6.166 katom-step/s
98.3% CPU use with 8 MPI tasks x 1 OpenMP threads

MPI task timing breakdown:
Section |  min time  |  avg time  |  max time  |%varavg| %total
---------------------------------------------------------------
Pair    | 119.87     | 138.2      | 149.4      |  98.5 | 77.60
Bond    | 0.008426   | 0.0090189  | 0.0093424  |   0.3 |  0.01
Neigh   | 8.4827     | 9.9043     | 10.695     |  26.8 |  5.56
Comm    | 3.4931     | 14.677     | 32.954     | 301.6 |  8.24
Output  | 0.0099061  | 0.011302   | 0.012493   |   0.8 |  0.01
Modify  | 14.392     | 15.197     | 16.638     |  22.3 |  8.53
Other   |            | 0.08381    |            |       |  0.05

Nlocal:          45.75 ave          54 max          37 min
Histogram: 2 0 0 0 1 2 0 2 0 1
Nghost:        3511.25 ave        3532 max        3493 min
Histogram: 2 1 0 0 1 0 2 0 1 1
Neighs:        31754.2 ave       37465 max       26034 min
Histogram: 2 0 0 0 1 2 0 2 0 1

Total # of neighbors = 254034
Ave neighs/atom = 694.08197
Ave special neighs/atom = 0
Neighbor list builds = 300
Dangerous builds not checked
OMP_NUM_THREADS environment is not set. Defaulting to 1 thread. (src/comm.cpp:98)
  using 1 OpenMP thread(s) per MPI task
Reading restart file ...
  restart file = 2 Aug 2023, LAMMPS = 2 Aug 2023
  restoring atom style full from restart
  triclinic box = (0 0 0) to (16.1249 13.4224 16.909) with tilt (-8.2539 0.6162 -0.6491)
WARNING: Triclinic box skew is large. LAMMPS will run inefficiently. (src/domain.cpp:220)
  2 by 2 by 2 MPI processor grid
  pair style reaxff stores no restart info
  366 atoms
Finding 1-2 1-3 1-4 neighbors ...
  special bond factors lj:    0        0        0       
  special bond factors coul:  0        0        0       
     0 = max # of 1-2 neighbors
     0 = max # of 1-3 neighbors
     0 = max # of 1-4 neighbors
     1 = max # of special neighbors
  special bonds CPU = 0.000 seconds
  read_restart CPU = 0.003 seconds
*****debug*****
xy = -8.2538999999999997925, deltaxy = 0.082539
xz = 0.61619999999999996998, deltaxz = -0.006162
yz = -0.6491000000000000103, deltayz = 0.006491
*****
*****Negative-deform 2 starts.*****
Resetting global fix info from restart file:
  fix style: nvt, fix ID: fnvt
All restart file global fix info was re-assigned
Neighbor list info ...
  update: every = 10 steps, delay = 0 steps, check = no
  max neighbors/atom: 2000, page size: 100000
  master list distance cutoff = 12
  ghost atom cutoff = 12
  binsize = 6, bins = 5 3 3
  2 neighbor lists, perpetual/occasional/extra = 2 0 0
  (1) pair reaxff, perpetual
      attributes: half, newton off, ghost
      pair build: half/bin/newtoff/ghost
      stencil: full/ghost/bin/3d
      bin: standard
  (2) fix qeq/reaxff, perpetual, copy from (1)
      attributes: half, newton off
      pair build: copy
      stencil: none
      bin: none
Setting up Verlet run ...
  Unit style    : real
  Current step  : 0
  Time step     : 0.5
Per MPI rank memory allocation (min/avg/max) = 137.5 | 139.1 | 140.8 Mbytes
   Step          Temp          PotEng         Press         Density         Volume    
         0   279.8848      -44271.102      3186.916       1.9525358      3659.697     
       100   304.54406     -44276.566      2190.2084      1.9531869      3658.4771    
       200   321.71528     -44296.055     -10591.814      1.9538384      3657.2572    
       300   289.08333     -44287.326      1248.133       1.9544903      3656.0373    
       400   273.76489     -44285.723      2256.8578      1.9551427      3654.8174    
       500   306.80041     -44317.101      10230.064      1.9557955      3653.5975    
       600   293.40944     -44277.683      9579.4969      1.9564487      3652.3776    
       700   308.30639     -44264.528      5929.507       1.9571024      3651.1577    
       800   304.10776     -44270.01      -1972.7212      1.9577565      3649.9378    
       900   296.85365     -44284.564      2110.2359      1.958411       3648.7179    
      1000   285.61764     -44279.784     -1719.154       1.959066       3647.498     
      1100   288.98853     -44281.124     -1433.5377      1.9597215      3646.2781    
      1200   303.35321     -44287.336      8866.4386      1.9603773      3645.0582    
      1300   331.75084     -44281.854      6908.2378      1.9610336      3643.8383    
      1400   324.44083     -44268.796      8636.6843      1.9616904      3642.6184    
      1500   315.36196     -44288.048     -2461.5688      1.9623475      3641.3985    
      1600   310.34441     -44295.749      5196.8124      1.9630052      3640.1786    
      1700   295.68981     -44286.258      9958.5552      1.9636632      3638.9587    
      1800   287.13194     -44277.057      7310.7265      1.9643217      3637.7388    
      1900   316.25708     -44302.626      2657.8245      1.9649807      3636.5189    
      2000   291.76628     -44290.581      6175.1304      1.9656401      3635.299     
      2100   296.13484     -44315.407      1863.2727      1.9662999      3634.0791    
      2200   278.35063     -44305.089      4012.3876      1.9669602      3632.8592    
      2300   300.05392     -44298.704     -5637.2444      1.9676209      3631.6393    
      2400   305.62299     -44284.592      3104.808       1.9682821      3630.4194    
      2500   310.88438     -44303.276      6945.4081      1.9689437      3629.1995    
      2600   314.81522     -44316.161      2051.799       1.9696057      3627.9796    
      2700   300.23058     -44308.337      2539.842       1.9702682      3626.7597    
      2800   293.50165     -44315.508     -3224.8198      1.9709312      3625.5398    
      2900   276.44572     -44314.663      2565.3261      1.9715946      3624.3199    
      3000   293.65309     -44312.134      335.50481      1.9722584      3623.1       
Loop time of 178.958 on 8 procs for 3000 steps with 366 atoms

Performance: 0.724 ns/day, 33.140 hours/ns, 16.764 timesteps/s, 6.136 katom-step/s
98.9% CPU use with 8 MPI tasks x 1 OpenMP threads

MPI task timing breakdown:
Section |  min time  |  avg time  |  max time  |%varavg| %total
---------------------------------------------------------------
Pair    | 104.99     | 135.79     | 152.48     | 138.5 | 75.88
Bond    | 0.0086526  | 0.0089495  | 0.0093174  |   0.2 |  0.01
Neigh   | 7.572      | 9.7441     | 10.835     |  34.1 |  5.44
Comm    | 2.5141     | 19.235     | 50.034     | 367.9 | 10.75
Output  | 0.010098   | 0.011732   | 0.013152   |   0.8 |  0.01
Modify  | 13.026     | 14.09      | 16.263     |  28.5 |  7.87
Other   |            | 0.08042    |            |       |  0.04

Nlocal:          45.75 ave          54 max          36 min
Histogram: 1 0 0 1 1 2 1 0 1 1
Nghost:        3616.38 ave        3668 max        3558 min
Histogram: 1 1 0 0 1 2 0 1 0 2
Neighs:        32408.8 ave       38204 max       25929 min
Histogram: 1 0 0 1 3 0 1 0 1 1

Total # of neighbors = 259270
Ave neighs/atom = 708.38798
Ave special neighs/atom = 0
Neighbor list builds = 300
Dangerous builds not checked
OMP_NUM_THREADS environment is not set. Defaulting to 1 thread. (src/comm.cpp:98)
  using 1 OpenMP thread(s) per MPI task
Reading restart file ...
  restart file = 2 Aug 2023, LAMMPS = 2 Aug 2023
  restoring atom style full from restart
  triclinic box = (0 0 0) to (16.1249 13.4224 16.909) with tilt (-8.2539 0.6162 -0.6491)
WARNING: Triclinic box skew is large. LAMMPS will run inefficiently. (src/domain.cpp:220)
  2 by 2 by 2 MPI processor grid
  pair style reaxff stores no restart info
  366 atoms
Finding 1-2 1-3 1-4 neighbors ...
  special bond factors lj:    0        0        0       
  special bond factors coul:  0        0        0       
     0 = max # of 1-2 neighbors
     0 = max # of 1-3 neighbors
     0 = max # of 1-4 neighbors
     1 = max # of special neighbors
  special bonds CPU = 0.000 seconds
  read_restart CPU = 0.003 seconds
*****Positive-deform 2 starts.*****
Resetting global fix info from restart file:
  fix style: nvt, fix ID: fnvt
All restart file global fix info was re-assigned
Neighbor list info ...
  update: every = 10 steps, delay = 0 steps, check = no
  max neighbors/atom: 2000, page size: 100000
  master list distance cutoff = 12
  ghost atom cutoff = 12
  binsize = 6, bins = 5 3 3
  2 neighbor lists, perpetual/occasional/extra = 2 0 0
  (1) pair reaxff, perpetual
      attributes: half, newton off, ghost
      pair build: half/bin/newtoff/ghost
      stencil: full/ghost/bin/3d
      bin: standard
  (2) fix qeq/reaxff, perpetual, copy from (1)
      attributes: half, newton off
      pair build: copy
      stencil: none
      bin: none
Setting up Verlet run ...
  Unit style    : real
  Current step  : 0
  Time step     : 0.5
Per MPI rank memory allocation (min/avg/max) = 137.5 | 139.1 | 140.8 Mbytes
   Step          Temp          PotEng         Press         Density         Volume    
         0   279.8848      -44271.102      3186.916       1.9525358      3659.697     
       100   304.52138     -44276.565      2187.2113      1.9518852      3660.9169    
       200   321.04784     -44296.05      -10406.015      1.951235       3662.1368    
       300   281.65603     -44278.307      1433.1845      1.9505852      3663.3567    
       400   277.1184      -44287.819     -5126.0288      1.9499359      3664.5766    
       500   301.48479     -44307.53       4005.3471      1.949287       3665.7965    
       600   302.68219     -44273.884      379.36522      1.9486385      3667.0164    
       700   307.70621     -44262.407      884.62381      1.9479905      3668.2363    
       800   293.80052     -44260.57       10970.761      1.9473429      3669.4562    
       900   283.38318     -44270.296      9991.533       1.9466957      3670.6761    
      1000   298.89802     -44289.975     -1621.4297      1.946049       3671.896     
      1100   301.26375     -44292.574      4275.589       1.9454027      3673.1159    
      1200   297.73238     -44304.268     -4069.9367      1.9447568      3674.3358    
      1300   277.56149     -44317.403     -8274.6003      1.9441113      3675.5557    
      1400   280.22574     -44318.453      3508.4171      1.9434663      3676.7756    
      1500   313.37435     -44322.208     -11642.962      1.9428217      3677.9955    
      1600   310.36048     -44304.572     -1362.5321      1.9421775      3679.2154    
      1700   315.1008      -44301.131     -1447.8695      1.9415338      3680.4353    
      1800   296.21194     -44278.278     -6954.6804      1.9408905      3681.6552    
      1900   293.22057     -44291.861      11879.463      1.9402476      3682.8751    
      2000   282.01104     -44303.049      6383.138       1.9396051      3684.095     
      2100   297.47672     -44309.013     -6113.0877      1.9389631      3685.3149    
      2200   313.96255     -44293.666     -6452.2983      1.9383215      3686.5348    
      2300   312.32736     -44291.44      -1168.4889      1.9376803      3687.7547    
      2400   298.00548     -44288.457      1564.4521      1.9370395      3688.9746    
      2500   281.3552      -44286.678      1112.9352      1.9363992      3690.1945    
      2600   282.02498     -44294.2       -832.91859      1.9357592      3691.4144    
      2700   295.83505     -44303.953     -5929.3278      1.9351197      3692.6343    
      2800   302.30314     -44291.953      3760.9315      1.9344807      3693.8542    
      2900   312.29768     -44288.14      -16918.916      1.933842       3695.0741    
      3000   316.44276     -44291.123     -13777.894      1.9332038      3696.294     
Loop time of 178.625 on 8 procs for 3000 steps with 366 atoms

Performance: 0.726 ns/day, 33.079 hours/ns, 16.795 timesteps/s, 6.147 katom-step/s
98.9% CPU use with 8 MPI tasks x 1 OpenMP threads

MPI task timing breakdown:
Section |  min time  |  avg time  |  max time  |%varavg| %total
---------------------------------------------------------------
Pair    | 132.86     | 144.64     | 152.59     |  51.5 | 80.97
Bond    | 0.00852    | 0.0091339  | 0.0098056  |   0.4 |  0.01
Neigh   | 9.2088     | 10.339     | 11.285     |  20.0 |  5.79
Comm    | 1.3453     | 9.3097     | 21.094     | 203.2 |  5.21
Output  | 0.0098679  | 0.011803   | 0.01318    |   0.9 |  0.01
Modify  | 13.27      | 14.229     | 15.369     |  17.1 |  7.97
Other   |            | 0.08687    |            |       |  0.05

Nlocal:          45.75 ave          55 max          39 min
Histogram: 2 1 0 0 1 1 2 0 0 1
Nghost:        3525.38 ave        3542 max        3502 min
Histogram: 1 0 0 1 1 0 1 2 1 1
Neighs:        31764.9 ave       38123 max       27273 min
Histogram: 2 1 0 0 1 2 1 0 0 1

Total # of neighbors = 254119
Ave neighs/atom = 694.31421
Ave special neighs/atom = 0
Neighbor list builds = 300
Dangerous builds not checked
OMP_NUM_THREADS environment is not set. Defaulting to 1 thread. (src/comm.cpp:98)
  using 1 OpenMP thread(s) per MPI task
Reading restart file ...
  restart file = 2 Aug 2023, LAMMPS = 2 Aug 2023
  restoring atom style full from restart
  triclinic box = (0 0 0) to (16.1249 13.4224 16.909) with tilt (-8.2539 0.6162 -0.6491)
WARNING: Triclinic box skew is large. LAMMPS will run inefficiently. (src/domain.cpp:220)
  2 by 2 by 2 MPI processor grid
  pair style reaxff stores no restart info
  366 atoms
Finding 1-2 1-3 1-4 neighbors ...
  special bond factors lj:    0        0        0       
  special bond factors coul:  0        0        0       
     0 = max # of 1-2 neighbors
     0 = max # of 1-3 neighbors
     0 = max # of 1-4 neighbors
     1 = max # of special neighbors
  special bonds CPU = 0.002 seconds
  read_restart CPU = 0.005 seconds
*****debug*****
xy = -8.2538999999999997925, deltaxy = 0.082539
xz = 0.61619999999999996998, deltaxz = -0.006162
yz = -0.6491000000000000103, deltayz = 0.006491
*****
*****Negative-deform 3 starts.*****
Resetting global fix info from restart file:
  fix style: nvt, fix ID: fnvt
All restart file global fix info was re-assigned
Neighbor list info ...
  update: every = 10 steps, delay = 0 steps, check = no
  max neighbors/atom: 2000, page size: 100000
  master list distance cutoff = 12
  ghost atom cutoff = 12
  binsize = 6, bins = 5 3 3
  2 neighbor lists, perpetual/occasional/extra = 2 0 0
  (1) pair reaxff, perpetual
      attributes: half, newton off, ghost
      pair build: half/bin/newtoff/ghost
      stencil: full/ghost/bin/3d
      bin: standard
  (2) fix qeq/reaxff, perpetual, copy from (1)
      attributes: half, newton off
      pair build: copy
      stencil: none
      bin: none
Setting up Verlet run ...
  Unit style    : real
  Current step  : 0
  Time step     : 0.5
Per MPI rank memory allocation (min/avg/max) = 137.5 | 139.1 | 140.8 Mbytes
   Step          Temp          PotEng         Press         Density         Volume    
         0   279.8848      -44271.102      3186.916       1.9525358      3659.697     
       100   304.5557      -44276.551      2198.4523      1.9531869      3658.4771    
       200   322.34579     -44297.317     -8898.7932      1.9538384      3657.2572    
       300   289.73058     -44287.681      3580.5593      1.9544903      3656.0373    
       400   271.65873     -44283.162      977.007        1.9551427      3654.8174    
       500   305.17467     -44315.484      7308.0154      1.9557955      3653.5975    
       600   309.67073     -44300.421      714.58856      1.9564487      3652.3776    
       700   306.07147     -44263.906      797.59979      1.9571024      3651.1577    
       800   321.53122     -44285.897     -2446.989       1.9577565      3649.9378    
       900   303.82075     -44296.437      1730.6314      1.958411       3648.7179    
      1000   298.94243     -44299.656     -2540.0849      1.959066       3647.498     
      1100   288.02605     -44288.95       14654.46       1.9597215      3646.2781    
      1200   297.06405     -44303.82       11959.339      1.9603773      3645.0582    
      1300   286.23104     -44300.198      1164.0656      1.9610336      3643.8383    
      1400   290.61001     -44311.834      13674.487      1.9616904      3642.6184    
      1500   304.77906     -44305.776     -1766.7796      1.9623475      3641.3985    
      1600   305.97179     -44283.125      18932.662      1.9630052      3640.1786    
      1700   305.44961     -44289.676      3408.6163      1.9636632      3638.9587    
      1800   325.12731     -44326.518      4498.1115      1.9643217      3637.7388    
      1900   277.15207     -44314.037      14080.531      1.9649807      3636.5189    
      2000   288.34839     -44322.306      2089.1022      1.9656401      3635.299     
      2100   284.05287     -44295.308     -4028.0707      1.9662999      3634.0791    
      2200   305.37736     -44297.68       10509.001      1.9669602      3632.8592    
      2300   304.67432     -44294.065      8718.1128      1.9676209      3631.6393    
      2400   304.81505     -44301.621      3130.8555      1.9682821      3630.4194    
      2500   282.09808     -44308.277     -2204.0208      1.9689437      3629.1995    
      2600   279.1608      -44317.899      4710.4479      1.9696057      3627.9796    
      2700   288.10783     -44306.517      15482.943      1.9702682      3626.7597    
      2800   297.72884     -44300.586      8179.1137      1.9709312      3625.5398    
      2900   315.83483     -44308.431      4910.3432      1.9715946      3624.3199    
      3000   309.25001     -44300.129     -4414.874       1.9722584      3623.1       
Loop time of 183.636 on 8 procs for 3000 steps with 366 atoms

Performance: 0.706 ns/day, 34.007 hours/ns, 16.337 timesteps/s, 5.979 katom-step/s
98.9% CPU use with 8 MPI tasks x 1 OpenMP threads

MPI task timing breakdown:
Section |  min time  |  avg time  |  max time  |%varavg| %total
---------------------------------------------------------------
Pair    | 114.9      | 147.58     | 157.24     | 104.7 | 80.36
Bond    | 0.0083257  | 0.0090484  | 0.009816   |   0.4 |  0.00
Neigh   | 8.2071     | 10.569     | 11.781     |  30.2 |  5.76
Comm    | 1.1367     | 10.808     | 43.478     | 386.7 |  5.89
Output  | 0.0098183  | 0.0111     | 0.012101   |   0.7 |  0.01
Modify  | 13.343     | 14.576     | 16.957     |  26.0 |  7.94
Other   |            | 0.08583    |            |       |  0.05

Nlocal:          45.75 ave          55 max          33 min
Histogram: 1 0 0 0 2 1 1 1 1 1
Nghost:         3592.5 ave        3659 max        3529 min
Histogram: 1 0 1 1 1 2 0 1 0 1
Neighs:        32361.2 ave       38347 max       23907 min
Histogram: 1 0 0 0 2 1 1 1 1 1

Total # of neighbors = 258890
Ave neighs/atom = 707.34973
Ave special neighs/atom = 0
Neighbor list builds = 300
Dangerous builds not checked
OMP_NUM_THREADS environment is not set. Defaulting to 1 thread. (src/comm.cpp:98)
  using 1 OpenMP thread(s) per MPI task
Reading restart file ...
  restart file = 2 Aug 2023, LAMMPS = 2 Aug 2023
  restoring atom style full from restart
  triclinic box = (0 0 0) to (16.1249 13.4224 16.909) with tilt (-8.2539 0.6162 -0.6491)
WARNING: Triclinic box skew is large. LAMMPS will run inefficiently. (src/domain.cpp:220)
  2 by 2 by 2 MPI processor grid
  pair style reaxff stores no restart info
  366 atoms
Finding 1-2 1-3 1-4 neighbors ...
  special bond factors lj:    0        0        0       
  special bond factors coul:  0        0        0       
     0 = max # of 1-2 neighbors
     0 = max # of 1-3 neighbors
     0 = max # of 1-4 neighbors
     1 = max # of special neighbors
  special bonds CPU = 0.000 seconds
  read_restart CPU = 0.003 seconds
*****Positive-deform 3 starts.*****
Resetting global fix info from restart file:
  fix style: nvt, fix ID: fnvt
All restart file global fix info was re-assigned
Neighbor list info ...
  update: every = 10 steps, delay = 0 steps, check = no
  max neighbors/atom: 2000, page size: 100000
  master list distance cutoff = 12
  ghost atom cutoff = 12
  binsize = 6, bins = 5 3 3
  2 neighbor lists, perpetual/occasional/extra = 2 0 0
  (1) pair reaxff, perpetual
      attributes: half, newton off, ghost
      pair build: half/bin/newtoff/ghost
      stencil: full/ghost/bin/3d
      bin: standard
  (2) fix qeq/reaxff, perpetual, copy from (1)
      attributes: half, newton off
      pair build: copy
      stencil: none
      bin: none
Setting up Verlet run ...
  Unit style    : real
  Current step  : 0
  Time step     : 0.5
Per MPI rank memory allocation (min/avg/max) = 137.5 | 139.1 | 140.8 Mbytes
   Step          Temp          PotEng         Press         Density         Volume    
         0   279.8848      -44271.102      3186.916       1.9525358      3659.697     
       100   304.48818     -44276.568      2187.2684      1.9518852      3660.9169    
       200   320.59637     -44295.048     -11833.002      1.951235       3662.1368    
       300   282.62907     -44278.739      2840.8724      1.9505852      3663.3567    
       400   280.52346     -44290.671     -1356.4106      1.9499359      3664.5766    
       500   288.60071     -44298.509      3947.9228      1.949287       3665.7965    
       600   295.59203     -44283.747     -960.23595      1.9486385      3667.0164    
       700   313.21039     -44273.541      885.40473      1.9479905      3668.2363    
       800   311.89689     -44279.065      3161.3541      1.9473429      3669.4562    
       900   296.03984     -44286.192      9625.6621      1.9466957      3670.6761    
      1000   294.51909     -44297.765      713.9078       1.946049       3671.896     
      1100   289.92162     -44288.579      4044.3505      1.9454027      3673.1159    
      1200   310.92528     -44301.506      3992.1982      1.9447568      3674.3358    
      1300   332.92923     -44314.192     -5052.7855      1.9441113      3675.5557    
      1400   301.23442     -44275.208     -10285.449      1.9434663      3676.7756    
      1500   300.72107     -44264.088      9151.8943      1.9428217      3677.9955    
      1600   309.06724     -44276.183     -3012.2794      1.9421775      3679.2154    
      1700   287.40248     -44277.635     -12596.565      1.9415338      3680.4353    
      1800   325.48501     -44336.395      2032.336       1.9408905      3681.6552    
      1900   292.49795     -44309.088     -2168.2232      1.9402476      3682.8751    
      2000   311.45185     -44303.862      4303.0408      1.9396051      3684.095     
      2100   322.22081     -44283.848     -9247.5533      1.9389631      3685.3149    
      2200   313.92292     -44288.821      929.39677      1.9383215      3686.5348    
      2300   293.31909     -44294.501      3340.1243      1.9376803      3687.7547    
      2400   293.95629     -44301.235     -6753.677       1.9370395      3688.9746    
      2500   303.83211     -44295.947     -8631.2346      1.9363992      3690.1945    
      2600   315.37878     -44280.112     -2587.6756      1.9357592      3691.4144    
      2700   311.32559     -44273.785     -1421.2023      1.9351197      3692.6343    
      2800   311.55854     -44282.869     -8444.8009      1.9344807      3693.8542    
      2900   305.28004     -44288.548     -17092.229      1.933842       3695.0741    
      3000   300.05762     -44296.442     -3355.478       1.9332038      3696.294     
Loop time of 180.356 on 8 procs for 3000 steps with 366 atoms

Performance: 0.719 ns/day, 33.399 hours/ns, 16.634 timesteps/s, 6.088 katom-step/s
99.0% CPU use with 8 MPI tasks x 1 OpenMP threads

MPI task timing breakdown:
Section |  min time  |  avg time  |  max time  |%varavg| %total
---------------------------------------------------------------
Pair    | 108.77     | 143.12     | 154.36     | 111.5 | 79.35
Bond    | 0.0085728  | 0.0090739  | 0.0096305  |   0.4 |  0.01
Neigh   | 7.8836     | 10.3       | 11.218     |  29.8 |  5.71
Comm    | 1.2325     | 12.486     | 46.825     | 377.6 |  6.92
Output  | 0.0095893  | 0.010959   | 0.011962   |   0.7 |  0.01
Modify  | 13.425     | 14.348     | 16.783     |  25.4 |  7.96
Other   |            | 0.08437    |            |       |  0.05

Nlocal:          45.75 ave          52 max          35 min
Histogram: 1 0 0 0 1 1 1 2 0 2
Nghost:        3543.38 ave        3584 max        3504 min
Histogram: 1 0 2 0 0 2 2 0 0 1
Neighs:          31777 ave       36238 max       24733 min
Histogram: 1 0 0 1 0 1 2 1 1 1

Total # of neighbors = 254216
Ave neighs/atom = 694.57923
Ave special neighs/atom = 0
Neighbor list builds = 300
Dangerous builds not checked
OMP_NUM_THREADS environment is not set. Defaulting to 1 thread. (src/comm.cpp:98)
  using 1 OpenMP thread(s) per MPI task
Reading restart file ...
  restart file = 2 Aug 2023, LAMMPS = 2 Aug 2023
  restoring atom style full from restart
  triclinic box = (0 0 0) to (16.1249 13.4224 16.909) with tilt (-8.2539 0.6162 -0.6491)
WARNING: Triclinic box skew is large. LAMMPS will run inefficiently. (src/domain.cpp:220)
  2 by 2 by 2 MPI processor grid
  pair style reaxff stores no restart info
  366 atoms
Finding 1-2 1-3 1-4 neighbors ...
  special bond factors lj:    0        0        0       
  special bond factors coul:  0        0        0       
     0 = max # of 1-2 neighbors
     0 = max # of 1-3 neighbors
     0 = max # of 1-4 neighbors
     1 = max # of special neighbors
  special bonds CPU = 0.000 seconds
  read_restart CPU = 0.003 seconds
*****debug*****
xy = -8.2538999999999997925, deltaxy = 0.082539
xz = 0.61619999999999996998, deltaxz = -0.006162
yz = -0.6491000000000000103, deltayz = 0.006491
*****
*****Negative-deform 4 starts.*****
Resetting global fix info from restart file:
  fix style: nvt, fix ID: fnvt
All restart file global fix info was re-assigned
Neighbor list info ...
  update: every = 10 steps, delay = 0 steps, check = no
  max neighbors/atom: 2000, page size: 100000
  master list distance cutoff = 12
  ghost atom cutoff = 12
  binsize = 6, bins = 5 3 3
  2 neighbor lists, perpetual/occasional/extra = 2 0 0
  (1) pair reaxff, perpetual
      attributes: half, newton off, ghost
      pair build: half/bin/newtoff/ghost
      stencil: full/ghost/bin/3d
      bin: standard
  (2) fix qeq/reaxff, perpetual, copy from (1)
      attributes: half, newton off
      pair build: copy
      stencil: none
      bin: none
Setting up Verlet run ...
  Unit style    : real
  Current step  : 0
  Time step     : 0.5
Per MPI rank memory allocation (min/avg/max) = 137.5 | 139.1 | 140.8 Mbytes
   Step          Temp          PotEng         Press         Density         Volume    
         0   279.8848      -44271.102      3186.916       1.9525358      3659.697     
       100   304.53707     -44276.578      2227.3207      1.9525358      3659.697     
       200   322.29712     -44297.222     -10231.44       1.9525358      3659.697     
       300   283.1844      -44279.995      3881.204       1.9525358      3659.697     
       400   276.02068     -44286.208      1943.9982      1.9525358      3659.697     
       500   295.54018     -44300.472      2234.629       1.9525358      3659.697     
       600   323.01378     -44298.612     -287.08801      1.9525358      3659.697     
       700   310.47259     -44266.281      4431.5368      1.9525358      3659.697     
       800   303.17341     -44270.145     -1744.6999      1.9525358      3659.697     
       900   309.69518     -44296.053     -537.97788      1.9525358      3659.697     
      1000   295.99598     -44294.412      7385.0381      1.9525358      3659.697     
      1100   304.15896     -44303.195     -9757.8515      1.9525358      3659.697     
      1200   286.1128      -44279.362     -4285.9229      1.9525358      3659.697     
      1300   319.40227     -44297.258     -8971.356       1.9525358      3659.697     
      1400   311.55064     -44283.804     -6235.8031      1.9525358      3659.697     
      1500   305.93625     -44305.827      5222.5026      1.9525358      3659.697     
      1600   289.75548     -44306.482     -5616.8633      1.9525358      3659.697     
      1700   283.83916     -44292.127      5096.3443      1.9525358      3659.697     
      1800   311.05116     -44303.783      6814.8248      1.9525358      3659.697     
      1900   309.50066     -44283.254      685.63609      1.9525358      3659.697     
      2000   310.35389     -44259.373      10379.653      1.9525358      3659.697     
      2100   308.40751     -44272.395      4341.0079      1.9525358      3659.697     
      2200   297.69897     -44292.23       3123.681       1.9525358      3659.697     
      2300   306.74415     -44307.314     -3919.7422      1.9525358      3659.697     
      2400   311.68034     -44309.143     -2172.254       1.9525358      3659.697     
      2500   316.97218     -44307.322      3614.7986      1.9525358      3659.697     
      2600   314.16519     -44290.728      3610.5301      1.9525358      3659.697     
      2700   308.51249     -44280.853      5535.5116      1.9525358      3659.697     
      2800   289.33225     -44287.177     -2084.4924      1.9525358      3659.697     
      2900   299.49728     -44318.181     -9823.5645      1.9525358      3659.697     
      3000   304.34287     -44319.534     -5439.4158      1.9525358      3659.697     
Loop time of 181.729 on 8 procs for 3000 steps with 366 atoms

Performance: 0.713 ns/day, 33.653 hours/ns, 16.508 timesteps/s, 6.042 katom-step/s
98.9% CPU use with 8 MPI tasks x 1 OpenMP threads

MPI task timing breakdown:
Section |  min time  |  avg time  |  max time  |%varavg| %total
---------------------------------------------------------------
Pair    | 103.14     | 144.21     | 155.61     | 132.0 | 79.36
Bond    | 0.0080725  | 0.009206   | 0.010298   |   0.6 |  0.01
Neigh   | 7.5107     | 10.406     | 11.485     |  36.0 |  5.73
Comm    | 1.1488     | 12.561     | 53.626     | 447.2 |  6.91
Output  | 0.012024   | 0.0142     | 0.016049   |   1.0 |  0.01
Modify  | 13.356     | 14.442     | 17.361     |  30.8 |  7.95
Other   |            | 0.08352    |            |       |  0.05

Nlocal:          45.75 ave          54 max          32 min
Histogram: 1 0 0 0 0 2 1 3 0 1
Nghost:        3553.88 ave        3593 max        3514 min
Histogram: 1 0 0 2 2 0 0 2 0 1
Neighs:        32081.8 ave       37421 max       22986 min
Histogram: 1 0 0 0 0 2 1 3 0 1

Total # of neighbors = 256654
Ave neighs/atom = 701.24044
Ave special neighs/atom = 0
Neighbor list builds = 300
Dangerous builds not checked
OMP_NUM_THREADS environment is not set. Defaulting to 1 thread. (src/comm.cpp:98)
  using 1 OpenMP thread(s) per MPI task
Reading restart file ...
  restart file = 2 Aug 2023, LAMMPS = 2 Aug 2023
  restoring atom style full from restart
  triclinic box = (0 0 0) to (16.1249 13.4224 16.909) with tilt (-8.2539 0.6162 -0.6491)
WARNING: Triclinic box skew is large. LAMMPS will run inefficiently. (src/domain.cpp:220)
  2 by 2 by 2 MPI processor grid
  pair style reaxff stores no restart info
  366 atoms
Finding 1-2 1-3 1-4 neighbors ...
  special bond factors lj:    0        0        0       
  special bond factors coul:  0        0        0       
     0 = max # of 1-2 neighbors
     0 = max # of 1-3 neighbors
     0 = max # of 1-4 neighbors
     1 = max # of special neighbors
  special bonds CPU = 0.000 seconds
  read_restart CPU = 0.003 seconds
*****Positive-deform 4 starts.*****
Resetting global fix info from restart file:
  fix style: nvt, fix ID: fnvt
All restart file global fix info was re-assigned
Neighbor list info ...
  update: every = 10 steps, delay = 0 steps, check = no
  max neighbors/atom: 2000, page size: 100000
  master list distance cutoff = 12
  ghost atom cutoff = 12
  binsize = 6, bins = 5 3 3
  2 neighbor lists, perpetual/occasional/extra = 2 0 0
  (1) pair reaxff, perpetual
      attributes: half, newton off, ghost
      pair build: half/bin/newtoff/ghost
      stencil: full/ghost/bin/3d
      bin: standard
  (2) fix qeq/reaxff, perpetual, copy from (1)
      attributes: half, newton off
      pair build: copy
      stencil: none
      bin: none
Setting up Verlet run ...
  Unit style    : real
  Current step  : 0
  Time step     : 0.5
Per MPI rank memory allocation (min/avg/max) = 137.5 | 139.1 | 140.8 Mbytes
   Step          Temp          PotEng         Press         Density         Volume    
         0   279.8848      -44271.102      3186.916       1.9525358      3659.697     
       100   304.5206      -44276.541      2164.3778      1.9525358      3659.697     
       200   319.56804     -44294.133     -9444.6794      1.9525358      3659.697     
       300   287.54703     -44285.408      4024.3608      1.9525358      3659.697     
       400   280.25036     -44290.675      2679.7954      1.9525358      3659.697     
       500   288.20514     -44290.112      2432.3459      1.9525358      3659.697     
       600   302.78102     -44269.584      1148.042       1.9525358      3659.697     
       700   306.22804     -44262.945      1696.7359      1.9525358      3659.697     
       800   307.01742     -44282.86      -1542.821       1.9525358      3659.697     
       900   305.62925     -44299.085     -14004.915      1.9525358      3659.697     
      1000   296.23957     -44299.762     -3789.1519      1.9525358      3659.697     
      1100   287.93112     -44300.312      4072.2588      1.9525358      3659.697     
      1200   302.36971     -44313.844     -4279.4814      1.9525358      3659.697     
      1300   315.08262     -44304.184      2227.5066      1.9525358      3659.697     
      1400   295.15515     -44267.181     -5799.4284      1.9525358      3659.697     
      1500   317.44968     -44285.208     -6163.0033      1.9525358      3659.697     
      1600   276.23969     -44267.557     -1883.235       1.9525358      3659.697     
      1700   288.6568      -44296.666     -7910.0199      1.9525358      3659.697     
      1800   308.18475     -44313.841     -4777.3189      1.9525358      3659.697     
      1900   293.8802      -44284.287     -5521.8687      1.9525358      3659.697     
      2000   312.55094     -44266.031     -5588.4534      1.9525358      3659.697     
      2100   319.21487     -44271.002      5153.494       1.9525358      3659.697     
      2200   303.96668     -44270.633     -10347.793      1.9525358      3659.697     
      2300   302.46067     -44288.886     -3838.6213      1.9525358      3659.697     
      2400   299.02504     -44304.958      3885.4128      1.9525358      3659.697     
      2500   286.28934     -44287.818     -4996.9304      1.9525358      3659.697     
      2600   310.32165     -44292.034     -21886.45       1.9525358      3659.697     
      2700   285.82476     -44261.401     -5493.5459      1.9525358      3659.697     
      2800   297.99026     -44277.226      4224.6596      1.9525358      3659.697     
      2900   325.36775     -44315.62       10883.199      1.9525358      3659.697     
      3000   293.94405     -44305.144     -11383.751      1.9525358      3659.697     
Loop time of 178.485 on 8 procs for 3000 steps with 366 atoms

Performance: 0.726 ns/day, 33.053 hours/ns, 16.808 timesteps/s, 6.152 katom-step/s
98.9% CPU use with 8 MPI tasks x 1 OpenMP threads

MPI task timing breakdown:
Section |  min time  |  avg time  |  max time  |%varavg| %total
---------------------------------------------------------------
Pair    | 132.39     | 146.96     | 153.12     |  47.9 | 82.34
Bond    | 0.0085861  | 0.0093919  | 0.010022   |   0.4 |  0.01
Neigh   | 9.2188     | 10.353     | 10.894     |  15.0 |  5.80
Comm    | 1.3279     | 7.5201     | 22.096     | 212.2 |  4.21
Output  | 0.0094763  | 0.010964   | 0.012041   |   0.7 |  0.01
Modify  | 13.001     | 13.548     | 14.683     |  13.1 |  7.59
Other   |            | 0.08647    |            |       |  0.05

Nlocal:          45.75 ave          52 max          38 min
Histogram: 2 0 0 0 0 2 1 1 1 1
Nghost:        3564.62 ave        3586 max        3546 min
Histogram: 1 1 1 1 1 0 0 1 1 1
Neighs:        32078.5 ave       36423 max       26800 min
Histogram: 2 0 0 0 0 2 1 1 1 1

Total # of neighbors = 256628
Ave neighs/atom = 701.1694
Ave special neighs/atom = 0
Neighbor list builds = 300
Dangerous builds not checked
OMP_NUM_THREADS environment is not set. Defaulting to 1 thread. (src/comm.cpp:98)
  using 1 OpenMP thread(s) per MPI task
Reading restart file ...
  restart file = 2 Aug 2023, LAMMPS = 2 Aug 2023
  restoring atom style full from restart
  triclinic box = (0 0 0) to (16.1249 13.4224 16.909) with tilt (-8.2539 0.6162 -0.6491)
WARNING: Triclinic box skew is large. LAMMPS will run inefficiently. (src/domain.cpp:220)
  2 by 2 by 2 MPI processor grid
  pair style reaxff stores no restart info
  366 atoms
Finding 1-2 1-3 1-4 neighbors ...
  special bond factors lj:    0        0        0       
  special bond factors coul:  0        0        0       
     0 = max # of 1-2 neighbors
     0 = max # of 1-3 neighbors
     0 = max # of 1-4 neighbors
     1 = max # of special neighbors
  special bonds CPU = 0.000 seconds
  read_restart CPU = 0.003 seconds
*****debug*****
xy = -8.2538999999999997925, deltaxy = 0.082539
xz = 0.61619999999999996998, deltaxz = -0.006162
yz = -0.6491000000000000103, deltayz = 0.006491
*****
*****Negative-deform 5 starts.*****
Resetting global fix info from restart file:
  fix style: nvt, fix ID: fnvt
All restart file global fix info was re-assigned
Neighbor list info ...
  update: every = 10 steps, delay = 0 steps, check = no
  max neighbors/atom: 2000, page size: 100000
  master list distance cutoff = 12
  ghost atom cutoff = 12
  binsize = 6, bins = 5 3 3
  2 neighbor lists, perpetual/occasional/extra = 2 0 0
  (1) pair reaxff, perpetual
      attributes: half, newton off, ghost
      pair build: half/bin/newtoff/ghost
      stencil: full/ghost/bin/3d
      bin: standard
  (2) fix qeq/reaxff, perpetual, copy from (1)
      attributes: half, newton off
      pair build: copy
      stencil: none
      bin: none
Setting up Verlet run ...
  Unit style    : real
  Current step  : 0
  Time step     : 0.5
Per MPI rank memory allocation (min/avg/max) = 137.5 | 139.1 | 140.8 Mbytes
   Step          Temp          PotEng         Press         Density         Volume    
         0   279.8848      -44271.102      3186.916       1.9525358      3659.697     
       100   304.5201      -44276.537      2167.0282      1.9525358      3659.697     
       200   321.19293     -44296         -10019.484      1.9525358      3659.697     
       300   280.57602     -44277.339      4375.4904      1.9525358      3659.697     
       400   277.04232     -44288.104     -4198.956       1.9525358      3659.697     
       500   304.84958     -44312.676      827.29021      1.9525358      3659.697     
       600   312.39171     -44292.686     -6221.7908      1.9525358      3659.697     
       700   304.98928     -44259.624      3505.376       1.9525358      3659.697     
       800   304.44744     -44271.606     -3024.3294      1.9525358      3659.697     
       900   287.19449     -44274.082     -4160.2657      1.9525358      3659.697     
      1000   286.48158     -44283.639     -4616.9928      1.9525358      3659.697     
      1100   301.96387     -44299.328     -1362.7183      1.9525358      3659.697     
      1200   287.14528     -44290.492     -6323.5752      1.9525358      3659.697     
      1300   284.66109     -44293.15      -16275.967      1.9525358      3659.697     
      1400   289.7856      -44311.725      214.446        1.9525358      3659.697     
      1500   296.67685     -44314.008      1837.6364      1.9525358      3659.697     
      1600   311.27255     -44310.276     -4277.7085      1.9525358      3659.697     
      1700   308.60852     -44292.929      1298.1564      1.9525358      3659.697     
      1800   312.68406     -44276.03       6047.481       1.9525358      3659.697     
      1900   321.71233     -44297.749     -1348.8635      1.9525358      3659.697     
      2000   298.01103     -44307.982     -641.53811      1.9525358      3659.697     
      2100   284.76422     -44295.237      4680.2711      1.9525358      3659.697     
      2200   312.13316     -44316.608      883.41513      1.9525358      3659.697     
      2300   293.24031     -44286.506     -2812.1561      1.9525358      3659.697     
      2400   312.55436     -44288.306      3534.4311      1.9525358      3659.697     
      2500   314.85947     -44286.214     -8001.8762      1.9525358      3659.697     
      2600   293.60243     -44289.077     -883.28948      1.9525358      3659.697     
      2700   319.84454     -44336.669      7851.8884      1.9525358      3659.697     
      2800   285.06355     -44303.006      859.0907       1.9525358      3659.697     
      2900   309.42863     -44315.826      239.80982      1.9525358      3659.697     
      3000   291.59871     -44292.939      4046.753       1.9525358      3659.697     
Loop time of 176.184 on 8 procs for 3000 steps with 366 atoms

Performance: 0.736 ns/day, 32.627 hours/ns, 17.028 timesteps/s, 6.232 katom-step/s
98.9% CPU use with 8 MPI tasks x 1 OpenMP threads

MPI task timing breakdown:
Section |  min time  |  avg time  |  max time  |%varavg| %total
---------------------------------------------------------------
Pair    | 138.65     | 146.48     | 150.17     |  29.3 | 83.14
Bond    | 0.0084747  | 0.0091136  | 0.010142   |   0.5 |  0.01
Neigh   | 10.282     | 10.547     | 10.772     |   4.1 |  5.99
Comm    | 2.2281     | 5.9333     | 13.733     | 145.1 |  3.37
Output  | 0.0088932  | 0.01043    | 0.011633   |   0.8 |  0.01
Modify  | 12.906     | 13.118     | 13.411     |   3.9 |  7.45
Other   |            | 0.0854     |            |       |  0.05

Nlocal:          45.75 ave          51 max          33 min
Histogram: 1 0 0 0 0 1 1 2 0 3
Nghost:           3600 ave        3657 max        3541 min
Histogram: 1 0 1 2 0 1 0 1 1 1
Neighs:        32060.9 ave       35766 max       23596 min
Histogram: 1 0 0 0 0 1 1 2 0 3

Total # of neighbors = 256487
Ave neighs/atom = 700.78415
Ave special neighs/atom = 0
Neighbor list builds = 300
Dangerous builds not checked
OMP_NUM_THREADS environment is not set. Defaulting to 1 thread. (src/comm.cpp:98)
  using 1 OpenMP thread(s) per MPI task
Reading restart file ...
  restart file = 2 Aug 2023, LAMMPS = 2 Aug 2023
  restoring atom style full from restart
  triclinic box = (0 0 0) to (16.1249 13.4224 16.909) with tilt (-8.2539 0.6162 -0.6491)
WARNING: Triclinic box skew is large. LAMMPS will run inefficiently. (src/domain.cpp:220)
  2 by 2 by 2 MPI processor grid
  pair style reaxff stores no restart info
  366 atoms
Finding 1-2 1-3 1-4 neighbors ...
  special bond factors lj:    0        0        0       
  special bond factors coul:  0        0        0       
     0 = max # of 1-2 neighbors
     0 = max # of 1-3 neighbors
     0 = max # of 1-4 neighbors
     1 = max # of special neighbors
  special bonds CPU = 0.000 seconds
  read_restart CPU = 0.003 seconds
*****Positive-deform 5 starts.*****
Resetting global fix info from restart file:
  fix style: nvt, fix ID: fnvt
All restart file global fix info was re-assigned
Neighbor list info ...
  update: every = 10 steps, delay = 0 steps, check = no
  max neighbors/atom: 2000, page size: 100000
  master list distance cutoff = 12
  ghost atom cutoff = 12
  binsize = 6, bins = 5 3 3
  2 neighbor lists, perpetual/occasional/extra = 2 0 0
  (1) pair reaxff, perpetual
      attributes: half, newton off, ghost
      pair build: half/bin/newtoff/ghost
      stencil: full/ghost/bin/3d
      bin: standard
  (2) fix qeq/reaxff, perpetual, copy from (1)
      attributes: half, newton off
      pair build: copy
      stencil: none
      bin: none
Setting up Verlet run ...
  Unit style    : real
  Current step  : 0
  Time step     : 0.5
Per MPI rank memory allocation (min/avg/max) = 137.5 | 139.1 | 140.8 Mbytes
   Step          Temp          PotEng         Press         Density         Volume    
         0   279.8848      -44271.102      3186.916       1.9525358      3659.697     
       100   304.50061     -44276.569      2196.4052      1.9525358      3659.697     
       200   320.52153     -44294.963     -10752.409      1.9525358      3659.697     
       300   281.15575     -44277.516      7148.5414      1.9525358      3659.697     
       400   278.29657     -44288.137      372.27532      1.9525358      3659.697     
       500   296.65909     -44299.118      2326.2618      1.9525358      3659.697     
       600   302.82858     -44270.722     -1750.4358      1.9525358      3659.697     
       700   319.18197     -44274.792     -5464.1244      1.9525358      3659.697     
       800   311.67836     -44285.082     -18612.251      1.9525358      3659.697     
       900   298.32034     -44290.968      1788.2596      1.9525358      3659.697     
      1000   305.73389     -44310.638     -9068.1023      1.9525358      3659.697     
      1100   300.52878     -44313.683     -5047.3414      1.9525358      3659.697     
      1200   301.53099     -44316.705      1704.5989      1.9525358      3659.697     
      1300   297.02631     -44274.068     -5870.8753      1.9525358      3659.697     
      1400   326.50865     -44288.061     -3518.6933      1.9525358      3659.697     
      1500   308.20486     -44279.009     -12629.323      1.9525358      3659.697     
      1600   300.64205     -44300.394     -2260.8343      1.9525358      3659.697     
      1700   289.60206     -44301.751     -5685.7151      1.9525358      3659.697     
      1800   318.51817     -44328.719      896.77217      1.9525358      3659.697     
      1900   303.94291     -44304.967     -9034.3461      1.9525358      3659.697     
      2000   310.77004     -44298.296     -10425.259      1.9525358      3659.697     
      2100   315.28996     -44285.204      3498.6043      1.9525358      3659.697     
      2200   332.78001     -44305.796     -6023.1939      1.9525358      3659.697     
      2300   307.03404     -44304.562     -9303.7781      1.9525358      3659.697     
      2400   287.02522     -44307.028     -6538.148       1.9525358      3659.697     
      2500   279.72833     -44298.688     -2379.1777      1.9525358      3659.697     
      2600   310.09277     -44314.613     -11216.43       1.9525358      3659.697     
      2700   278.08189     -44274.975      5379.4585      1.9525358      3659.697     
      2800   312.14255     -44308.15      -3923.3775      1.9525358      3659.697     
      2900   301.57026     -44298.163     -844.15931      1.9525358      3659.697     
      3000   303.75472     -44301.99      -6758.1832      1.9525358      3659.697     
Loop time of 144.865 on 8 procs for 3000 steps with 366 atoms

Performance: 0.895 ns/day, 26.827 hours/ns, 20.709 timesteps/s, 7.579 katom-step/s
98.9% CPU use with 8 MPI tasks x 1 OpenMP threads

MPI task timing breakdown:
Section |  min time  |  avg time  |  max time  |%varavg| %total
---------------------------------------------------------------
Pair    | 92.125     | 114.12     | 120.97     |  92.8 | 78.78
Bond    | 0.0079856  | 0.0081644  | 0.0085711  |   0.2 |  0.01
Neigh   | 7.8312     | 9.0126     | 9.4667     |  19.2 |  6.22
Comm    | 2.612      | 9.4867     | 31.458     | 321.8 |  6.55
Output  | 0.0077134  | 0.0090218  | 0.010085   |   0.7 |  0.01
Modify  | 11.674     | 12.15      | 13.359     |  16.7 |  8.39
Other   |            | 0.07788    |            |       |  0.05

Nlocal:          45.75 ave          55 max          39 min
Histogram: 2 0 1 0 1 3 0 0 0 1
Nghost:        3529.25 ave        3556 max        3499 min
Histogram: 1 1 0 0 1 2 1 0 0 2
Neighs:        32068.5 ave       38506 max       27676 min
Histogram: 2 0 1 0 2 2 0 0 0 1

Total # of neighbors = 256548
Ave neighs/atom = 700.95082
Ave special neighs/atom = 0
Neighbor list builds = 300
Dangerous builds not checked
OMP_NUM_THREADS environment is not set. Defaulting to 1 thread. (src/comm.cpp:98)
  using 1 OpenMP thread(s) per MPI task
Reading restart file ...
  restart file = 2 Aug 2023, LAMMPS = 2 Aug 2023
  restoring atom style full from restart
  triclinic box = (0 0 0) to (16.1249 13.4224 16.909) with tilt (-8.2539 0.6162 -0.6491)
WARNING: Triclinic box skew is large. LAMMPS will run inefficiently. (src/domain.cpp:220)
  2 by 2 by 2 MPI processor grid
  pair style reaxff stores no restart info
  366 atoms
Finding 1-2 1-3 1-4 neighbors ...
  special bond factors lj:    0        0        0       
  special bond factors coul:  0        0        0       
     0 = max # of 1-2 neighbors
     0 = max # of 1-3 neighbors
     0 = max # of 1-4 neighbors
     1 = max # of special neighbors
  special bonds CPU = 0.000 seconds
  read_restart CPU = 0.002 seconds
*****debug*****
xy = -8.2538999999999997925, deltaxy = 0.082539
xz = 0.61619999999999996998, deltaxz = -0.006162
yz = -0.6491000000000000103, deltayz = 0.006491
*****
*****Negative-deform 6 starts.*****
Resetting global fix info from restart file:
  fix style: nvt, fix ID: fnvt
All restart file global fix info was re-assigned
Neighbor list info ...
  update: every = 10 steps, delay = 0 steps, check = no
  max neighbors/atom: 2000, page size: 100000
  master list distance cutoff = 12
  ghost atom cutoff = 12
  binsize = 6, bins = 5 3 3
  2 neighbor lists, perpetual/occasional/extra = 2 0 0
  (1) pair reaxff, perpetual
      attributes: half, newton off, ghost
      pair build: half/bin/newtoff/ghost
      stencil: full/ghost/bin/3d
      bin: standard
  (2) fix qeq/reaxff, perpetual, copy from (1)
      attributes: half, newton off
      pair build: copy
      stencil: none
      bin: none
Setting up Verlet run ...
  Unit style    : real
  Current step  : 0
  Time step     : 0.5
Per MPI rank memory allocation (min/avg/max) = 137.5 | 139.1 | 140.8 Mbytes
   Step          Temp          PotEng         Press         Density         Volume    
         0   279.8848      -44271.102      3186.916       1.9525358      3659.697     
       100   304.52407     -44276.551      2186.3092      1.9525358      3659.697     
       200   321.71309     -44296.897     -9770.0295      1.9525358      3659.697     
       300   280.94354     -44278.019      5314.517       1.9525358      3659.697     
       400   277.56787     -44288.958      916.84504      1.9525358      3659.697     
       500   300.11134     -44305.212      8497.1852      1.9525358      3659.697     
       600   323.28278     -44299.035      678.17152      1.9525358      3659.697     
       700   307.68565     -44261.675      948.67857      1.9525358      3659.697     
       800   305.68229     -44273.178     -6096.0003      1.9525358      3659.697     
       900   292.18918     -44274.085      3016.727       1.9525358      3659.697     
      1000   293.7392      -44287.9       -8895.5388      1.9525358      3659.697     
      1100   297.21885     -44297.737     -5500.4508      1.9525358      3659.697     
      1200   289.31577     -44290.053     -6979.3632      1.9525358      3659.697     
      1300   291.77786     -44288.371     -1649.7454      1.9525358      3659.697     
      1400   319.23944     -44310.366      11376.823      1.9525358      3659.697     
      1500   309.49375     -44304.805     -10344.471      1.9525358      3659.697     
      1600   312.39008     -44323.98      -11945.981      1.9525358      3659.697     
      1700   293.52046     -44310.085     -879.79866      1.9525358      3659.697     
      1800   300.98123     -44313.946     -11602.443      1.9525358      3659.697     
      1900   297.41864     -44287.834     -11677.002      1.9525358      3659.697     
      2000   321.39601     -44291.685     -9634.8027      1.9525358      3659.697     
      2100   305.5831      -44286.732     -3704.7221      1.9525358      3659.697     
      2200   286.25025     -44300.241     -5603.246       1.9525358      3659.697     
      2300   304.502       -44326.065     -1333.5683      1.9525358      3659.697     
      2400   313.84726     -44330.882      60.805234      1.9525358      3659.697     
      2500   285.23882     -44281.425      8345.935       1.9525358      3659.697     
      2600   305.49857     -44283.044      5380.2957      1.9525358      3659.697     
      2700   323.94038     -44300.187      7674.7407      1.9525358      3659.697     
      2800   281.05258     -44301.505      4087.5336      1.9525358      3659.697     
      2900   275.27317     -44300.461     -4684.4999      1.9525358      3659.697     
      3000   284.22374     -44292.466     -4870.9633      1.9525358      3659.697     
Loop time of 93.6365 on 8 procs for 3000 steps with 366 atoms

Performance: 1.384 ns/day, 17.340 hours/ns, 32.039 timesteps/s, 11.726 katom-step/s
98.8% CPU use with 8 MPI tasks x 1 OpenMP threads

MPI task timing breakdown:
Section |  min time  |  avg time  |  max time  |%varavg| %total
---------------------------------------------------------------
Pair    | 71.889     | 74.111     | 76.185     |  14.6 | 79.15
Bond    | 0.0056248  | 0.0059393  | 0.0062266  |   0.3 |  0.01
Neigh   | 7.2804     | 7.4427     | 7.7514     |   5.1 |  7.95
Comm    | 0.7633     | 2.8525     | 5.0545     |  74.7 |  3.05
Output  | 0.0061865  | 0.0071909  | 0.0079232  |   0.6 |  0.01
Modify  | 8.8615     | 9.1514     | 9.303      |   4.3 |  9.77
Other   |            | 0.06606    |            |       |  0.07

Nlocal:          45.75 ave          54 max          34 min
Histogram: 1 0 1 1 0 0 0 1 3 1
Nghost:        3597.62 ave        3633 max        3562 min
Histogram: 1 1 1 0 0 2 0 1 1 1
Neighs:        32052.8 ave       37915 max       24319 min
Histogram: 1 1 1 0 0 0 1 1 2 1

Total # of neighbors = 256422
Ave neighs/atom = 700.60656
Ave special neighs/atom = 0
Neighbor list builds = 300
Dangerous builds not checked
OMP_NUM_THREADS environment is not set. Defaulting to 1 thread. (src/comm.cpp:98)
  using 1 OpenMP thread(s) per MPI task
Reading restart file ...
  restart file = 2 Aug 2023, LAMMPS = 2 Aug 2023
  restoring atom style full from restart
  triclinic box = (0 0 0) to (16.1249 13.4224 16.909) with tilt (-8.2539 0.6162 -0.6491)
WARNING: Triclinic box skew is large. LAMMPS will run inefficiently. (src/domain.cpp:220)
  2 by 2 by 2 MPI processor grid
  pair style reaxff stores no restart info
  366 atoms
Finding 1-2 1-3 1-4 neighbors ...
  special bond factors lj:    0        0        0       
  special bond factors coul:  0        0        0       
     0 = max # of 1-2 neighbors
     0 = max # of 1-3 neighbors
     0 = max # of 1-4 neighbors
     1 = max # of special neighbors
  special bonds CPU = 0.000 seconds
  read_restart CPU = 0.002 seconds
*****Positive-deform 6 starts.*****
Resetting global fix info from restart file:
  fix style: nvt, fix ID: fnvt
All restart file global fix info was re-assigned
Neighbor list info ...
  update: every = 10 steps, delay = 0 steps, check = no
  max neighbors/atom: 2000, page size: 100000
  master list distance cutoff = 12
  ghost atom cutoff = 12
  binsize = 6, bins = 5 3 3
  2 neighbor lists, perpetual/occasional/extra = 2 0 0
  (1) pair reaxff, perpetual
      attributes: half, newton off, ghost
      pair build: half/bin/newtoff/ghost
      stencil: full/ghost/bin/3d
      bin: standard
  (2) fix qeq/reaxff, perpetual, copy from (1)
      attributes: half, newton off
      pair build: copy
      stencil: none
      bin: none
Setting up Verlet run ...
  Unit style    : real
  Current step  : 0
  Time step     : 0.5
Per MPI rank memory allocation (min/avg/max) = 137.5 | 139.1 | 140.8 Mbytes
   Step          Temp          PotEng         Press         Density         Volume    
         0   279.8848      -44271.102      3186.916       1.9525358      3659.697     
       100   304.5393      -44276.584      2193.8319      1.9525358      3659.697     
       200   321.43309     -44295.767     -10798.445      1.9525358      3659.697     
       300   281.20261     -44277.547      3831.9278      1.9525358      3659.697     
       400   284.5699      -44294.924      5652.1681      1.9525358      3659.697     
       500   291.05946     -44297.766      11970.927      1.9525358      3659.697     
       600   307.04011     -44283.737      1078.2058      1.9525358      3659.697     
       700   314.77868     -44267.993     -3963.7395      1.9525358      3659.697     
       800   296.64648     -44260.287     -3605.9881      1.9525358      3659.697     
       900   295.5106      -44284.43       1664.4636      1.9525358      3659.697     
      1000   306.7915      -44308.629      221.28306      1.9525358      3659.697     
      1100   297.44705     -44296.591      6394.4097      1.9525358      3659.697     
      1200   285.96993     -44279.594     -2235.6234      1.9525358      3659.697     
      1300   314.36191     -44284.037      9982.7211      1.9525358      3659.697     
      1400   345.80309     -44285.218      667.19034      1.9525358      3659.697     
      1500   307.44926     -44263.719     -12116.118      1.9525358      3659.697     
      1600   314.00907     -44291.841      8306.279       1.9525358      3659.697     
      1700   302.64979     -44296.328      5842.7755      1.9525358      3659.697     
      1800   307.02509     -44322.757     -2942.4076      1.9525358      3659.697     
      1900   302.66091     -44324.855     -3370.5761      1.9525358      3659.697     
      2000   314.1166      -44315.366     -6569.9502      1.9525358      3659.697     
      2100   326.70692     -44299.825      4400.3842      1.9525358      3659.697     
      2200   289.21798     -44265.162     -2485.0525      1.9525358      3659.697     
      2300   295.3753      -44288.961      8945.9617      1.9525358      3659.697     
      2400   301.43671     -44309.401      11405.212      1.9525358      3659.697     
      2500   281.65537     -44307.373      2430.3812      1.9525358      3659.697     
      2600   280.08723     -44333.623     -5627.0228      1.9525358      3659.697     
      2700   288.73382     -44337.173     -428.64141      1.9525358      3659.697     
      2800   289.19337     -44301.506     -11100.115      1.9525358      3659.697     
      2900   299.43601     -44291.203     -1902.8281      1.9525358      3659.697     
      3000   292.2482      -44264.837     -1305.3115      1.9525358      3659.697     
Loop time of 91.565 on 8 procs for 3000 steps with 366 atoms

Performance: 1.415 ns/day, 16.956 hours/ns, 32.764 timesteps/s, 11.991 katom-step/s
98.8% CPU use with 8 MPI tasks x 1 OpenMP threads

MPI task timing breakdown:
Section |  min time  |  avg time  |  max time  |%varavg| %total
---------------------------------------------------------------
Pair    | 69.974     | 72.074     | 73.8       |  14.7 | 78.71
Bond    | 0.0054256  | 0.0057865  | 0.0060524  |   0.3 |  0.01
Neigh   | 7.132      | 7.308      | 7.6822     |   6.1 |  7.98
Comm    | 1.0096     | 2.7508     | 4.8364     |  75.3 |  3.00
Output  | 0.006515   | 0.0074469  | 0.0082133  |   0.6 |  0.01
Modify  | 8.9879     | 9.3522     | 9.5187     |   5.1 | 10.21
Other   |            | 0.06676    |            |       |  0.07

Nlocal:          45.75 ave          55 max          39 min
Histogram: 1 1 1 0 1 3 0 0 0 1
Nghost:        3560.75 ave        3587 max        3532 min
Histogram: 2 0 1 0 1 0 0 2 0 2
Neighs:        32052.9 ave       38413 max       27590 min
Histogram: 1 1 1 0 4 0 0 0 0 1

Total # of neighbors = 256423
Ave neighs/atom = 700.60929
Ave special neighs/atom = 0
Neighbor list builds = 300
Dangerous builds not checked
Total wall time: 0:35:25
