LAMMPS (2 Aug 2023 - Update 2)
OMP_NUM_THREADS environment is not set. Defaulting to 1 thread. (src/comm.cpp:98)
  using 1 OpenMP thread(s) per MPI task
Reading data file ...
  triclinic box = (0 0 0) to (15.4861 14.0699 16.771) with tilt (-7.3915 0.9919 1.0308)
WARNING: Triclinic box skew is large. LAMMPS will run inefficiently. (src/domain.cpp:220)
  2 by 2 by 2 MPI processor grid
  reading atoms ...
  274 atoms
Finding 1-2 1-3 1-4 neighbors ...
  special bond factors lj:    0        0        0       
  special bond factors coul:  0        0        0       
     0 = max # of 1-2 neighbors
     0 = max # of 1-3 neighbors
     0 = max # of 1-4 neighbors
     1 = max # of special neighbors
  special bonds CPU = 0.001 seconds
  read_data CPU = 0.005 seconds
*****Minimization starts.*****
Setting up cg style minimization ...
  Unit style    : real
  Current step  : 0
WARNING: No pairwise cutoff or binsize set. Atom sorting therefore disabled. (src/atom.cpp:2366)
WARNING: Communication cutoff is 0.0. No ghost atoms will be generated. Atoms may get lost. (src/comm_brick.cpp:210)
Per MPI rank memory allocation (min/avg/max) = 6.364 | 6.364 | 6.364 Mbytes
   Step          Temp          E_pair         E_mol          TotEng         Press     
         0   0              0              0              0              0            
         1   0              0              0              0              0            
Loop time of 5.52707e-05 on 8 procs for 1 steps with 274 atoms

37.5% CPU use with 8 MPI tasks x 1 OpenMP threads

Minimization stats:
  Stopping criterion = search direction is not downhill
  Energy initial, next-to-last, final = 
                     0                  0                  0
  Force two-norm initial, final = 0 0
  Force max component initial, final = 0 0
  Final line search alpha, max atom move = 0 0
  Iterations, force evaluations = 1 0

MPI task timing breakdown:
Section |  min time  |  avg time  |  max time  |%varavg| %total
---------------------------------------------------------------
Pair    | 0          | 0          | 0          |   0.0 |  0.00
Bond    | 1.816e-06  | 1.816e-06  | 1.816e-06  |   0.0 |  3.29
Neigh   | 0          | 0          | 0          |   0.0 |  0.00
Comm    | 4.538e-06  | 4.538e-06  | 4.538e-06  |   0.0 |  8.21
Output  | 0          | 0          | 0          |   0.0 |  0.00
Modify  | 0          | 0          | 0          |   0.0 |  0.00
Other   |            | 4.892e-05  |            |       | 88.50

Nlocal:          34.25 ave          43 max          26 min
Histogram: 1 1 0 0 2 1 1 1 0 1
Nghost:              0 ave           0 max           0 min
Histogram: 8 0 0 0 0 0 0 0 0 0
Neighs:              0 ave           0 max           0 min
Histogram: 8 0 0 0 0 0 0 0 0 0

Total # of neighbors = 0
Ave neighs/atom = 0
Ave special neighs/atom = 0
Neighbor list builds = 0
Dangerous builds = 0
System init for write_data ...
WARNING: Communication cutoff is 0.0. No ghost atoms will be generated. Atoms may get lost. (src/comm_brick.cpp:210)
WARNING: New thermo_style command, previous thermo_modify settings will be lost (src/output.cpp:903)

CITE-CITE-CITE-CITE-CITE-CITE-CITE-CITE-CITE-CITE-CITE-CITE-CITE

Your simulation uses code contributions which should be cited:
- pair reaxff command: doi:10.1016/j.parco.2011.08.005
- fix qeq/reaxff command: doi:10.1016/j.parco.2011.08.005
The log file lists these citations in BibTeX format.

CITE-CITE-CITE-CITE-CITE-CITE-CITE-CITE-CITE-CITE-CITE-CITE-CITE

WARNING: Fix qeq/reaxff group is not charge neutral, net charge = -8.2 (src/REAXFF/fix_qeq_reaxff.cpp:392)
Neighbor list info ...
  update: every = 10 steps, delay = 0 steps, check = no
  max neighbors/atom: 2000, page size: 100000
  master list distance cutoff = 12
  ghost atom cutoff = 12
  binsize = 6, bins = 4 3 3
  2 neighbor lists, perpetual/occasional/extra = 2 0 0
  (1) pair reaxff, perpetual
      attributes: half, newton off, ghost
      pair build: half/bin/newtoff/ghost
      stencil: full/ghost/bin/3d
      bin: standard
  (2) fix qeq/reaxff, perpetual, copy from (1)
      attributes: half, newton off
      pair build: copy
      stencil: none
      bin: none
Setting up Verlet run ...
  Unit style    : real
  Current step  : 0
  Time step     : 0.5
Per MPI rank memory allocation (min/avg/max) = 102.5 | 103.1 | 103.8 Mbytes
   Step          Temp          PotEng         Press        f_avgp[1]       Density         Volume    
         0   300           -29318.373      56055.99       0              1.3867102      3654.1976    
       100   1277.2119     -31113.813     -19519.09      -15260.545      1.3867102      3654.1976    
       200   729.26732     -31511.547     -19620.686     -7308.7994      1.3867102      3654.1976    
       300   528.07469     -31808.26      -8207.2906     -5217.0403      1.3867102      3654.1976    
       400   372.71712     -31933.343     -9342.0707      897.79748      1.3867102      3654.1976    
       500   292.87841     -32007.731     -8712.1783     -7194.6014      1.3867102      3654.1976    
       600   278.62283     -32064.193     -11514.86      -9353.1233      1.3867102      3654.1976    
       700   281.04226     -32088.649     -9248.5702     -9732.438       1.3867102      3654.1976    
       800   279.89746     -32064.668     -2375.4753     -3891.4574      1.3867102      3654.1976    
       900   303.41482     -32028.512     -22.20827      -6205.9671      1.3867102      3654.1976    
      1000   372.27009     -32055.325     -4177.1294     -8104.1646      1.3867102      3654.1976    
      1100   316.39072     -32072.652     -10120.325     -10024.354      1.3867102      3654.1976    
      1200   267.89763     -32103.976     -3669.9395     -9183.9151      1.3867102      3654.1976    
      1300   273.01778     -32141.707     -4368.5887     -5592.7603      1.3867102      3654.1976    
      1400   280.19896     -32148.25      -7665.4644     -8570.6678      1.3867102      3654.1976    
      1500   292.1266      -32126.578     -10035.035     -8717.7827      1.3867102      3654.1976    
      1600   314.43233     -32120.663      262.09984     -5071.0431      1.3867102      3654.1976    
      1700   337.08622     -32146.589     -13782.691     -9481.8907      1.3867102      3654.1976    
      1800   293.82713     -32149.147     -5718.6269     -16434.867      1.3867102      3654.1976    
      1900   284.70935     -32181.149     -13842.928     -14653.667      1.3867102      3654.1976    
      2000   282.5813      -32191.498     -11687.094     -17190.012      1.3867102      3654.1976    
      2100   277.26612     -32163.008     -13474.256     -14755.576      1.3867102      3654.1976    
      2200   312.32933     -32144.612     -21383.207     -12001.893      1.3867102      3654.1976    
      2300   345.70766     -32153.367     -23325.455     -14035.456      1.3867102      3654.1976    
      2400   314.22462     -32159.371     -19118.956     -13814.861      1.3867102      3654.1976    
      2500   279.11086     -32177.189     -20608.424     -13170.008      1.3867102      3654.1976    
      2600   276.15098     -32200.031     -8122.6896     -11468.692      1.3867102      3654.1976    
      2700   288.2772      -32208.725     -9149.574      -11108.817      1.3867102      3654.1976    
      2800   313.06516     -32206.801     -16061.714     -10204.977      1.3867102      3654.1976    
      2900   305.04559     -32174.751     -14799.032     -9747.2203      1.3867102      3654.1976    
      3000   308.0235      -32160.14      -22041.312     -11518.606      1.3867102      3654.1976    
Loop time of 103.289 on 8 procs for 3000 steps with 274 atoms

Performance: 1.255 ns/day, 19.128 hours/ns, 29.045 timesteps/s, 7.958 katom-step/s
98.5% CPU use with 8 MPI tasks x 1 OpenMP threads

MPI task timing breakdown:
Section |  min time  |  avg time  |  max time  |%varavg| %total
---------------------------------------------------------------
Pair    | 60.008     | 76.401     | 84.184     | 110.0 | 73.97
Bond    | 0.0083417  | 0.0086241  | 0.0091023  |   0.3 |  0.01
Neigh   | 4.9833     | 6.3159     | 7.0653     |  31.8 |  6.11
Comm    | 2.7416     | 10.535     | 26.933     | 296.3 | 10.20
Output  | 0.0015695  | 0.001768   | 0.0027581  |   0.9 |  0.00
Modify  | 9.2106     | 9.9614     | 11.305     |  25.3 |  9.64
Other   |            | 0.06584    |            |       |  0.06

Nlocal:          34.25 ave          40 max          30 min
Histogram: 1 1 0 1 2 1 0 1 0 1
Nghost:           2620 ave        2651 max        2587 min
Histogram: 1 1 1 1 0 0 0 0 3 1
Neighs:        17953.6 ave       20796 max       15859 min
Histogram: 1 1 1 1 2 0 0 1 0 1

Total # of neighbors = 143629
Ave neighs/atom = 524.19343
Ave special neighs/atom = 0
Neighbor list builds = 300
Dangerous builds not checked
System init for write_data ...
System init for write_restart ...
OMP_NUM_THREADS environment is not set. Defaulting to 1 thread. (src/comm.cpp:98)
  using 1 OpenMP thread(s) per MPI task
Reading restart file ...
  restart file = 2 Aug 2023, LAMMPS = 2 Aug 2023
  restoring atom style full from restart
  triclinic box = (0 0 0) to (15.4861 14.0699 16.771) with tilt (-7.3915 0.9919 1.0308)
WARNING: Triclinic box skew is large. LAMMPS will run inefficiently. (src/domain.cpp:220)
  2 by 2 by 2 MPI processor grid
  pair style reaxff stores no restart info
  274 atoms
Finding 1-2 1-3 1-4 neighbors ...
  special bond factors lj:    0        0        0       
  special bond factors coul:  0        0        0       
     0 = max # of 1-2 neighbors
     0 = max # of 1-3 neighbors
     0 = max # of 1-4 neighbors
     1 = max # of special neighbors
  special bonds CPU = 0.000 seconds
  read_restart CPU = 0.003 seconds
*****Negative-change 1 starts.*****
Resetting global fix info from restart file:
  fix style: nvt, fix ID: 4
Changing box ...
WARNING: Triclinic box skew is large. LAMMPS will run inefficiently. (src/domain.cpp:220)
  triclinic box = (0 0 0) to (15.331239 14.0699 16.771) with tilt (-7.3915 0.9919 1.0308)
WARNING: Triclinic box skew is large. LAMMPS will run inefficiently. (src/domain.cpp:220)
  triclinic box = (0 0 0) to (15.331239 14.0699 16.771) with tilt (-7.317585 0.9919 1.0308)
WARNING: Triclinic box skew is large. LAMMPS will run inefficiently. (src/domain.cpp:220)
  triclinic box = (0 0 0) to (15.331239 14.0699 16.771) with tilt (-7.317585 0.981981 1.0308)
All restart file global fix info was re-assigned
Neighbor list info ...
  update: every = 10 steps, delay = 0 steps, check = no
  max neighbors/atom: 2000, page size: 100000
  master list distance cutoff = 12
  ghost atom cutoff = 12
  binsize = 6, bins = 4 3 3
  2 neighbor lists, perpetual/occasional/extra = 2 0 0
  (1) pair reaxff, perpetual
      attributes: half, newton off, ghost
      pair build: half/bin/newtoff/ghost
      stencil: full/ghost/bin/3d
      bin: standard
  (2) fix qeq/reaxff, perpetual, copy from (1)
      attributes: half, newton off
      pair build: copy
      stencil: none
      bin: none
Setting up Verlet run ...
  Unit style    : real
  Current step  : 0
  Time step     : 0.5
Per MPI rank memory allocation (min/avg/max) = 101.9 | 103.1 | 104 Mbytes
   Step          Temp          PotEng         Press        f_avgp[1]        Volume    
         0   308.0235      -32161.29       13667.503      0              3617.6556    
       100   321.04389     -32182.434      10430.127     -5177.354       3617.6556    
       200   291.99896     -32185.905     -7865.1086     -7729.7804      3617.6556    
       300   289.88838     -32197.496     -9914.6135     -5228.069       3617.6556    
       400   305.07801     -32201.019     -11523.837     -7492.8809      3617.6556    
       500   289.86677     -32171.535     -9645.4424     -5227.8416      3617.6556    
       600   315.61894     -32183.973     -13740.227     -10540.376      3617.6556    
       700   300.84815     -32177.431     -21937.54      -15545.191      3617.6556    
       800   297.64283     -32193.372     -11645.274     -8802.8778      3617.6556    
       900   293.08539     -32201.127     -7013.6311     -8337.3212      3617.6556    
      1000   283.70251     -32187.614     -18597.371     -10168.327      3617.6556    
      1100   295.29395     -32189.169     -7500.3898     -8798.9139      3617.6556    
      1200   318.10656     -32203.425     -2825.7166     -13870.495      3617.6556    
      1300   295.84541     -32180.932     -17988.943     -9073.7366      3617.6556    
      1400   310.00519     -32193.003     -10134.296     -5919.5101      3617.6556    
      1500   291.824       -32187.57      -8162.937      -6797.168       3617.6556    
      1600   287.799       -32189.63       584.16146     -10888.866      3617.6556    
      1700   303.68666     -32198.322     -13656.172     -11610.909      3617.6556    
      1800   312.35406     -32200.434     -2033.988      -4564.5588      3617.6556    
      1900   296.95009     -32183.229     -7311.4289     -4921.4325      3617.6556    
      2000   314.18358     -32194.875     -3403.278      -4437.618       3617.6556    
      2100   307.96727     -32194.603     -5430.3012     -4391.1834      3617.6556    
      2200   279.29887     -32184.345     -9522.6622     -5651.0084      3617.6556    
      2300   312.73819     -32219.051     -12273.852     -8527.2834      3617.6556    
      2400   283.29643     -32196.668      8294.7337     -4257.7773      3617.6556    
      2500   301.868       -32193.46      -2107.7823     -10266.946      3617.6556    
      2600   312.9832      -32196.488     -11119.855     -6955.8231      3617.6556    
      2700   297.35443     -32201.979     -11355.592     -8534.8277      3617.6556    
      2800   293.7491      -32215.164     -14904.257     -13058.583      3617.6556    
      2900   302.53545     -32216.19      -12023.299     -10055.807      3617.6556    
      3000   292.51356     -32188.777     -24297.596     -10188.311      3617.6556    
Loop time of 107.683 on 8 procs for 3000 steps with 274 atoms

Performance: 1.204 ns/day, 19.941 hours/ns, 27.859 timesteps/s, 7.633 katom-step/s
98.8% CPU use with 8 MPI tasks x 1 OpenMP threads

MPI task timing breakdown:
Section |  min time  |  avg time  |  max time  |%varavg| %total
---------------------------------------------------------------
Pair    | 60.51      | 80.66      | 90.295     | 125.7 | 74.90
Bond    | 0.0084244  | 0.0088064  | 0.0094317  |   0.4 |  0.01
Neigh   | 5.0089     | 6.5632     | 7.2529     |  34.1 |  6.09
Comm    | 0.78741    | 10.434     | 30.586     | 349.5 |  9.69
Output  | 0.0060568  | 0.0079265  | 0.0096358  |   1.6 |  0.01
Modify  | 9.2559     | 9.9456     | 11.511     |  27.8 |  9.24
Other   |            | 0.06466    |            |       |  0.06

Nlocal:          34.25 ave          42 max          30 min
Histogram: 3 1 1 1 0 0 0 0 0 2
Nghost:         2612.5 ave        2643 max        2577 min
Histogram: 1 1 0 1 0 1 2 0 1 1
Neighs:        18103.5 ave       22005 max       16083 min
Histogram: 3 1 1 1 0 0 0 0 0 2

Total # of neighbors = 144828
Ave neighs/atom = 528.56934
Ave special neighs/atom = 0
Neighbor list builds = 300
Dangerous builds not checked
*****Equilibration neg1 starts.*****
WARNING: New thermo_style command, previous thermo_modify settings will be lost (src/output.cpp:903)
Neighbor list info ...
  update: every = 10 steps, delay = 0 steps, check = no
  max neighbors/atom: 2000, page size: 100000
  master list distance cutoff = 12
  ghost atom cutoff = 12
  binsize = 6, bins = 4 3 3
  2 neighbor lists, perpetual/occasional/extra = 2 0 0
  (1) pair reaxff, perpetual
      attributes: half, newton off, ghost
      pair build: half/bin/newtoff/ghost
      stencil: full/ghost/bin/3d
      bin: standard
  (2) fix qeq/reaxff, perpetual, copy from (1)
      attributes: half, newton off
      pair build: copy
      stencil: none
      bin: none
Setting up Verlet run ...
  Unit style    : real
  Current step  : 0
  Time step     : 0.5
Per MPI rank memory allocation (min/avg/max) = 101.9 | 103.1 | 104 Mbytes
   Step          Temp          PotEng         Press        f_avgp[1]        Volume    
         0   292.51356     -32188.777     -24297.602      0              3617.6556    
       100   314.0361      -32206.68      -4113.1852     -11268.918      3617.6556    
       200   288.87519     -32198.109     -10679.484     -15080.002      3617.6556    
       300   295.26544     -32224.415     -16101.7       -13371.432      3617.6556    
       400   298.72397     -32225.518     -7973.0504     -16636.406      3617.6556    
       500   289.40924     -32188.811     -7700.0956     -13111.107      3617.6556    
       600   290.13035     -32182.319     -9068.5977     -13368.799      3617.6556    
       700   306.0554      -32199.514     -7707.3088     -10241.629      3617.6556    
       800   306.43222     -32209.772     -17248.814     -7837.3986      3617.6556    
       900   285.35814     -32210.887     -13861.275     -9730.6916      3617.6556    
      1000   265.4175      -32214.63      -9913.5011     -10037.85       3617.6556    
      1100   287.65741     -32222.263     -3177.1571     -12333.541      3617.6556    
      1200   308.84319     -32209.35      -10044.658     -10808.134      3617.6556    
      1300   311.39242     -32205.164     -5403.7865     -9485.7961      3617.6556    
      1400   310.63553     -32207.88      -6828.3652     -9435.2947      3617.6556    
      1500   296.67438     -32206.086     -14539.525     -12513.252      3617.6556    
      1600   275.44412     -32212.384     -23818.948     -16668.633      3617.6556    
      1700   298.32209     -32234.605     -9320.2148     -16025.509      3617.6556    
      1800   299.76887     -32214.975     -10684.449     -12480.795      3617.6556    
      1900   311.51299     -32199.267     -20701.046     -13858.76       3617.6556    
      2000   308.78576     -32198.035      3405.5656     -9802.808       3617.6556    
      2100   304.10049     -32215.454     -20143.774     -13424.991      3617.6556    
      2200   281.51811     -32210.358     -16126.483     -16791.317      3617.6556    
      2300   276.0114      -32206.752     -11304.496     -12532.67       3617.6556    
      2400   303.01766     -32212.015     -8860.1912     -14214.38       3617.6556    
      2500   314.72309     -32199.292     -10400.501     -13888.723      3617.6556    
      2600   315.83452     -32203.659     -26992.183     -13236.498      3617.6556    
      2700   292.66654     -32200.027     -17409.338     -15379.791      3617.6556    
      2800   311.25066     -32229.154     -19248.14      -14129.718      3617.6556    
      2900   297.01344     -32222.377     -5340.5796     -10916.693      3617.6556    
      3000   286.49691     -32223.733     -16642.668     -12792.565      3617.6556    
Loop time of 108.321 on 8 procs for 3000 steps with 274 atoms

Performance: 1.196 ns/day, 20.059 hours/ns, 27.696 timesteps/s, 7.589 katom-step/s
98.8% CPU use with 8 MPI tasks x 1 OpenMP threads

MPI task timing breakdown:
Section |  min time  |  avg time  |  max time  |%varavg| %total
---------------------------------------------------------------
Pair    | 61.399     | 80.918     | 90.901     | 123.8 | 74.70
Bond    | 0.0082629  | 0.0087404  | 0.0093684  |   0.4 |  0.01
Neigh   | 5.0321     | 6.5689     | 7.1812     |  33.6 |  6.06
Comm    | 0.80055    | 10.797     | 30.323     | 338.9 |  9.97
Output  | 0.0013511  | 0.0015134  | 0.0023773  |   0.8 |  0.00
Modify  | 9.3444     | 9.962      | 11.512     |  27.4 |  9.20
Other   |            | 0.06371    |            |       |  0.06

Nlocal:          34.25 ave          39 max          30 min
Histogram: 2 0 1 2 0 0 0 0 1 2
Nghost:        2632.88 ave        2654 max        2600 min
Histogram: 1 0 1 0 0 1 2 0 1 2
Neighs:        18160.8 ave       20582 max       15996 min
Histogram: 2 0 1 2 0 0 0 0 1 2

Total # of neighbors = 145286
Ave neighs/atom = 530.24088
Ave special neighs/atom = 0
Neighbor list builds = 300
Dangerous builds not checked
OMP_NUM_THREADS environment is not set. Defaulting to 1 thread. (src/comm.cpp:98)
  using 1 OpenMP thread(s) per MPI task
Reading restart file ...
  restart file = 2 Aug 2023, LAMMPS = 2 Aug 2023
  restoring atom style full from restart
  triclinic box = (0 0 0) to (15.4861 14.0699 16.771) with tilt (-7.3915 0.9919 1.0308)
WARNING: Triclinic box skew is large. LAMMPS will run inefficiently. (src/domain.cpp:220)
  2 by 2 by 2 MPI processor grid
  pair style reaxff stores no restart info
  274 atoms
Finding 1-2 1-3 1-4 neighbors ...
  special bond factors lj:    0        0        0       
  special bond factors coul:  0        0        0       
     0 = max # of 1-2 neighbors
     0 = max # of 1-3 neighbors
     0 = max # of 1-4 neighbors
     1 = max # of special neighbors
  special bonds CPU = 0.000 seconds
  read_restart CPU = 0.003 seconds
*****Positive-change 1 starts.*****
Resetting global fix info from restart file:
  fix style: nvt, fix ID: 4
Changing box ...
WARNING: Triclinic box skew is large. LAMMPS will run inefficiently. (src/domain.cpp:220)
  triclinic box = (0 0 0) to (15.640961 14.0699 16.771) with tilt (-7.3915 0.9919 1.0308)
WARNING: Triclinic box skew is large. LAMMPS will run inefficiently. (src/domain.cpp:220)
  triclinic box = (0 0 0) to (15.640961 14.0699 16.771) with tilt (-7.465415 0.9919 1.0308)
WARNING: Triclinic box skew is large. LAMMPS will run inefficiently. (src/domain.cpp:220)
  triclinic box = (0 0 0) to (15.640961 14.0699 16.771) with tilt (-7.465415 1.001819 1.0308)
All restart file global fix info was re-assigned
Neighbor list info ...
  update: every = 10 steps, delay = 0 steps, check = no
  max neighbors/atom: 2000, page size: 100000
  master list distance cutoff = 12
  ghost atom cutoff = 12
  binsize = 6, bins = 5 3 3
  2 neighbor lists, perpetual/occasional/extra = 2 0 0
  (1) pair reaxff, perpetual
      attributes: half, newton off, ghost
      pair build: half/bin/newtoff/ghost
      stencil: full/ghost/bin/3d
      bin: standard
  (2) fix qeq/reaxff, perpetual, copy from (1)
      attributes: half, newton off
      pair build: copy
      stencil: none
      bin: none
Setting up Verlet run ...
  Unit style    : real
  Current step  : 0
  Time step     : 0.5
Per MPI rank memory allocation (min/avg/max) = 101 | 102 | 102.9 Mbytes
   Step          Temp          PotEng         Press        f_avgp[1]        Volume    
         0   308.0235      -32133.807     -53236.949      0              3690.7396    
       100   315.49028     -32156.614      3830.2937     -13938.209      3690.7396    
       200   298.86616     -32184.041     -9744.8968     -14357.071      3690.7396    
       300   283.70348     -32195.243     -10353.577     -13805.259      3690.7396    
       400   300.12713     -32199.274     -7663.3631     -13951.597      3690.7396    
       500   313.13103     -32182.205     -20868.809     -10039.629      3690.7396    
       600   309.23794     -32157.091     -11523.852     -15029.625      3690.7396    
       700   302.54636     -32163.608     -20994.513     -18018.824      3690.7396    
       800   300.48585     -32184.045     -12354.742     -15562.657      3690.7396    
       900   298.5698      -32198.559     -15377.651     -14350.837      3690.7396    
      1000   288.15677     -32191.512     -1984.0613     -14067.429      3690.7396    
      1100   298.9394      -32188.624     -11323.618     -12830.668      3690.7396    
      1200   290.68688     -32158.683     -14921.403     -15250.6        3690.7396    
      1300   313.48043     -32160.567     -18405.358     -16884.838      3690.7396    
      1400   314.43471     -32168.53      -17948.289     -16098.807      3690.7396    
      1500   290.56368     -32180.783     -18928.75      -20899.387      3690.7396    
      1600   283.77806     -32204.888     -13608.662     -19600.266      3690.7396    
      1700   287.70271     -32213.453     -15176.582     -18915.414      3690.7396    
      1800   304.72812     -32200.848     -18205.829     -19845.459      3690.7396    
      1900   310.68098     -32169.972     -12416.577     -14637.691      3690.7396    
      2000   296.54183     -32150.353     -14811.491     -12147.36       3690.7396    
      2100   321.41114     -32191.935     -16959.421     -16763.898      3690.7396    
      2200   276.58429     -32190.419     -6830.5662     -15049.096      3690.7396    
      2300   278.05939     -32204.555     -11213.733     -17166.915      3690.7396    
      2400   295.79844     -32204.842     -18791.213     -15273.598      3690.7396    
      2500   306.09152     -32184.393     -21254.31      -18724.74       3690.7396    
      2600   312.66045     -32169.606     -17401.433     -18555.376      3690.7396    
      2700   308.83494     -32177.465     -6216.6559     -16089.382      3690.7396    
      2800   304.26235     -32197.749     -15850.312     -17291.527      3690.7396    
      2900   286.7792      -32198.438     -14967.732     -16935.363      3690.7396    
      3000   295.25856     -32195.301     -7189.8772     -15558.367      3690.7396    
Loop time of 104.483 on 8 procs for 3000 steps with 274 atoms

Performance: 1.240 ns/day, 19.349 hours/ns, 28.713 timesteps/s, 7.867 katom-step/s
98.7% CPU use with 8 MPI tasks x 1 OpenMP threads

MPI task timing breakdown:
Section |  min time  |  avg time  |  max time  |%varavg| %total
---------------------------------------------------------------
Pair    | 59.422     | 78.59      | 87.978     | 121.6 | 75.22
Bond    | 0.0083424  | 0.008844   | 0.0093774  |   0.4 |  0.01
Neigh   | 4.317      | 5.6198     | 6.1017     |  30.7 |  5.38
Comm    | 0.85327    | 10.257     | 29.43      | 336.5 |  9.82
Output  | 0.0068602  | 0.0086637  | 0.010661   |   1.5 |  0.01
Modify  | 9.4461     | 9.9354     | 11.252     |  23.2 |  9.51
Other   |            | 0.06319    |            |       |  0.06

Nlocal:          34.25 ave          41 max          31 min
Histogram: 2 3 0 0 1 0 0 0 0 2
Nghost:        2614.75 ave        2631 max        2602 min
Histogram: 1 0 2 2 0 1 0 1 0 1
Neighs:        17765.2 ave       21031 max       16082 min
Histogram: 2 3 0 0 1 0 0 0 0 2

Total # of neighbors = 142122
Ave neighs/atom = 518.69343
Ave special neighs/atom = 0
Neighbor list builds = 300
Dangerous builds not checked
*****Equilibration pos1 starts.*****
WARNING: New thermo_style command, previous thermo_modify settings will be lost (src/output.cpp:903)
Neighbor list info ...
  update: every = 10 steps, delay = 0 steps, check = no
  max neighbors/atom: 2000, page size: 100000
  master list distance cutoff = 12
  ghost atom cutoff = 12
  binsize = 6, bins = 5 3 3
  2 neighbor lists, perpetual/occasional/extra = 2 0 0
  (1) pair reaxff, perpetual
      attributes: half, newton off, ghost
      pair build: half/bin/newtoff/ghost
      stencil: full/ghost/bin/3d
      bin: standard
  (2) fix qeq/reaxff, perpetual, copy from (1)
      attributes: half, newton off
      pair build: copy
      stencil: none
      bin: none
Setting up Verlet run ...
  Unit style    : real
  Current step  : 0
  Time step     : 0.5
Per MPI rank memory allocation (min/avg/max) = 101.1 | 102 | 103 Mbytes
   Step          Temp          PotEng         Press        f_avgp[1]        Volume    
         0   295.25856     -32195.301     -7189.8907      0              3690.7396    
       100   296.76911     -32188.473     -16351.693     -20483.609      3690.7396    
       200   322.52934     -32183.896     -20518.989     -17627.622      3690.7396    
       300   318.0374      -32167.075     -8422.6799     -16494.189      3690.7396    
       400   305.25468     -32182.146     -760.28573     -17151.127      3690.7396    
       500   313.28788     -32199.581     -9361.4179     -16296.692      3690.7396    
       600   308.18504     -32202.411     -15510.939     -22701.446      3690.7396    
       700   297.80173     -32204.469     -12632.76      -16933.986      3690.7396    
       800   272.72683     -32189.405     -21419.334     -11619.7        3690.7396    
       900   285.67055     -32204.826     -16028.832     -16637.242      3690.7396    
      1000   302.32138     -32201.386     -12188.012     -17883.255      3690.7396    
      1100   310.87113     -32189.07      -12590.035     -14636.491      3690.7396    
      1200   309.95015     -32194.706     -6199.7566     -14899.426      3690.7396    
      1300   301.12138     -32212.851     -9128.4005     -16817.255      3690.7396    
      1400   294.00958     -32218.292     -6536.9949     -12270.307      3690.7396    
      1500   308.2166      -32221.17      -13638.071     -15545.874      3690.7396    
      1600   288.37314     -32196.597     -15844.167     -17558.955      3690.7396    
      1700   292.01123     -32187.7       -17711.555     -20382.15       3690.7396    
      1800   306.28564     -32193.643     -11887.526     -17175.004      3690.7396    
      1900   321.00087     -32199.751     -18353.225     -16506.151      3690.7396    
      2000   280.49004     -32181.743     -19254.828     -22560.876      3690.7396    
      2100   294.50518     -32210.205     -18914.202     -17395.125      3690.7396    
      2200   286.03857     -32210.814     -7634.7486     -15554.599      3690.7396    
      2300   309.59745     -32207.643     -17878.628     -16751.27       3690.7396    
      2400   326.05942     -32197.964     -11116.688     -19512.058      3690.7396    
      2500   305.79407     -32192.466     -17085.23      -17147.383      3690.7396    
      2600   291.48153     -32194.515     -4719.6877     -14395.141      3690.7396    
      2700   303.25428     -32210.743     -12254.877     -16277.004      3690.7396    
      2800   301.18661     -32229.295     -15238.881     -21355.223      3690.7396    
      2900   246.45279     -32209.985     -19827.201     -22633.434      3690.7396    
      3000   287.62993     -32222.608     -22663.196     -20561.136      3690.7396    
Loop time of 104.365 on 8 procs for 3000 steps with 274 atoms

Performance: 1.242 ns/day, 19.327 hours/ns, 28.745 timesteps/s, 7.876 katom-step/s
98.7% CPU use with 8 MPI tasks x 1 OpenMP threads

MPI task timing breakdown:
Section |  min time  |  avg time  |  max time  |%varavg| %total
---------------------------------------------------------------
Pair    | 57.165     | 75.878     | 87.85      | 136.4 | 72.70
Bond    | 0.0082647  | 0.0088967  | 0.009553   |   0.5 |  0.01
Neigh   | 4.2538     | 5.4482     | 6.2658     |  35.2 |  5.22
Comm    | 0.86173    | 12.847     | 31.563     | 331.4 | 12.31
Output  | 0.0013     | 0.001662   | 0.0038372  |   2.0 |  0.00
Modify  | 9.2913     | 10.119     | 11.315     |  25.9 |  9.70
Other   |            | 0.06263    |            |       |  0.06

Nlocal:          34.25 ave          42 max          29 min
Histogram: 1 1 1 2 1 0 0 1 0 1
Nghost:        2579.38 ave        2598 max        2551 min
Histogram: 1 0 0 0 2 1 0 2 1 1
Neighs:        17759.1 ave       21595 max       15275 min
Histogram: 1 1 2 1 1 0 0 1 0 1

Total # of neighbors = 142073
Ave neighs/atom = 518.5146
Ave special neighs/atom = 0
Neighbor list builds = 300
Dangerous builds not checked
OMP_NUM_THREADS environment is not set. Defaulting to 1 thread. (src/comm.cpp:98)
  using 1 OpenMP thread(s) per MPI task
Reading restart file ...
  restart file = 2 Aug 2023, LAMMPS = 2 Aug 2023
  restoring atom style full from restart
  triclinic box = (0 0 0) to (15.4861 14.0699 16.771) with tilt (-7.3915 0.9919 1.0308)
WARNING: Triclinic box skew is large. LAMMPS will run inefficiently. (src/domain.cpp:220)
  2 by 2 by 2 MPI processor grid
  pair style reaxff stores no restart info
  274 atoms
Finding 1-2 1-3 1-4 neighbors ...
  special bond factors lj:    0        0        0       
  special bond factors coul:  0        0        0       
     0 = max # of 1-2 neighbors
     0 = max # of 1-3 neighbors
     0 = max # of 1-4 neighbors
     1 = max # of special neighbors
  special bonds CPU = 0.000 seconds
  read_restart CPU = 0.003 seconds
*****Negative-change 2 starts.*****
Resetting global fix info from restart file:
  fix style: nvt, fix ID: 4
Changing box ...
WARNING: Triclinic box skew is large. LAMMPS will run inefficiently. (src/domain.cpp:220)
  triclinic box = (0 0 0) to (15.4861 13.929201 16.771) with tilt (-7.3915 0.9919 1.0308)
WARNING: Triclinic box skew is large. LAMMPS will run inefficiently. (src/domain.cpp:220)
  triclinic box = (0 0 0) to (15.4861 13.929201 16.771) with tilt (-7.3915 0.9919 1.020492)
All restart file global fix info was re-assigned
Neighbor list info ...
  update: every = 10 steps, delay = 0 steps, check = no
  max neighbors/atom: 2000, page size: 100000
  master list distance cutoff = 12
  ghost atom cutoff = 12
  binsize = 6, bins = 4 3 3
  2 neighbor lists, perpetual/occasional/extra = 2 0 0
  (1) pair reaxff, perpetual
      attributes: half, newton off, ghost
      pair build: half/bin/newtoff/ghost
      stencil: full/ghost/bin/3d
      bin: standard
  (2) fix qeq/reaxff, perpetual, copy from (1)
      attributes: half, newton off
      pair build: copy
      stencil: none
      bin: none
Setting up Verlet run ...
  Unit style    : real
  Current step  : 0
  Time step     : 0.5
Per MPI rank memory allocation (min/avg/max) = 102.4 | 103.5 | 104.5 Mbytes
   Step          Temp          PotEng         Press        f_avgp[1]        Volume    
         0   308.0235      -32157.037      16449.65       0              3617.6556    
       100   320.37874     -32179.413      6119.2944     -8552.6697      3617.6556    
       200   298.00096     -32191.158     -11544.181     -11266.797      3617.6556    
       300   275.9701      -32189.016     -20664.826     -7523.9011      3617.6556    
       400   299.34506     -32201.391     -9874.4272     -8200.4087      3617.6556    
       500   292.70373     -32176.922     -15229.928     -8225.9889      3617.6556    
       600   329.66102     -32185.3       -12026.765     -10144.346      3617.6556    
       700   303.09154     -32172.542     -15510.819     -14150.969      3617.6556    
       800   292.20948     -32188.281     -9760.1207     -5863.9867      3617.6556    
       900   266.47769     -32184.047     -8159.2868     -10938.914      3617.6556    
      1000   302.46879     -32210.265      1688.7709     -7402.8711      3617.6556    
      1100   278.71807     -32173.571     -7933.5275     -9590.3944      3617.6556    
      1200   324.16579     -32186.942     -4961.9783     -4533.5685      3617.6556    
      1300   321.64744     -32179.819     -3451.7027     -9218.9052      3617.6556    
      1400   296.44996     -32178.37      -5345.1247     -7813.0495      3617.6556    
      1500   291.83801     -32200.616     -11232.101     -11078.624      3617.6556    
      1600   290.23175     -32211.72      -9838.4468     -8783.1805      3617.6556    
      1700   302.80895     -32209.863     -1742.0439     -9144.6868      3617.6556    
      1800   295.45224     -32187.61       1130.2189     -2972.5751      3617.6556    
      1900   307.07247     -32190.266      1815.902      -9559.6852      3617.6556    
      2000   301.77954     -32195.401     -17219.454     -7760.0073      3617.6556    
      2100   281.93789     -32192.805     -9075.175      -11486.585      3617.6556    
      2200   298.74574     -32216.051      367.56094     -7988.3746      3617.6556    
      2300   291.17029     -32207.406     -13093.252     -10995.165      3617.6556    
      2400   306.05964     -32200.316     -14420.791     -10888.029      3617.6556    
      2500   313.95101     -32193.442     -11025.491     -13599.925      3617.6556    
      2600   318.1186      -32198.429     -9130.1004     -15476.346      3617.6556    
      2700   296.03516     -32204.292     -7591.8376     -6600.7169      3617.6556    
      2800   285.38515     -32217.856      4059.7728     -7135.6125      3617.6556    
      2900   284.35925     -32219.586     -13181.51      -8999.683       3617.6556    
      3000   306.7653      -32215.557     -9984.8904     -14119.236      3617.6556    
Loop time of 107.55 on 8 procs for 3000 steps with 274 atoms

Performance: 1.205 ns/day, 19.917 hours/ns, 27.894 timesteps/s, 7.643 katom-step/s
98.7% CPU use with 8 MPI tasks x 1 OpenMP threads

MPI task timing breakdown:
Section |  min time  |  avg time  |  max time  |%varavg| %total
---------------------------------------------------------------
Pair    | 58.859     | 76.143     | 90.033     | 139.4 | 70.80
Bond    | 0.008127   | 0.0089587  | 0.009785   |   0.6 |  0.01
Neigh   | 4.956      | 6.2384     | 7.3103     |  39.4 |  5.80
Comm    | 0.80374    | 14.705     | 31.991     | 317.1 | 13.67
Output  | 0.0071865  | 0.0088059  | 0.010284   |   1.2 |  0.01
Modify  | 9.2935     | 10.383     | 11.665     |  30.8 |  9.65
Other   |            | 0.06275    |            |       |  0.06

Nlocal:          34.25 ave          43 max          29 min
Histogram: 1 1 3 0 1 0 0 1 0 1
Nghost:        2665.88 ave        2677 max        2654 min
Histogram: 1 1 0 2 1 0 0 0 1 2
Neighs:        18136.6 ave       22502 max       15567 min
Histogram: 1 1 3 0 1 0 0 1 0 1

Total # of neighbors = 145093
Ave neighs/atom = 529.5365
Ave special neighs/atom = 0
Neighbor list builds = 300
Dangerous builds not checked
*****Equilibration neg2 starts.*****
WARNING: New thermo_style command, previous thermo_modify settings will be lost (src/output.cpp:903)
Neighbor list info ...
  update: every = 10 steps, delay = 0 steps, check = no
  max neighbors/atom: 2000, page size: 100000
  master list distance cutoff = 12
  ghost atom cutoff = 12
  binsize = 6, bins = 4 3 3
  2 neighbor lists, perpetual/occasional/extra = 2 0 0
  (1) pair reaxff, perpetual
      attributes: half, newton off, ghost
      pair build: half/bin/newtoff/ghost
      stencil: full/ghost/bin/3d
      bin: standard
  (2) fix qeq/reaxff, perpetual, copy from (1)
      attributes: half, newton off
      pair build: copy
      stencil: none
      bin: none
Setting up Verlet run ...
  Unit style    : real
  Current step  : 0
  Time step     : 0.5
Per MPI rank memory allocation (min/avg/max) = 102.4 | 103.5 | 104.5 Mbytes
   Step          Temp          PotEng         Press        f_avgp[1]        Volume    
         0   306.7653      -32215.557     -9984.9051      0              3617.6556    
       100   306.02309     -32214.988      331.21665     -11592.576      3617.6556    
       200   293.74644     -32215.655     -15100.808     -19133.144      3617.6556    
       300   300.72227     -32231.43      -12959.931     -14049.261      3617.6556    
       400   267.66074     -32205.127     -18305.035     -14935.659      3617.6556    
       500   294.39485     -32204.355     -15449.136     -13031.238      3617.6556    
       600   311.7542      -32202.568     -14805.679     -13736.755      3617.6556    
       700   304.12526     -32204.733     -11160.615     -8223.4227      3617.6556    
       800   287.95041     -32218.318     -13724.916     -11515.086      3617.6556    
       900   294.69319     -32232.186     -4052.3775     -7095.7524      3617.6556    
      1000   294.99714     -32226.826     -19712.82      -13624.541      3617.6556    
      1100   301.86417     -32220.851     -22701.92      -15724.414      3617.6556    
      1200   310.43142     -32207.672     -16985.954     -18052.132      3617.6556    
      1300   329.65121     -32209.434     -14693.074     -14924.295      3617.6556    
      1400   298.75232     -32191.497     -18660.042     -14843.303      3617.6556    
      1500   295.95634     -32225.359     -13266.465     -17274.956      3617.6556    
      1600   306.04553     -32236.918     -4758.1796     -13948.839      3617.6556    
      1700   298.65424     -32217.163     -3226.6491     -8664.7052      3617.6556    
      1800   324.4383      -32220.014     -3159.6238     -5766.2767      3617.6556    
      1900   311.09578     -32211.46      -3095.7751     -8740.2015      3617.6556    
      2000   292.36836     -32230.453     -10206.664     -14802.495      3617.6556    
      2100   263.67816     -32220.87      -3605.0551     -11320.155      3617.6556    
      2200   290.50613     -32224.259     -1291.8304     -5987.4234      3617.6556    
      2300   309.41126     -32218.697     -4523.2955     -8388.8741      3617.6556    
      2400   316.31929     -32216.684     -12787.705     -15102.487      3617.6556    
      2500   322.17632     -32227.914     -8612.8605     -15862.44       3617.6556    
      2600   309.61068     -32252.06      -21386.953     -15444.179      3617.6556    
      2700   284.45225     -32234.169     -2435.2039     -14717.304      3617.6556    
      2800   301.06012     -32228.641     -13579.471     -12682.471      3617.6556    
      2900   290.5838      -32203.641     -8394.1969     -12341.767      3617.6556    
      3000   294.26899     -32201.186     -12781.48      -12598.742      3617.6556    
Loop time of 109.803 on 8 procs for 3000 steps with 274 atoms

Performance: 1.180 ns/day, 20.334 hours/ns, 27.322 timesteps/s, 7.486 katom-step/s
98.8% CPU use with 8 MPI tasks x 1 OpenMP threads

MPI task timing breakdown:
Section |  min time  |  avg time  |  max time  |%varavg| %total
---------------------------------------------------------------
Pair    | 60.503     | 77.856     | 90.456     | 150.5 | 70.91
Bond    | 0.0077641  | 0.008645   | 0.0093221  |   0.6 |  0.01
Neigh   | 4.9896     | 6.3815     | 7.4749     |  42.3 |  5.81
Comm    | 2.0405     | 14.637     | 31.961     | 346.7 | 13.33
Output  | 0.0012882  | 0.0016148  | 0.0034457  |   1.7 |  0.00
Modify  | 9.7471     | 10.854     | 12.273     |  33.0 |  9.88
Other   |            | 0.06446    |            |       |  0.06

Nlocal:          34.25 ave          41 max          30 min
Histogram: 2 2 0 0 1 1 0 1 0 1
Nghost:        2643.38 ave        2654 max        2636 min
Histogram: 2 0 2 1 0 1 0 0 1 1
Neighs:        18177.1 ave       21575 max       15986 min
Histogram: 2 2 0 0 1 1 0 1 0 1

Total # of neighbors = 145417
Ave neighs/atom = 530.71898
Ave special neighs/atom = 0
Neighbor list builds = 300
Dangerous builds not checked
OMP_NUM_THREADS environment is not set. Defaulting to 1 thread. (src/comm.cpp:98)
  using 1 OpenMP thread(s) per MPI task
Reading restart file ...
  restart file = 2 Aug 2023, LAMMPS = 2 Aug 2023
  restoring atom style full from restart
  triclinic box = (0 0 0) to (15.4861 14.0699 16.771) with tilt (-7.3915 0.9919 1.0308)
WARNING: Triclinic box skew is large. LAMMPS will run inefficiently. (src/domain.cpp:220)
  2 by 2 by 2 MPI processor grid
  pair style reaxff stores no restart info
  274 atoms
Finding 1-2 1-3 1-4 neighbors ...
  special bond factors lj:    0        0        0       
  special bond factors coul:  0        0        0       
     0 = max # of 1-2 neighbors
     0 = max # of 1-3 neighbors
     0 = max # of 1-4 neighbors
     1 = max # of special neighbors
  special bonds CPU = 0.001 seconds
  read_restart CPU = 0.004 seconds
*****Positive-change 2 starts.*****
Resetting global fix info from restart file:
  fix style: nvt, fix ID: 4
Changing box ...
WARNING: Triclinic box skew is large. LAMMPS will run inefficiently. (src/domain.cpp:220)
  triclinic box = (0 0 0) to (15.4861 14.210599 16.771) with tilt (-7.3915 0.9919 1.0308)
WARNING: Triclinic box skew is large. LAMMPS will run inefficiently. (src/domain.cpp:220)
  triclinic box = (0 0 0) to (15.4861 14.210599 16.771) with tilt (-7.3915 0.9919 1.041108)
All restart file global fix info was re-assigned
Neighbor list info ...
  update: every = 10 steps, delay = 0 steps, check = no
  max neighbors/atom: 2000, page size: 100000
  master list distance cutoff = 12
  ghost atom cutoff = 12
  binsize = 6, bins = 4 3 3
  2 neighbor lists, perpetual/occasional/extra = 2 0 0
  (1) pair reaxff, perpetual
      attributes: half, newton off, ghost
      pair build: half/bin/newtoff/ghost
      stencil: full/ghost/bin/3d
      bin: standard
  (2) fix qeq/reaxff, perpetual, copy from (1)
      attributes: half, newton off
      pair build: copy
      stencil: none
      bin: none
Setting up Verlet run ...
  Unit style    : real
  Current step  : 0
  Time step     : 0.5
Per MPI rank memory allocation (min/avg/max) = 100.7 | 101.6 | 102.5 Mbytes
   Step          Temp          PotEng         Press        f_avgp[1]        Volume    
         0   308.0235      -32134.274     -55248.023      0              3690.7396    
       100   319.30834     -32159.624     -1286.1089     -11114.502      3690.7396    
       200   294.54378     -32180.321     -11706.367     -12837.695      3690.7396    
       300   280.39634     -32191.6       -13276.241     -11583.066      3690.7396    
       400   293.71426     -32192.763     -9093.3157     -12648.638      3690.7396    
       500   303.1652      -32170.399     -14086.366     -8280.0096      3690.7396    
       600   322.35282     -32165.173     -22878.272     -12540.024      3690.7396    
       700   317.31167     -32169.849     -22683.007     -14572.249      3690.7396    
       800   303.73859     -32182.892     -6184.7392     -13120.481      3690.7396    
       900   286.80158     -32188.591     -14412.747     -11436.799      3690.7396    
      1000   273.42308     -32178.329     -20947.783     -9971.2485      3690.7396    
      1100   289.01347     -32179.246     -5233.4298     -9643.3183      3690.7396    
      1200   295.98762     -32170.701     -15542.214     -8605.8878      3690.7396    
      1300   289.04108     -32157.119     -24047.63      -11673.773      3690.7396    
      1400   304.99069     -32172.774     -16397.075     -14134.953      3690.7396    
      1500   321.3614      -32190.792     -17751.899     -13305.17       3690.7396    
      1600   305.68597     -32183.296     -9227.2879     -11952.825      3690.7396    
      1700   284.98827     -32175.45      -18340.363     -11065.264      3690.7396    
      1800   288.75729     -32180.5       -13574.66      -15726.089      3690.7396    
      1900   296.83602     -32165.784     -3735.3601     -5737.6657      3690.7396    
      2000   325.93847     -32169.14      -10562.62      -8577.8921      3690.7396    
      2100   311.66607     -32159.089     -17427.63      -11781.561      3690.7396    
      2200   302.06581     -32183.474     -14440.727     -13523.385      3690.7396    
      2300   295.99875     -32203.082     -7494.8646     -8702.1367      3690.7396    
      2400   306.74416     -32211.359     -12273.546     -8230.6412      3690.7396    
      2500   300.31397     -32189.189     -16816.859     -12920.821      3690.7396    
      2600   314.15853     -32180.476     -1816.6091     -11159.677      3690.7396    
      2700   320.62969     -32175.301     -2762.8492     -12318.879      3690.7396    
      2800   287.89162     -32162.072     -4578.4079     -14628.583      3690.7396    
      2900   283.79206     -32183.279     -16937.985     -10645.881      3690.7396    
      3000   277.03422     -32198.863     -8931.7664     -12788.298      3690.7396    
Loop time of 106.13 on 8 procs for 3000 steps with 274 atoms

Performance: 1.221 ns/day, 19.654 hours/ns, 28.267 timesteps/s, 7.745 katom-step/s
98.8% CPU use with 8 MPI tasks x 1 OpenMP threads

MPI task timing breakdown:
Section |  min time  |  avg time  |  max time  |%varavg| %total
---------------------------------------------------------------
Pair    | 57.897     | 77.454     | 88.047     | 129.5 | 72.98
Bond    | 0.0075785  | 0.0087569  | 0.0093748  |   0.6 |  0.01
Neigh   | 4.8698     | 6.4131     | 7.3253     |  36.4 |  6.04
Comm    | 1.1437     | 11.739     | 31.276     | 332.5 | 11.06
Output  | 0.0088945  | 0.010354   | 0.011729   |   1.1 |  0.01
Modify  | 9.5169     | 10.438     | 12.008     |  28.8 |  9.83
Other   |            | 0.06616    |            |       |  0.06

Nlocal:          34.25 ave          40 max          30 min
Histogram: 1 0 1 3 1 0 0 0 0 2
Nghost:        2578.12 ave        2605 max        2556 min
Histogram: 1 1 1 1 1 1 0 0 1 1
Neighs:        17782.9 ave       20658 max       15628 min
Histogram: 1 1 2 1 1 0 0 0 0 2

Total # of neighbors = 142263
Ave neighs/atom = 519.20803
Ave special neighs/atom = 0
Neighbor list builds = 300
Dangerous builds not checked
*****Equilibration pos2 starts.*****
WARNING: New thermo_style command, previous thermo_modify settings will be lost (src/output.cpp:903)
Neighbor list info ...
  update: every = 10 steps, delay = 0 steps, check = no
  max neighbors/atom: 2000, page size: 100000
  master list distance cutoff = 12
  ghost atom cutoff = 12
  binsize = 6, bins = 4 3 3
  2 neighbor lists, perpetual/occasional/extra = 2 0 0
  (1) pair reaxff, perpetual
      attributes: half, newton off, ghost
      pair build: half/bin/newtoff/ghost
      stencil: full/ghost/bin/3d
      bin: standard
  (2) fix qeq/reaxff, perpetual, copy from (1)
      attributes: half, newton off
      pair build: copy
      stencil: none
      bin: none
Setting up Verlet run ...
  Unit style    : real
  Current step  : 0
  Time step     : 0.5
Per MPI rank memory allocation (min/avg/max) = 100.7 | 101.6 | 102.6 Mbytes
   Step          Temp          PotEng         Press        f_avgp[1]        Volume    
         0   277.03422     -32198.863     -8931.7516      0              3690.7396    
       100   275.20757     -32186.626     -14266.73      -13353.064      3690.7396    
       200   314.20503     -32190.599     -11934.222     -16871.98       3690.7396    
       300   310.92002     -32187.964     -22892.413     -10098.85       3690.7396    
       400   284.38614     -32180.367     -11307.766     -8789.1226      3690.7396    
       500   303.02743     -32203.826     -10292.164     -15178.527      3690.7396    
       600   301.198       -32210.342     -10234.411     -14728.52       3690.7396    
       700   277.70357     -32214.432     -10415.575     -11267.514      3690.7396    
       800   295.05333     -32224.018     -18184.106     -12899.267      3690.7396    
       900   306.15858     -32206.409     -19820.49      -10693.179      3690.7396    
      1000   293.88595     -32185.48      -21098.727     -14849.875      3690.7396    
      1100   319.72435     -32201.643     -17498.138     -15640.685      3690.7396    
      1200   285.70202     -32187.591     -1301.7671     -14895.133      3690.7396    
      1300   281.84006     -32212.735     -5718.1271     -13117.392      3690.7396    
      1400   279.65274     -32212.045     -19611.455     -12813.037      3690.7396    
      1500   304.55058     -32215.184     -16145.493     -11322.934      3690.7396    
      1600   305.51756     -32209.145     -20029.609     -12063.182      3690.7396    
      1700   306.37858     -32206.051     -16206.259     -14362.037      3690.7396    
      1800   296.70951     -32198.581     -4835.3955     -9201.9949      3690.7396    
      1900   306.81803     -32196.814     -17882.83      -17867.573      3690.7396    
      2000   326.8824      -32195.934     -14921.817     -15696.956      3690.7396    
      2100   319.95008     -32197.842     -13641.316     -13499.494      3690.7396    
      2200   282.22308     -32195.135     -16510.561     -15233.551      3690.7396    
      2300   301.19746     -32215.76      -17039.302     -14023.393      3690.7396    
      2400   321.57227     -32224.739     -16562.388     -12951.294      3690.7396    
      2500   293.68226     -32199.402     -13260.707     -17552.971      3690.7396    
      2600   317.29096     -32191.44      -20695.674     -16547.444      3690.7396    
      2700   325.15102     -32179.217     -20023.837     -18442.26       3690.7396    
      2800   308.58988     -32188.511     -20232.919     -13843.562      3690.7396    
      2900   301.04787     -32197.168     -13337.338     -14257.071      3690.7396    
      3000   293.11153     -32192.865     -17532.803     -14259.951      3690.7396    
Loop time of 106.675 on 8 procs for 3000 steps with 274 atoms

Performance: 1.215 ns/day, 19.755 hours/ns, 28.123 timesteps/s, 7.706 katom-step/s
98.8% CPU use with 8 MPI tasks x 1 OpenMP threads

MPI task timing breakdown:
Section |  min time  |  avg time  |  max time  |%varavg| %total
---------------------------------------------------------------
Pair    | 57.357     | 79.458     | 88.583     | 117.0 | 74.49
Bond    | 0.0075953  | 0.0088319  | 0.0093314  |   0.6 |  0.01
Neigh   | 4.7955     | 6.5027     | 7.2556     |  31.9 |  6.10
Comm    | 1.2081     | 10.34      | 32.442     | 324.3 |  9.69
Output  | 0.0013006  | 0.0015722  | 0.0028705  |   1.2 |  0.00
Modify  | 9.5387     | 10.298     | 12.014     |  25.6 |  9.65
Other   |            | 0.06668    |            |       |  0.06

Nlocal:          34.25 ave          41 max          29 min
Histogram: 1 1 1 1 0 2 0 1 0 1
Nghost:        2598.25 ave        2617 max        2582 min
Histogram: 1 0 3 0 1 0 0 1 1 1
Neighs:        17787.8 ave       21132 max       15171 min
Histogram: 1 1 1 1 1 1 0 1 0 1

Total # of neighbors = 142302
Ave neighs/atom = 519.35036
Ave special neighs/atom = 0
Neighbor list builds = 300
Dangerous builds not checked
OMP_NUM_THREADS environment is not set. Defaulting to 1 thread. (src/comm.cpp:98)
  using 1 OpenMP thread(s) per MPI task
Reading restart file ...
  restart file = 2 Aug 2023, LAMMPS = 2 Aug 2023
  restoring atom style full from restart
  triclinic box = (0 0 0) to (15.4861 14.0699 16.771) with tilt (-7.3915 0.9919 1.0308)
WARNING: Triclinic box skew is large. LAMMPS will run inefficiently. (src/domain.cpp:220)
  2 by 2 by 2 MPI processor grid
  pair style reaxff stores no restart info
  274 atoms
Finding 1-2 1-3 1-4 neighbors ...
  special bond factors lj:    0        0        0       
  special bond factors coul:  0        0        0       
     0 = max # of 1-2 neighbors
     0 = max # of 1-3 neighbors
     0 = max # of 1-4 neighbors
     1 = max # of special neighbors
  special bonds CPU = 0.000 seconds
  read_restart CPU = 0.003 seconds
*****Negative-change 3 starts.*****
Resetting global fix info from restart file:
  fix style: nvt, fix ID: 4
Changing box ...
WARNING: Triclinic box skew is large. LAMMPS will run inefficiently. (src/domain.cpp:220)
  triclinic box = (0 0 0) to (15.4861 14.0699 16.60329) with tilt (-7.3915 0.9919 1.0308)
All restart file global fix info was re-assigned
Neighbor list info ...
  update: every = 10 steps, delay = 0 steps, check = no
  max neighbors/atom: 2000, page size: 100000
  master list distance cutoff = 12
  ghost atom cutoff = 12
  binsize = 6, bins = 4 3 3
  2 neighbor lists, perpetual/occasional/extra = 2 0 0
  (1) pair reaxff, perpetual
      attributes: half, newton off, ghost
      pair build: half/bin/newtoff/ghost
      stencil: full/ghost/bin/3d
      bin: standard
  (2) fix qeq/reaxff, perpetual, copy from (1)
      attributes: half, newton off
      pair build: copy
      stencil: none
      bin: none
Setting up Verlet run ...
  Unit style    : real
  Current step  : 0
  Time step     : 0.5
Per MPI rank memory allocation (min/avg/max) = 102 | 102.9 | 103.5 Mbytes
   Step          Temp          PotEng         Press        f_avgp[1]        Volume    
         0   308.0235      -32162.974      12616.318      0              3617.6556    
       100   328.24543     -32188.503      11970.104     -7922.3829      3617.6556    
       200   284.35223     -32176.576     -5130.4902     -10230.39       3617.6556    
       300   299.813       -32200.552     -17038.117     -7453.1781      3617.6556    
       400   302.31018     -32197.531     -6498.6916     -9646.9732      3617.6556    
       500   295.05136     -32177.993     -5128.4561     -8595.7653      3617.6556    
       600   297.47197     -32167.811     -17079.419     -9028.5149      3617.6556    
       700   295.27388     -32168.495     -18717.591     -11917.663      3617.6556    
       800   291.47162     -32178.474     -4549.1587     -11818.065      3617.6556    
       900   289.28095     -32189.626     -11193.203     -7945.2223      3617.6556    
      1000   293.02262     -32196.998     -7963.679      -12352.713      3617.6556    
      1100   285.11471     -32189.234     -2719.8851     -9052.6397      3617.6556    
      1200   292.58122     -32186.005     -3115.7208     -10564.825      3617.6556    
      1300   299.5318      -32185.025     -7497.9698     -7113.8278      3617.6556    
      1400   291.89159     -32180.322     -21176.067     -11674.629      3617.6556    
      1500   296.99548     -32199.063     -14174.696     -12968.28       3617.6556    
      1600   283.85296     -32206.72      -5288.1443     -9896.5877      3617.6556    
      1700   318.43341     -32234.199     -11269.022     -10476.854      3617.6556    
      1800   296.49049     -32205.259      2879.7548     -13282.063      3617.6556    
      1900   306.30105     -32200.879      7846.3994     -10733.416      3617.6556    
      2000   295.24046     -32188.419     -5055.1456     -12394.882      3617.6556    
      2100   290.81269     -32188.879     -20895.441     -13700.888      3617.6556    
      2200   316.25675     -32224.093     -7899.1489     -8499.6904      3617.6556    
      2300   288.32238     -32216.484     -10924.578     -9942.6696      3617.6556    
      2400   294.7815      -32219.283     -17305.577     -10734.034      3617.6556    
      2500   292.27725     -32198.75      -10678.603     -13035.441      3617.6556    
      2600   294.35309     -32179.043     -9505.5181     -14539.918      3617.6556    
      2700   312.05159     -32188.809     -2682.6289     -5990.9398      3617.6556    
      2800   308.38377     -32209.135     -11194.042     -12106.07       3617.6556    
      2900   281.81994     -32209.588      3794.2511     -9700.0918      3617.6556    
      3000   282.83306     -32215.532     -12709.3       -12799.051      3617.6556    
Loop time of 109.048 on 8 procs for 3000 steps with 274 atoms

Performance: 1.188 ns/day, 20.194 hours/ns, 27.511 timesteps/s, 7.538 katom-step/s
98.8% CPU use with 8 MPI tasks x 1 OpenMP threads

MPI task timing breakdown:
Section |  min time  |  avg time  |  max time  |%varavg| %total
---------------------------------------------------------------
Pair    | 61.57      | 82.223     | 91.031     | 106.3 | 75.40
Bond    | 0.0079158  | 0.0088579  | 0.0095408  |   0.5 |  0.01
Neigh   | 5.1664     | 6.7232     | 7.4649     |  28.9 |  6.17
Comm    | 1.0224     | 9.8318     | 30.483     | 307.2 |  9.02
Output  | 0.0079461  | 0.0095874  | 0.011282   |   1.3 |  0.01
Modify  | 9.4353     | 10.185     | 11.75      |  23.8 |  9.34
Other   |            | 0.06631    |            |       |  0.06

Nlocal:          34.25 ave          43 max          29 min
Histogram: 1 1 3 1 0 0 0 1 0 1
Nghost:        2626.75 ave        2659 max        2608 min
Histogram: 2 2 0 1 0 1 0 1 0 1
Neighs:        18142.2 ave       22546 max       15607 min
Histogram: 1 2 2 1 0 0 0 1 0 1

Total # of neighbors = 145138
Ave neighs/atom = 529.70073
Ave special neighs/atom = 0
Neighbor list builds = 300
Dangerous builds not checked
*****Equilibration neg3 starts.*****
WARNING: New thermo_style command, previous thermo_modify settings will be lost (src/output.cpp:903)
Neighbor list info ...
  update: every = 10 steps, delay = 0 steps, check = no
  max neighbors/atom: 2000, page size: 100000
  master list distance cutoff = 12
  ghost atom cutoff = 12
  binsize = 6, bins = 4 3 3
  2 neighbor lists, perpetual/occasional/extra = 2 0 0
  (1) pair reaxff, perpetual
      attributes: half, newton off, ghost
      pair build: half/bin/newtoff/ghost
      stencil: full/ghost/bin/3d
      bin: standard
  (2) fix qeq/reaxff, perpetual, copy from (1)
      attributes: half, newton off
      pair build: copy
      stencil: none
      bin: none
Setting up Verlet run ...
  Unit style    : real
  Current step  : 0
  Time step     : 0.5
Per MPI rank memory allocation (min/avg/max) = 102 | 102.9 | 103.5 Mbytes
   Step          Temp          PotEng         Press        f_avgp[1]        Volume    
         0   282.83306     -32215.532     -12709.303      0              3617.6556    
       100   280.5583      -32201.963     -5284.141      -7690.1609      3617.6556    
       200   299.99411     -32190.485     -15555.033     -15189.613      3617.6556    
       300   316.23802     -32202.627     -11230.646     -11213.503      3617.6556    
       400   285.00959     -32191.863     -10007.159     -10732.792      3617.6556    
       500   299.52647     -32211.242     -14209.95      -12160.383      3617.6556    
       600   309.23694     -32224.127     -12857.619     -9149.5293      3617.6556    
       700   290.34678     -32227.89      -11386.463     -17620.05       3617.6556    
       800   288.59258     -32236.844     -15005.561     -17498.765      3617.6556    
       900   282.27966     -32209.697      224.91892     -11666.506      3617.6556    
      1000   295.13379     -32202.25      -20004.485     -12705.514      3617.6556    
      1100   297.16793     -32198.736     -9164.964      -12926.811      3617.6556    
      1200   300.21682     -32206.945     -7003.5248     -11627.848      3617.6556    
      1300   287.92352     -32210.012     -3191.0619     -14766.435      3617.6556    
      1400   297.85829     -32220.988     -13121.291     -10619.857      3617.6556    
      1500   318.39375     -32233.785     -21833.919     -16259.298      3617.6556    
      1600   312.99985     -32224.649     -9748.5112     -8833.4424      3617.6556    
      1700   313.93431     -32216.058     -15830.899     -11846.171      3617.6556    
      1800   299.72031     -32198.487     -7775.2893     -11347.651      3617.6556    
      1900   283.65217     -32192.54      -13039.97      -12714.336      3617.6556    
      2000   279.99007     -32202.263     -31294.766     -16552.092      3617.6556    
      2100   316.36638     -32239.352     -12664.045     -14573.977      3617.6556    
      2200   295.60137     -32232.197     -8858.6914     -16259.345      3617.6556    
      2300   288.69795     -32226.015     -10402.039     -11675.948      3617.6556    
      2400   327.06868     -32231.208     -14541.871     -12346.721      3617.6556    
      2500   295.08703     -32204.824     -13922.511     -18131.43       3617.6556    
      2600   299.56237     -32224.702     -10637.894     -20757.946      3617.6556    
      2700   260.09154     -32222.014     -10627.96      -18519.751      3617.6556    
      2800   244.71832     -32206.351     -12895.665     -21933.813      3617.6556    
      2900   288.88546     -32228.207     -16200.745     -17571.052      3617.6556    
      3000   292.45653     -32218.895     -2355.8417     -13037.707      3617.6556    
Loop time of 108.984 on 8 procs for 3000 steps with 274 atoms

Performance: 1.189 ns/day, 20.182 hours/ns, 27.527 timesteps/s, 7.542 katom-step/s
98.8% CPU use with 8 MPI tasks x 1 OpenMP threads

MPI task timing breakdown:
Section |  min time  |  avg time  |  max time  |%varavg| %total
---------------------------------------------------------------
Pair    | 59.328     | 82.911     | 91.169     | 104.1 | 76.08
Bond    | 0.007886   | 0.0088138  | 0.010093   |   0.7 |  0.01
Neigh   | 4.9747     | 6.7682     | 7.4815     |  28.2 |  6.21
Comm    | 0.82945    | 9.0894     | 32.655     | 314.3 |  8.34
Output  | 0.0011976  | 0.0014844  | 0.0025482  |   1.1 |  0.00
Modify  | 9.4138     | 10.138     | 11.957     |  23.4 |  9.30
Other   |            | 0.06674    |            |       |  0.06

Nlocal:          34.25 ave          39 max          31 min
Histogram: 2 1 1 0 0 0 3 0 0 1
Nghost:        2627.25 ave        2665 max        2600 min
Histogram: 1 2 0 1 1 1 0 1 0 1
Neighs:        18156.8 ave       20606 max       16504 min
Histogram: 2 1 1 0 0 2 1 0 0 1

Total # of neighbors = 145254
Ave neighs/atom = 530.12409
Ave special neighs/atom = 0
Neighbor list builds = 300
Dangerous builds not checked
OMP_NUM_THREADS environment is not set. Defaulting to 1 thread. (src/comm.cpp:98)
  using 1 OpenMP thread(s) per MPI task
Reading restart file ...
  restart file = 2 Aug 2023, LAMMPS = 2 Aug 2023
  restoring atom style full from restart
  triclinic box = (0 0 0) to (15.4861 14.0699 16.771) with tilt (-7.3915 0.9919 1.0308)
WARNING: Triclinic box skew is large. LAMMPS will run inefficiently. (src/domain.cpp:220)
  2 by 2 by 2 MPI processor grid
  pair style reaxff stores no restart info
  274 atoms
Finding 1-2 1-3 1-4 neighbors ...
  special bond factors lj:    0        0        0       
  special bond factors coul:  0        0        0       
     0 = max # of 1-2 neighbors
     0 = max # of 1-3 neighbors
     0 = max # of 1-4 neighbors
     1 = max # of special neighbors
  special bonds CPU = 0.000 seconds
  read_restart CPU = 0.004 seconds
*****Positive-change 3 starts.*****
Resetting global fix info from restart file:
  fix style: nvt, fix ID: 4
Changing box ...
WARNING: Triclinic box skew is large. LAMMPS will run inefficiently. (src/domain.cpp:220)
  triclinic box = (0 0 0) to (15.4861 14.0699 16.93871) with tilt (-7.3915 0.9919 1.0308)
All restart file global fix info was re-assigned
Neighbor list info ...
  update: every = 10 steps, delay = 0 steps, check = no
  max neighbors/atom: 2000, page size: 100000
  master list distance cutoff = 12
  ghost atom cutoff = 12
  binsize = 6, bins = 4 3 3
  2 neighbor lists, perpetual/occasional/extra = 2 0 0
  (1) pair reaxff, perpetual
      attributes: half, newton off, ghost
      pair build: half/bin/newtoff/ghost
      stencil: full/ghost/bin/3d
      bin: standard
  (2) fix qeq/reaxff, perpetual, copy from (1)
      attributes: half, newton off
      pair build: copy
      stencil: none
      bin: none
Setting up Verlet run ...
  Unit style    : real
  Current step  : 0
  Time step     : 0.5
Per MPI rank memory allocation (min/avg/max) = 100.5 | 101.7 | 102.7 Mbytes
   Step          Temp          PotEng         Press        f_avgp[1]        Volume    
         0   308.0235      -32134.454     -53308.314      0              3690.7396    
       100   315.75744     -32158.735      1626.656      -11017.944      3690.7396    
       200   290.5427      -32179.731     -18057.375     -11648.738      3690.7396    
       300   283.15032     -32195.865     -14235.653     -13230.255      3690.7396    
       400   303.23286     -32200.623      2644.758      -11552.531      3690.7396    
       500   315.56566     -32179.912     -5425.1214     -5958.1369      3690.7396    
       600   335.02053     -32174.371     -14104.191     -12626.556      3690.7396    
       700   302.68073     -32159.518     -15318.301     -13422.327      3690.7396    
       800   283.58516     -32166.884     -22090.206     -16261.433      3690.7396    
       900   299.28683     -32189.668     -9988.1689     -10048.342      3690.7396    
      1000   299.60259     -32188.253     -6209.0625     -9725.9605      3690.7396    
      1100   285.35796     -32171.969     -7016.7982     -14174.031      3690.7396    
      1200   313.73501     -32180.292     -19444.481     -12448.772      3690.7396    
      1300   296.39429     -32164.413     -16198.607     -13422.808      3690.7396    
      1400   311.232       -32179.957     -15676.701     -12157.9        3690.7396    
      1500   301.63841     -32175.087     -11554.022     -12120.024      3690.7396    
      1600   323.34622     -32190.152     -4973.8619     -12833.743      3690.7396    
      1700   311.44371     -32190.95      -8127.7991     -10661.084      3690.7396    
      1800   278.85572     -32175.665     -13684.411     -15894.693      3690.7396    
      1900   308.15062     -32190.6       -19894.899     -14099.558      3690.7396    
      2000   301.06468     -32163.127     -10826.354     -7563.639       3690.7396    
      2100   324.76847     -32169.479      1774.87       -12622.535      3690.7396    
      2200   321.14601     -32177.316     -12121.61      -9303.17        3690.7396    
      2300   304.21006     -32189.916     -17659.397     -13719.079      3690.7396    
      2400   275.76279     -32186.762     -15758.937     -13756.26       3690.7396    
      2500   283.25725     -32189.459      129.75314     -10966.409      3690.7396    
      2600   312.04448     -32193.425     -10098.428     -11748.759      3690.7396    
      2700   316.8487      -32186.072     -12089.003     -12862.983      3690.7396    
      2800   305.02697     -32182.746     -4757.9248     -13978.868      3690.7396    
      2900   301.90183     -32193.231     -12830.364     -13296.803      3690.7396    
      3000   297.97096     -32201.161     -13861.917     -12976.819      3690.7396    
Loop time of 106.649 on 8 procs for 3000 steps with 274 atoms

Performance: 1.215 ns/day, 19.750 hours/ns, 28.130 timesteps/s, 7.708 katom-step/s
98.8% CPU use with 8 MPI tasks x 1 OpenMP threads

MPI task timing breakdown:
Section |  min time  |  avg time  |  max time  |%varavg| %total
---------------------------------------------------------------
Pair    | 72.889     | 81.153     | 89.127     |  61.9 | 76.09
Bond    | 0.0078866  | 0.008881   | 0.010029   |   0.6 |  0.01
Neigh   | 5.9669     | 6.6716     | 7.3496     |  20.1 |  6.26
Comm    | 0.89661    | 8.8692     | 17.124     | 187.0 |  8.32
Output  | 0.0063839  | 0.0079397  | 0.0094238  |   1.3 |  0.01
Modify  | 9.1777     | 9.8713     | 10.593     |  16.9 |  9.26
Other   |            | 0.06715    |            |       |  0.06

Nlocal:          34.25 ave          43 max          30 min
Histogram: 2 2 0 2 0 0 1 0 0 1
Nghost:        2590.38 ave        2630 max        2560 min
Histogram: 2 0 1 1 1 0 1 1 0 1
Neighs:        17782.1 ave       22069 max       15672 min
Histogram: 2 2 0 2 0 0 1 0 0 1

Total # of neighbors = 142257
Ave neighs/atom = 519.18613
Ave special neighs/atom = 0
Neighbor list builds = 300
Dangerous builds not checked
*****Equilibration pos3 starts.*****
WARNING: New thermo_style command, previous thermo_modify settings will be lost (src/output.cpp:903)
Neighbor list info ...
  update: every = 10 steps, delay = 0 steps, check = no
  max neighbors/atom: 2000, page size: 100000
  master list distance cutoff = 12
  ghost atom cutoff = 12
  binsize = 6, bins = 4 3 3
  2 neighbor lists, perpetual/occasional/extra = 2 0 0
  (1) pair reaxff, perpetual
      attributes: half, newton off, ghost
      pair build: half/bin/newtoff/ghost
      stencil: full/ghost/bin/3d
      bin: standard
  (2) fix qeq/reaxff, perpetual, copy from (1)
      attributes: half, newton off
      pair build: copy
      stencil: none
      bin: none
Setting up Verlet run ...
  Unit style    : real
  Current step  : 0
  Time step     : 0.5
Per MPI rank memory allocation (min/avg/max) = 100.5 | 101.7 | 102.7 Mbytes
   Step          Temp          PotEng         Press        f_avgp[1]        Volume    
         0   297.97096     -32201.161     -13861.903      0              3690.7396    
       100   297.11494     -32198.999     -10297.642     -10836.901      3690.7396    
       200   286.0828      -32170.217     -2688.5203     -15577.576      3690.7396    
       300   279.71274     -32141.887     -8717.966      -9645.4709      3690.7396    
       400   308.73988     -32172.926     -14402.423     -15412.607      3690.7396    
       500   292.68074     -32184.511     -12440.716     -11436.909      3690.7396    
       600   287.20224     -32186.827     -16720.563     -15090.68       3690.7396    
       700   286.57128     -32181.449     -22206.213     -9515.6841      3690.7396    
       800   296.17012     -32178.049     -12404.339     -9869.883       3690.7396    
       900   328.81182     -32181.349     -16093.251     -12867.73       3690.7396    
      1000   319.40422     -32159.084     -8740.3487     -12687.475      3690.7396    
      1100   306.86221     -32175.555     -6511.1788     -13331.233      3690.7396    
      1200   308.19248     -32197.539     -9781.952      -12932.829      3690.7396    
      1300   287.22403     -32193.967     -18546.575     -10355.18       3690.7396    
      1400   294.90843     -32202.074     -18264.525     -11322.844      3690.7396    
      1500   291.04148     -32187.787     -12605.482     -13585.78       3690.7396    
      1600   320.22975     -32186.119     -5445.6742     -12391.058      3690.7396    
      1700   323.58425     -32192.196     -19828.902     -12468.483      3690.7396    
      1800   299.60504     -32203.665     -12808.359     -11449.193      3690.7396    
      1900   305.46713     -32217.315     -8342.3023     -10936.814      3690.7396    
      2000   286.41506     -32194.544     -12076.612     -11273.219      3690.7396    
      2100   310.77155     -32197.345     -13481.518     -11843.263      3690.7396    
      2200   317.00072     -32200.719     -2876.7355     -11496.95       3690.7396    
      2300   287.62989     -32203.762     -20781.4       -15647.236      3690.7396    
      2400   296.07567     -32227.614     -13063.405     -11000.141      3690.7396    
      2500   294.05538     -32215.743     -24814.809     -15076.231      3690.7396    
      2600   305.92071     -32206.999     -15649.92      -15325.849      3690.7396    
      2700   308.09298     -32199.704     -3583.1986     -8394.0269      3690.7396    
      2800   287.35802     -32182.329      1151.7562     -12225.727      3690.7396    
      2900   300.7361      -32192.95      -4361.6534     -13549.307      3690.7396    
      3000   292.05306     -32214.029     -6508.8701     -16799.354      3690.7396    
Loop time of 106.323 on 8 procs for 3000 steps with 274 atoms

Performance: 1.219 ns/day, 19.689 hours/ns, 28.216 timesteps/s, 7.731 katom-step/s
98.7% CPU use with 8 MPI tasks x 1 OpenMP threads

MPI task timing breakdown:
Section |  min time  |  avg time  |  max time  |%varavg| %total
---------------------------------------------------------------
Pair    | 63.948     | 81.135     | 89.158     |  82.6 | 76.31
Bond    | 0.0078271  | 0.0089117  | 0.010003   |   0.7 |  0.01
Neigh   | 5.0557     | 6.6616     | 7.2955     |  26.9 |  6.27
Comm    | 0.79529    | 8.8159     | 26.006     | 250.5 |  8.29
Output  | 0.0012899  | 0.0016137  | 0.0032656  |   1.6 |  0.00
Modify  | 8.9702     | 9.6334     | 11.24      |  22.6 |  9.06
Other   |            | 0.06723    |            |       |  0.06

Nlocal:          34.25 ave          40 max          29 min
Histogram: 2 1 1 0 0 0 1 1 0 2
Nghost:        2560.38 ave        2592 max        2524 min
Histogram: 1 1 2 0 0 0 0 1 1 2
Neighs:        17779.8 ave       20561 max       15111 min
Histogram: 1 2 0 1 0 0 1 1 0 2

Total # of neighbors = 142238
Ave neighs/atom = 519.11679
Ave special neighs/atom = 0
Neighbor list builds = 300
Dangerous builds not checked
OMP_NUM_THREADS environment is not set. Defaulting to 1 thread. (src/comm.cpp:98)
  using 1 OpenMP thread(s) per MPI task
Reading restart file ...
  restart file = 2 Aug 2023, LAMMPS = 2 Aug 2023
  restoring atom style full from restart
  triclinic box = (0 0 0) to (15.4861 14.0699 16.771) with tilt (-7.3915 0.9919 1.0308)
WARNING: Triclinic box skew is large. LAMMPS will run inefficiently. (src/domain.cpp:220)
  2 by 2 by 2 MPI processor grid
  pair style reaxff stores no restart info
  274 atoms
Finding 1-2 1-3 1-4 neighbors ...
  special bond factors lj:    0        0        0       
  special bond factors coul:  0        0        0       
     0 = max # of 1-2 neighbors
     0 = max # of 1-3 neighbors
     0 = max # of 1-4 neighbors
     1 = max # of special neighbors
  special bonds CPU = 0.000 seconds
  read_restart CPU = 0.004 seconds
*****Negative-change 4 starts.*****
Resetting global fix info from restart file:
  fix style: nvt, fix ID: 4
Changing box ...
WARNING: Triclinic box skew is large. LAMMPS will run inefficiently. (src/domain.cpp:220)
  triclinic box = (0 0 0) to (15.4861 14.0699 16.771) with tilt (-7.3915 0.9919 0.86309)
All restart file global fix info was re-assigned
Neighbor list info ...
  update: every = 10 steps, delay = 0 steps, check = no
  max neighbors/atom: 2000, page size: 100000
  master list distance cutoff = 12
  ghost atom cutoff = 12
  binsize = 6, bins = 4 3 3
  2 neighbor lists, perpetual/occasional/extra = 2 0 0
  (1) pair reaxff, perpetual
      attributes: half, newton off, ghost
      pair build: half/bin/newtoff/ghost
      stencil: full/ghost/bin/3d
      bin: standard
  (2) fix qeq/reaxff, perpetual, copy from (1)
      attributes: half, newton off
      pair build: copy
      stencil: none
      bin: none
Setting up Verlet run ...
  Unit style    : real
  Current step  : 0
  Time step     : 0.5
Per MPI rank memory allocation (min/avg/max) = 101.2 | 102.3 | 103.1 Mbytes
   Step          Temp          PotEng         Press        f_avgp[1]        Volume    
         0   308.0235      -32153.657     -18973.588      0              3654.1976    
       100   310.90153     -32166.605      7010.9485     -9590.7311      3654.1976    
       200   298.01451     -32184.22      -14570.014     -11496.791      3654.1976    
       300   286.06386     -32191.816     -18710.411     -11105.672      3654.1976    
       400   293.88912     -32194.698     -11814.221     -10602.604      3654.1976    
       500   315.3426      -32190.924     -5318.8702     -4967.9829      3654.1976    
       600   324.99426     -32180.157     -14886.172     -11141.085      3654.1976    
       700   298.40096     -32165.647     -25115.801     -14875.319      3654.1976    
       800   309.21601     -32194.255     -9576.3878     -11507.751      3654.1976    
       900   269.76408     -32177.527     -9087.7619     -10120.38       3654.1976    
      1000   295.80356     -32191.591     -10513.882     -8637.3685      3654.1976    
      1100   311.49996     -32190.458      705.96465     -9812.8238      3654.1976    
      1200   276.80271     -32158.876     -11836.238     -12572.737      3654.1976    
      1300   313.04618     -32190.045     -3617.2435     -12467.694      3654.1976    
      1400   299.54083     -32190.995     -10670.67      -10943.418      3654.1976    
      1500   287.81672     -32195.566     -4583.8839     -10309.178      3654.1976    
      1600   281.95268     -32193.567     -5009.3804     -10513.053      3654.1976    
      1700   296.39902     -32187.377     -287.54618     -13383.177      3654.1976    
      1800   307.42767     -32179.971     -18798.257     -15639.332      3654.1976    
      1900   312.38798     -32186.548     -8450.0009     -3410.4065      3654.1976    
      2000   293.43487     -32186.39      -11622.479     -11364.711      3654.1976    
      2100   286.28669     -32194.904     -4878.6158     -12079.775      3654.1976    
      2200   286.38534     -32192.349     -18362.734     -12282.539      3654.1976    
      2300   309.2316      -32194.78      -18290.92      -15332.599      3654.1976    
      2400   307.67787     -32180.382     -7973.6036     -10052.493      3654.1976    
      2500   301.00687     -32168.68      -4317.5166     -9460.909       3654.1976    
      2600   301.82968     -32167.604     -13759.227     -13791.346      3654.1976    
      2700   304.96337     -32185.056     -12341.563     -10421.156      3654.1976    
      2800   283.70276     -32185.69      -8607.5728     -10822.007      3654.1976    
      2900   298.09291     -32200.562     -1715.6162     -4408.4885      3654.1976    
      3000   295.77467     -32184.92       10979.752     -10478.556      3654.1976    
Loop time of 107.061 on 8 procs for 3000 steps with 274 atoms

Performance: 1.211 ns/day, 19.826 hours/ns, 28.021 timesteps/s, 7.678 katom-step/s
98.8% CPU use with 8 MPI tasks x 1 OpenMP threads

MPI task timing breakdown:
Section |  min time  |  avg time  |  max time  |%varavg| %total
---------------------------------------------------------------
Pair    | 64.726     | 82.947     | 89.761     |  78.5 | 77.48
[...]
      attributes: half, newton off
      pair build: copy
      stencil: none
      bin: none
Setting up Verlet run ...
  Unit style    : real
  Current step  : 0
  Time step     : 0.5
Per MPI rank memory allocation (min/avg/max) = 101.8 | 102.9 | 103.7 Mbytes
   Step          Temp          PotEng         Press        f_avgp[1]        Volume    
         0   308.0235      -32161.143     -21790.288      0              3654.1976    
       100   315.75982     -32175.218      9384.728      -9364.8496      3654.1976    
       200   297.28265     -32184.794     -13997.474     -12256.824      3654.1976    
       300   292.08269     -32195.134     -16170.141     -10361.288      3654.1976    
       400   314.73793     -32206.615     -9421.3481     -11988.231      3654.1976    
       500   313.20159     -32187.329     -10535.098     -7197.1028      3654.1976    
       600   314.88994     -32182.721     -14746.239     -14405.896      3654.1976    
       700   281.7877      -32167.553     -15655.871     -16078.295      3654.1976    
       800   321.53931     -32212.74      -5978.4909     -8182.0515      3654.1976    
       900   303.61554     -32202.563     -3168.5318     -10151.813      3654.1976    
      1000   295.0876      -32189.613     -5920.29       -11644.571      3654.1976    
      1100   303.64591     -32194.143     -2515.8032     -12120.362      3654.1976    
      1200   312.40609     -32211.658     -5921.4954     -17693.181      3654.1976    
      1300   293.37626     -32208.753     -23973.815     -17536.717      3654.1976    
      1400   299.20553     -32216.784     -20471.216     -18703.382      3654.1976    
      1500   299.03402     -32211.764     -6393.6377     -14536.555      3654.1976    
      1600   309.72919     -32206.207     -4613.2293     -8893.9697      3654.1976    
      1700   301.9697      -32192.888     -12567.365     -14110.523      3654.1976    
      1800   290.12945     -32188.406     -14488.665     -14845.673      3654.1976    
      1900   293.74331     -32195.852     -17330.507     -13178.733      3654.1976    
      2000   305.57828     -32202.607     -14537.496     -15758.691      3654.1976    
      2100   287.2847      -32188.419     -10065.022     -20763.219      3654.1976    
      2200   302.91179     -32201.702     -12231.039     -12676.601      3654.1976    
      2300   294.73297     -32207.987     -18460.03      -20000.694      3654.1976    
      2400   288.90147     -32210.005     -15530.213     -14150.018      3654.1976    
      2500   298.61011     -32217.942     -167.47741     -17907.449      3654.1976    
      2600   302.10709     -32220.098     -12772.296     -17237.495      3654.1976    
      2700   303.04805     -32215.085     -15921.468     -19185.098      3654.1976    
      2800   278.92754     -32190.984     -19192.173     -20465.742      3654.1976    
      2900   311.8781      -32215.626     -17371.897     -18201.544      3654.1976    
      3000   315.92568     -32226.189     -23786.307     -13175.599      3654.1976    
Loop time of 106.649 on 8 procs for 3000 steps with 274 atoms

Performance: 1.215 ns/day, 19.750 hours/ns, 28.130 timesteps/s, 7.708 katom-step/s
98.8% CPU use with 8 MPI tasks x 1 OpenMP threads

MPI task timing breakdown:
Section |  min time  |  avg time  |  max time  |%varavg| %total
---------------------------------------------------------------
Pair    | 75.22      | 85.221     | 89.177     |  45.1 | 79.91
Bond    | 0.0082594  | 0.0090416  | 0.010292   |   0.6 |  0.01
Neigh   | 5.6013     | 6.1104     | 6.4073     |   8.9 |  5.73
Comm    | 1.5403     | 5.5134     | 15.523     | 177.6 |  5.17
Output  | 0.0071742  | 0.0086224  | 0.010052   |   1.2 |  0.01
Modify  | 9.4192     | 9.7201     | 10.216     |   7.0 |  9.11
Other   |            | 0.0665     |            |       |  0.06

Nlocal:          34.25 ave          42 max          29 min
Histogram: 1 1 1 3 0 0 0 0 1 1
Nghost:        2605.12 ave        2647 max        2571 min
Histogram: 1 1 0 1 3 0 0 0 1 1
Neighs:        17966.8 ave       21831 max       15443 min
Histogram: 1 1 2 2 0 0 0 0 1 1

Total # of neighbors = 143734
Ave neighs/atom = 524.57664
Ave special neighs/atom = 0
Neighbor list builds = 300
Dangerous builds not checked
*****Equilibration neg6 starts.*****
WARNING: New thermo_style command, previous thermo_modify settings will be lost (src/output.cpp:903)
Neighbor list info ...
  update: every = 10 steps, delay = 0 steps, check = no
  max neighbors/atom: 2000, page size: 100000
  master list distance cutoff = 12
  ghost atom cutoff = 12
  binsize = 6, bins = 5 3 3
  2 neighbor lists, perpetual/occasional/extra = 2 0 0
  (1) pair reaxff, perpetual
      attributes: half, newton off, ghost
      pair build: half/bin/newtoff/ghost
      stencil: full/ghost/bin/3d
      bin: standard
  (2) fix qeq/reaxff, perpetual, copy from (1)
      attributes: half, newton off
      pair build: copy
      stencil: none
      bin: none
Setting up Verlet run ...
  Unit style    : real
  Current step  : 0
  Time step     : 0.5
Per MPI rank memory allocation (min/avg/max) = 101.8 | 102.9 | 103.8 Mbytes
   Step          Temp          PotEng         Press        f_avgp[1]        Volume    
         0   315.92568     -32226.189     -23786.255      0              3654.1976    
       100   301.75489     -32219.186     -18068.415     -11141.607      3654.1976    
       200   296.89838     -32225.718     -15055.694     -15203.049      3654.1976    
       300   294.87717     -32232.567     -19608.262     -14897.587      3654.1976    
       400   281.98594     -32219.329     -10263.241     -19816.144      3654.1976    
       500   292.81157     -32203.384     -30276.761     -16369.847      3654.1976    
       600   301.75951     -32197.876     -21826.774     -15612.955      3654.1976    
       700   309.65495     -32210.275     -18725.633     -12332.514      3654.1976    
       800   289.44698     -32223.14      -5073.2588     -15034.044      3654.1976    
       900   301.45526     -32233.283     -17381.824     -13383.621      3654.1976    
      1000   274.30858     -32200.858     -11974.955     -20562.852      3654.1976    
      1100   317.57415     -32217.429     -23145.878     -15585.195      3654.1976    
      1200   315.85699     -32214.323     -15182.018     -17995.452      3654.1976    
      1300   292.44177     -32203.007     -10067.678     -15370.887      3654.1976    
      1400   275.9156      -32211.512     -12389.875     -12613.8        3654.1976    
      1500   282.69992     -32218.265     -15303.092     -13657.226      3654.1976    
      1600   286.3391      -32196.017     -14992.289     -19167.964      3654.1976    
      1700   318.31326     -32207.527     -10155.265     -15398.943      3654.1976    
      1800   312.72698     -32202.267     -8956.8837     -13503.776      3654.1976    
      1900   286.85306     -32194.152     -27066.492     -15225.438      3654.1976    
      2000   287.42453     -32213.592     -16477.309     -15410.391      3654.1976    
      2100   262.44444     -32222.583     -10527.082     -17427.154      3654.1976    
      2200   272.09737     -32221.46      -11462.302     -6350.659       3654.1976    
      2300   302.10352     -32221.437     -24461.652     -16407.752      3654.1976    
      2400   295.09325     -32201.112      3843.0944     -13182.049      3654.1976    
      2500   299.44632     -32190.785     -5950.5894     -11788.19       3654.1976    
      2600   291.81198     -32183.403     -17786.132     -18150.284      3654.1976    
      2700   279.64758     -32182.927     -15546.967     -18338.849      3654.1976    
      2800   296.30073     -32211.23      -1635.696      -11363.273      3654.1976    
      2900   290.72918     -32215.03      -2002.3786     -13380.697      3654.1976    
      3000   273.91207     -32198.975     -14085.082     -9595.9453      3654.1976    
Loop time of 106.656 on 8 procs for 3000 steps with 274 atoms

Performance: 1.215 ns/day, 19.751 hours/ns, 28.128 timesteps/s, 7.707 katom-step/s
98.7% CPU use with 8 MPI tasks x 1 OpenMP threads

MPI task timing breakdown:
Section |  min time  |  avg time  |  max time  |%varavg| %total
---------------------------------------------------------------
Pair    | 83.501     | 86.797     | 89.409     |  19.7 | 81.38
Bond    | 0.0082436  | 0.0090754  | 0.010502   |   0.7 |  0.01
Neigh   | 6.042      | 6.1792     | 6.4527     |   5.3 |  5.79
Comm    | 1.3477     | 3.9796     | 7.2692     |  92.2 |  3.73
Output  | 0.0013322  | 0.0015265  | 0.0025949  |   1.0 |  0.00
Modify  | 9.3268     | 9.6226     | 9.759      |   4.6 |  9.02
Other   |            | 0.06745    |            |       |  0.06

Nlocal:          34.25 ave          40 max          29 min
Histogram: 1 1 2 0 1 0 1 0 0 2
Nghost:           2608 ave        2650 max        2582 min
Histogram: 2 0 2 1 0 1 1 0 0 1
Neighs:        17955.6 ave       20840 max       15288 min
Histogram: 1 0 3 0 1 0 1 0 0 2

Total # of neighbors = 143645
Ave neighs/atom = 524.25182
Ave special neighs/atom = 0
Neighbor list builds = 300
Dangerous builds not checked
OMP_NUM_THREADS environment is not set. Defaulting to 1 thread. (src/comm.cpp:98)
  using 1 OpenMP thread(s) per MPI task
Reading restart file ...
  restart file = 2 Aug 2023, LAMMPS = 2 Aug 2023
  restoring atom style full from restart
  triclinic box = (0 0 0) to (15.4861 14.0699 16.771) with tilt (-7.3915 0.9919 1.0308)
WARNING: Triclinic box skew is large. LAMMPS will run inefficiently. (src/domain.cpp:220)
  2 by 2 by 2 MPI processor grid
  pair style reaxff stores no restart info
  274 atoms
Finding 1-2 1-3 1-4 neighbors ...
  special bond factors lj:    0        0        0       
  special bond factors coul:  0        0        0       
     0 = max # of 1-2 neighbors
     0 = max # of 1-3 neighbors
     0 = max # of 1-4 neighbors
     1 = max # of special neighbors
  special bonds CPU = 0.000 seconds
  read_restart CPU = 0.003 seconds
*****Positive-change 6 starts.*****
Resetting global fix info from restart file:
  fix style: nvt, fix ID: 4
Changing box ...
WARNING: Triclinic box skew is large. LAMMPS will run inefficiently. (src/domain.cpp:220)
  triclinic box = (0 0 0) to (15.4861 14.0699 16.771) with tilt (-7.250801 0.9919 1.0308)
All restart file global fix info was re-assigned
Neighbor list info ...
  update: every = 10 steps, delay = 0 steps, check = no
  max neighbors/atom: 2000, page size: 100000
  master list distance cutoff = 12
  ghost atom cutoff = 12
  binsize = 6, bins = 4 3 3
  2 neighbor lists, perpetual/occasional/extra = 2 0 0
  (1) pair reaxff, perpetual
      attributes: half, newton off, ghost
      pair build: half/bin/newtoff/ghost
      stencil: full/ghost/bin/3d
      bin: standard
  (2) fix qeq/reaxff, perpetual, copy from (1)
      attributes: half, newton off
      pair build: copy
      stencil: none
      bin: none
Setting up Verlet run ...
  Unit style    : real
  Current step  : 0
  Time step     : 0.5
Per MPI rank memory allocation (min/avg/max) = 101.1 | 102.1 | 103 Mbytes
   Step          Temp          PotEng         Press        f_avgp[1]        Volume    
         0   308.0235      -32153.844     -21561.526      0              3654.1976    
       100   316.52884     -32172.05       3943.2877     -9950.6795      3654.1976    
       200   304.81705     -32191.934     -14537.786     -10728.247      3654.1976    
       300   292.80466     -32197.477     -10940.21      -11099.805      3654.1976    
       400   301.09588     -32194.341     -15417.091     -12321.538      3654.1976    
       500   309.53575     -32179.899     -1477.5044     -5562.7142      3654.1976    
       600   331.40164     -32181.398     -12708.669     -11269.216      3654.1976    
       700   294.65478     -32159.257     -9126.8129     -9623.9049      3654.1976    
       800   296.03999     -32180.018     -14760.714     -12195.137      3654.1976    
       900   286.68205     -32185.623     -11363.735     -11578.47       3654.1976    
      1000   315.11041     -32202.662     -12317.375     -9265.3529      3654.1976    
      1100   303.11891     -32184.079     -12738.07      -11470.322      3654.1976    
      1200   295.13035     -32163.367     -12600.053     -12384.439      3654.1976    
      1300   299.45878     -32171.049     -17815.083     -11621.207      3654.1976    
      1400   308.2701      -32200.093     -6229.6551     -6580.0334      3654.1976    
      1500   297.21796     -32210.945     -19021.957     -13787.344      3654.1976    
      1600   301.02422     -32217.515     -5282.5803     -16035.625      3654.1976    
      1700   282.18963     -32196.989     -17726.047     -17792.773      3654.1976    
      1800   325.49114     -32215.408     -12649.698     -16921.869      3654.1976    
      1900   292.87363     -32190.546     -19185.373     -11068.787      3654.1976    
      2000   284.89389     -32184.226     -9697.5867     -9288.7456      3654.1976    
      2100   291.60377     -32190.811     -8148.2737     -13281.532      3654.1976    
      2200   317.22322     -32213.363     -4321.3396     -13994.162      3654.1976    
      2300   299.92525     -32204.988     -20919.908     -10828.787      3654.1976    
      2400   285.39581     -32197.978     -19265.327     -11288.991      3654.1976    
      2500   278.28643     -32190.488     -17071.934     -12390.057      3654.1976    
      2600   302.55415     -32203.27      -21063.777     -10796.988      3654.1976    
      2700   300.4744      -32194.099     -8820.2661     -11917.225      3654.1976    
      2800   307.49966     -32200.015     -16136.038     -18802.492      3654.1976    
      2900   305.75737     -32212.084     -13461.606     -15834.672      3654.1976    
      3000   306.3226      -32218.743     -10021.048     -11696.943      3654.1976    
Loop time of 106.849 on 8 procs for 3000 steps with 274 atoms

Performance: 1.213 ns/day, 19.787 hours/ns, 28.077 timesteps/s, 7.693 katom-step/s
98.7% CPU use with 8 MPI tasks x 1 OpenMP threads

MPI task timing breakdown:
Section |  min time  |  avg time  |  max time  |%varavg| %total
---------------------------------------------------------------
Pair    | 83.231     | 86.382     | 88.666     |  17.7 | 80.84
Bond    | 0.0082145  | 0.0091633  | 0.01061    |   0.7 |  0.01
Neigh   | 6.8725     | 6.99       | 7.2227     |   4.2 |  6.54
Comm    | 1.444      | 3.7537     | 6.8898     |  85.0 |  3.51
Output  | 0.0062018  | 0.0077752  | 0.0092535  |   1.3 |  0.01
Modify  | 9.3887     | 9.6387     | 9.7726     |   4.0 |  9.02
Other   |            | 0.06794    |            |       |  0.06

Nlocal:          34.25 ave          41 max          30 min
Histogram: 1 2 3 0 0 0 0 0 0 2
Nghost:        2601.62 ave        2633 max        2566 min
Histogram: 2 0 1 1 0 0 0 0 2 2
Neighs:        17981.6 ave       21415 max       15684 min
Histogram: 1 0 5 0 0 0 0 0 0 2

Total # of neighbors = 143853
Ave neighs/atom = 525.01095
Ave special neighs/atom = 0
Neighbor list builds = 300
Dangerous builds not checked
*****Equilibration pos6 starts.*****
WARNING: New thermo_style command, previous thermo_modify settings will be lost (src/output.cpp:903)
Neighbor list info ...
  update: every = 10 steps, delay = 0 steps, check = no
  max neighbors/atom: 2000, page size: 100000
  master list distance cutoff = 12
  ghost atom cutoff = 12
  binsize = 6, bins = 4 3 3
  2 neighbor lists, perpetual/occasional/extra = 2 0 0
  (1) pair reaxff, perpetual
      attributes: half, newton off, ghost
      pair build: half/bin/newtoff/ghost
      stencil: full/ghost/bin/3d
      bin: standard
  (2) fix qeq/reaxff, perpetual, copy from (1)
      attributes: half, newton off
      pair build: copy
      stencil: none
      bin: none
Setting up Verlet run ...
  Unit style    : real
  Current step  : 0
  Time step     : 0.5
Per MPI rank memory allocation (min/avg/max) = 101.2 | 102.1 | 103.1 Mbytes
   Step          Temp          PotEng         Press        f_avgp[1]        Volume    
         0   306.3226      -32218.743     -10021.072      0              3654.1976    
       100   309.35416     -32218.406     -4059.1474     -14821.028      3654.1976    
       200   279.39195     -32194.777     -6827.1699     -10013.425      3654.1976    
       300   325.6465      -32218.355     -5776.8179     -11520.942      3654.1976    
       400   311.75635     -32204.531     -16720.613     -12119.34       3654.1976    
       500   298.90429     -32212.26      -13765.159     -10920.649      3654.1976    
       600   284.30146     -32222.648     -8332.3612     -8717.0117      3654.1976    
       700   293.89916     -32226.674     -11429.904     -12004.509      3654.1976    
       800   286.46451     -32205.215     -6868.0118     -14922.378      3654.1976    
       900   294.40339     -32206.251     -18862.028     -12970.579      3654.1976    
      1000   315.93466     -32221.476     -10322.87      -14791.846      3654.1976    
      1100   305.89885     -32217.49      -25934.295     -14978.345      3654.1976    
      1200   289.49282     -32223.95      -14869.612     -17521.953      3654.1976    
      1300   291.59183     -32239.686     -12385.993     -12661.761      3654.1976    
      1400   274.19294     -32209.273     -23690.511     -13187.53       3654.1976    
      1500   290.36539     -32194.516     -3011.0647     -9668.5126      3654.1976    
      1600   305.67074     -32206.384     -12850.144     -11084.271      3654.1976    
      1700   318.82944     -32223.649     -18156.11      -19454.009      3654.1976    
      1800   283.93792     -32212.162     -21114.265     -14616.228      3654.1976    
      1900   273.77079     -32223.993     -5249.6068     -11894.707      3654.1976    
      2000   294.35136     -32236.826     -10829.988     -14987.216      3654.1976    
      2100   301.09537     -32208.587     -11618.257     -9306.8567      3654.1976    
      2200   308.76306     -32211.97      -22078.453     -18417.46       3654.1976    
      2300   305.75502     -32211.94      -27686.273     -11202.516      3654.1976    
      2400   317.24192     -32225.668     -9836.187      -11694.473      3654.1976    
      2500   276.14754     -32207.897     -12776.027     -15351.342      3654.1976    
      2600   285.25844     -32221.382     -11809.286     -13378.723      3654.1976    
      2700   325.57718     -32231.03      -15387.11      -12137.624      3654.1976    
      2800   310.46373     -32203.41      -14636.829     -10611.069      3654.1976    
      2900   302.06893     -32207.304     -5210.9898     -9127.3096      3654.1976    
      3000   301.40846     -32219.652     -30285.622     -17946.705      3654.1976    
Loop time of 106.542 on 8 procs for 3000 steps with 274 atoms

Performance: 1.216 ns/day, 19.730 hours/ns, 28.158 timesteps/s, 7.715 katom-step/s
98.7% CPU use with 8 MPI tasks x 1 OpenMP threads

MPI task timing breakdown:
Section |  min time  |  avg time  |  max time  |%varavg| %total
---------------------------------------------------------------
Pair    | 82.965     | 85.955     | 88.349     |  15.5 | 80.68
Bond    | 0.0081849  | 0.0090954  | 0.010566   |   0.7 |  0.01
Neigh   | 6.7549     | 6.9343     | 7.1278     |   4.4 |  6.51
Comm    | 1.5463     | 3.9625     | 6.9478     |  72.6 |  3.72
Output  | 0.0013224  | 0.0015153  | 0.0024092  |   0.9 |  0.00
Modify  | 9.395      | 9.6121     | 9.816      |   4.2 |  9.02
Other   |            | 0.06779    |            |       |  0.06

Nlocal:          34.25 ave          43 max          29 min
Histogram: 1 1 2 2 0 0 1 0 0 1
Nghost:        2608.25 ave        2614 max        2605 min
Histogram: 1 2 0 1 3 0 0 0 0 1
Neighs:        17960.6 ave       22353 max       15387 min
Histogram: 1 2 1 2 0 0 1 0 0 1

Total # of neighbors = 143685
Ave neighs/atom = 524.39781
Ave special neighs/atom = 0
Neighbor list builds = 300
Dangerous builds not checked
Total wall time: 0:44:26
