LAMMPS data file generated by OpenBabel
366 atoms
354 bonds
597 angles
704 dihedrals
0 impropers
4 atom types
3 bond types
6 angle types
8 dihedral types
0 improper types
  -7.42602   17.70311 xlo xhi
  -7.42602   17.70311 ylo yhi
  -7.42602   17.70311 zlo zhi



Masses

1 12.0107 # C
2 1.00794 # H
3 15.9994 # O
4 28.0855 # Si


Atoms

1       1    4    0.00000   -5.41517   13.08708    1.67325 #  Si
2       1    4    0.00000   14.26979    2.24866    3.78096 #  Si
3       1    4    0.00000    1.47993    2.43773   17.02500 #  Si
4       1    4    0.00000    2.60053    0.24391    7.73597 #  Si
5       1    4    0.00000    1.11591    2.32672    5.69125 #  Si
6       1    4    0.00000    3.07073    0.32223   13.45065 #  Si
7       1    4    0.00000   14.33041    2.49405   15.28102 #  Si
8       1    4    0.00000    1.80894    2.42791   11.63931 #  Si
9       1    4    0.00000    0.08191    4.24535    1.61584 #  Si
10      1    4    0.00000   -1.20799    6.38811   -0.03858 #  Si
11      1    4    0.00000   -0.00214    5.01608    7.14271 #  Si
12      1    4    0.00000   -3.47909    6.97107   15.13256 #  Si
13      1    4    0.00000   -6.18415   11.72471    4.17856 #  Si
14      1    4    0.00000   -2.18698    9.72973    7.66869 #  Si
15      1    4    0.00000   -3.44400   12.04367    5.93577 #  Si
16      1    4    0.00000   -2.06863    9.03339   13.40040 #  Si
17      1    4    0.00000    9.04498   11.84701   14.92799 #  Si
18      1    4    0.00000   -3.17429   11.59586   11.78509 #  Si
19      1    4    0.00000    7.79633    0.29557    1.97713 #  Si
20      1    4    0.00000    6.80662    2.75361   17.02783 #  Si
21      1    4    0.00000    0.58895   13.55767    7.82375 #  Si
22      1    4    0.00000    3.90914    2.04236    9.76255 #  Si
23      1    4    0.00000    6.97447    2.41811    5.99530 #  Si
24      1    4    0.00000    8.16885    0.52630   13.34221 #  Si
25      1    4    0.00000    4.21545    2.63472   15.35158 #  Si
26      1    4    0.00000    6.43584    2.50937   11.54885 #  Si
27      1    4    0.00000    1.56171    6.79800    3.00501 #  Si
28      1    4    0.00000    4.43131    7.65025   17.20311 #  Si
29      1    4    0.00000    5.27645    3.98148    7.87793 #  Si
30      1    4    0.00000    5.47429    4.90638   13.48791 #  Si
31      1    4    0.00000    1.62482    7.60657   15.67157 #  Si
32      1    4    0.00000    3.77375    7.17005   11.99402 #  Si
33      1    4    0.00000    3.11982    9.21840    1.87260 #  Si
34      1    4    0.00000   -0.99065   11.75751    4.00904 #  Si
35      1    4    0.00000    1.50704   11.47674    0.32159 #  Si
36      1    4    0.00000    2.92113    9.61037    7.58048 #  Si
37      1    4    0.00000   -0.99481   11.67566    9.78908 #  Si
38      1    4    0.00000    1.81488   11.70407    5.66203 #  Si
39      1    4    0.00000    2.71060    9.53446   13.67708 #  Si
40      1    4    0.00000    1.63444   11.62001   11.49090 #  Si
41      1    4    0.00000   12.93680    0.11056    1.77632 #  Si
42      1    4    0.00000    9.18132    2.37417    3.85236 #  Si
43      1    4    0.00000   11.64647    2.12165   -0.03318 #  Si
44      1    4    0.00000    5.48979   13.57646    7.45265 #  Si
45      1    4    0.00000    8.91776    2.33788    9.76578 #  Si
46      1    4    0.00000   11.81446    2.10513    5.60781 #  Si
47      1    4    0.00000   12.63248    0.60729   13.55208 #  Si
48      1    4    0.00000    9.42431    2.63919   15.17525 #  Si
49      1    4    0.00000   11.24217    2.73683   11.69148 #  Si
50      1    4    0.00000   10.42367    4.39111    1.75255 #  Si
51      1    4    0.00000    9.44339    6.97990   17.01931 #  Si
52      1    4    0.00000   10.62727    4.14523    7.76080 #  Si
53      1    4    0.00000   10.44968    5.09114   13.53897 #  Si
54      1    4    0.00000    6.87554    7.23380   15.20283 #  Si
55      1    4    0.00000    9.26509    7.30000   11.81302 #  Si
56      1    4    0.00000    4.20629   11.36903    3.78858 #  Si
57      1    4    0.00000    6.58816   12.12769   16.91243 #  Si
58      1    4    0.00000    7.90179    8.86418    7.39759 #  Si
59      1    4    0.00000    4.07732   11.83912    9.45001 #  Si
60      1    4    0.00000    6.71022   11.26877    5.77900 #  Si
61      1    4    0.00000    7.67236    9.61987   13.23192 #  Si
62      1    4    0.00000    3.79152   11.95383   15.35841 #  Si
63      1    4    0.00000    6.24522   11.76918   11.65964 #  Si
64      1    1    0.00000    2.26610    2.69547    4.31639 #   C
65      1    1    0.00000    0.05403    2.19110   11.17240 #   C
66      1    1    0.00000    1.92799    3.64045   12.99161 #   C
67      1    1    0.00000   -1.83219    7.29440    1.43190 #   C
68      1    1    0.00000   -0.26598    4.80462    8.97432 #   C
69      1    1    0.00000   -1.58803    5.37473    6.21751 #   C
70      1    1    0.00000    1.30178    6.32814    6.97559 #   C
71      1    1    0.00000   -2.90612    8.11671    8.15954 #   C
72      1    1    0.00000   -0.78512    9.30367    6.58066 #   C
73      1    1    0.00000   -1.11070    7.80965   12.38277 #   C
74      1    1    0.00000   -1.19963    9.91796   14.74397 #   C
75      1    1    0.00000   -4.67307   11.23290   10.81231 #   C
76      1    1    0.00000    5.50517    1.94870    5.02450 #   C
77      1    1    0.00000    3.16320    6.30233    3.75930 #   C
78      1    1    0.00000    0.30355    7.36890    4.20798 #   C
79      1    1    0.00000    3.94857    4.61021    6.77198 #   C
80      1    1    0.00000    5.46297    5.11205    9.31476 #   C
81      1    1    0.00000    1.69547    5.95729   14.90289 #   C
82      1    1    0.00000    2.10557    6.67957   11.34507 #   C
83      1    1    0.00000    4.87894    7.97369   10.74867 #   C
84      1    1    0.00000   -1.57542   10.12792    3.38646 #   C
85      1    1    0.00000   -0.09770   10.59840    0.21815 #   C
86      1    1    0.00000    1.74704    9.08604    8.91394 #   C
87      1    1    0.00000    4.00911    8.29316    6.90010 #   C
88      1    1    0.00000   12.51661    2.63544   10.38573 #   C
89      1    1    0.00000   11.61593    5.26784    2.87443 #   C
90      1    1    0.00000    9.91477    5.25134    6.48032 #   C
91      1    1    0.00000   11.63334    5.18040    8.92501 #   C
92      1    1    0.00000   10.86636    7.85598   11.10626 #   C
93      1    1    0.00000    8.25639    6.27395   10.66678 #   C
94      1    1    0.00000    7.25326    7.14116    7.21447 #   C
95      1    1    0.00000    9.71260    8.80507    7.00282 #   C
96      1    1    0.00000    7.59942    9.60341    9.06621 #   C
97      1    1    0.00000    7.85010   12.36576   11.03030 #   C
98      1    3   -0.82000   -0.18966    1.70448    4.87392 #   O
99      1    3   -0.82000    1.78689    1.34446    6.82370 #   O
100     1    3   -0.82000    0.28568    2.31307   15.93070 #   O
101     1    3   -0.82000    2.44177    0.96566   12.09919 #   O
102     1    3   -0.82000   -0.71731    3.50983    2.86071 #   O
103     1    3   -0.82000    1.05153    3.16778    0.88669 #   O
104     1    3   -0.82000   -0.90819    4.83704    0.45025 #   O
105     1    3   -0.82000    0.63399    3.63712    6.50944 #   O
106     1    3   -0.82000   -2.09594    6.75218   15.96957 #   O
107     1    3   -0.82000   -6.29148   12.91365    3.04904 #   O
108     1    3   -0.82000   -5.38499   11.57522    1.04391 #   O
109     1    3   -0.82000   -4.79928   11.93197    5.04473 #   O
110     1    3   -0.82000   -3.24219   10.69954    6.84009 #   O
111     1    3   -0.82000   -3.60732   13.31965    6.92508 #   O
112     1    3   -0.82000   -3.34793    8.25720   14.14070 #   O
113     1    3   -0.82000   -2.60515   10.18710   12.36189 #   O
114     1    3   -0.82000   -3.47465   12.60064   13.05521 #   O
115     1    3   -0.82000    6.95058    1.37156    1.08203 #   O
116     1    3   -0.82000    3.11105    0.71223    9.23167 #   O
117     1    3   -0.82000    2.71408    3.00101   10.35848 #   O
118     1    3   -0.82000    7.48313    1.09012    6.77482 #   O
119     1    3   -0.82000    3.90018    1.47234   14.25939 #   O
120     1    3   -0.82000    5.45078    2.16509   16.31569 #   O
121     1    3   -0.82000    2.87927    2.84203   16.26657 #   O
122     1    3   -0.82000    5.02067    1.94245   10.96516 #   O
123     1    3   -0.82000    7.08559    1.34257   12.43956 #   O
124     1    3   -0.82000    0.96945    5.50181    2.15838 #   O
125     1    3   -0.82000    4.66602    2.55738    8.43656 #   O
126     1    3   -0.82000    6.68691    3.59871    7.10284 #   O
127     1    3   -0.82000    4.66895    4.02005   14.61129 #   O
128     1    3   -0.82000    6.24580    3.87103   12.46761 #   O
129     1    3   -0.82000    2.98995    7.86748   16.51318 #   O
130     1    3   -0.82000    0.31138    7.61031   16.66100 #   O
131     1    3   -0.82000    4.41904    5.78225   12.62003 #   O
132     1    3   -0.82000    1.89515    8.15973    2.10779 #   O
133     1    3   -0.82000    4.32142    8.40457    1.09322 #   O
134     1    3   -0.82000   -0.83767   12.75071    2.71406 #   O
135     1    3   -0.82000   -2.14489   12.33363    5.00658 #   O
136     1    3   -0.82000    2.57639   10.50239    1.06359 #   O
137     1    3   -0.82000    1.26804   12.91289    1.08249 #   O
138     1    3   -0.82000   -1.70420   10.38900    9.09961 #   O
139     1    3   -0.82000   -0.53943   12.62760    8.54498 #   O
140     1    3   -0.82000   -2.05748   12.34753   10.82364 #   O
141     1    3   -0.82000    0.43190   11.69323    4.80404 #   O
142     1    3   -0.82000    2.12590   10.22530    6.26369 #   O
143     1    3   -0.82000    1.67506   12.69664    6.95602 #   O
144     1    3   -0.82000    1.52946    8.88217   14.61907 #   O
145     1    3   -0.82000    3.63558    8.28526   13.20767 #   O
146     1    3   -0.82000    0.27695   11.20618   10.69226 #   O
147     1    3   -0.82000    2.05108   10.31372   12.39208 #   O
148     1    3   -0.82000    1.40958   12.91687   12.42501 #   O
149     1    3   -0.82000   13.80353    1.04049    2.79736 #   O
150     1    3   -0.82000    8.58476    1.03399    3.17702 #   O
151     1    3   -0.82000    8.14473    2.96245    4.96577 #   O
152     1    3   -0.82000   13.26755    2.71095   16.49919 #   O
153     1    3   -0.82000   11.71306    0.94477    1.09450 #   O
154     1    3   -0.82000    8.90845    0.89222    9.02452 #   O
155     1    3   -0.82000    7.44108    2.82326   10.28629 #   O
156     1    3   -0.82000   12.99375    2.76838    4.67615 #   O
157     1    3   -0.82000   10.53487    1.97087    4.63478 #   O
158     1    3   -0.82000   12.22260    0.62078    6.13969 #   O
159     1    3   -0.82000   13.89817    1.13457   14.44402 #   O
160     1    3   -0.82000    9.24771    1.58125   13.96675 #   O
161     1    3   -0.82000   10.66725    2.21063   16.12725 #   O
162     1    3   -0.82000    8.04844    2.65451   16.01819 #   O
163     1    3   -0.82000    9.84158    2.14595   11.09299 #   O
164     1    3   -0.82000   11.84520    1.89441   12.95096 #   O
165     1    3   -0.82000    9.43019    3.45160    2.66787 #   O
166     1    3   -0.82000   11.32763    3.50469    0.72949 #   O
167     1    3   -0.82000   10.80723    7.15923   16.12744 #   O
168     1    3   -0.82000    9.45692    5.28966    0.79886 #   O
169     1    3   -0.82000    9.46984    3.42715    8.69548 #   O
170     1    3   -0.82000   11.52203    3.00944    6.93641 #   O
171     1    3   -0.82000    9.64801    4.12951   14.56754 #   O
172     1    3   -0.82000   10.91953    4.26473   12.20982 #   O
173     1    3   -0.82000   11.81728    5.62621   14.24717 #   O
174     1    3   -0.82000    6.45465    5.97822   14.23325 #   O
175     1    3   -0.82000    8.15400    6.71562   16.05171 #   O
176     1    3   -0.82000    5.66522    7.75558   16.16221 #   O
177     1    3   -0.82000    9.51308    6.36768   13.16278 #   O
178     1    3   -0.82000    3.70359    9.89570    3.25144 #   O
179     1    3   -0.82000    4.66596   12.32802    2.56169 #   O
180     1    3   -0.82000    3.01105   12.09829    4.63024 #   O
181     1    3   -0.82000    7.70075   12.31310   15.71732 #   O
182     1    3   -0.82000    3.87932   10.75513    8.26409 #   O
183     1    3   -0.82000    4.49701   13.24603    8.73044 #   O
184     1    3   -0.82000    2.74935   11.99238   10.37099 #   O
185     1    3   -0.82000    8.02211   11.94622    5.09016 #   O
186     1    3   -0.82000    5.49482   11.11308    4.72551 #   O
187     1    3   -0.82000    7.07757    9.78002    6.28344 #   O
188     1    3   -0.82000    6.24909   12.18951    7.03406 #   O
189     1    3   -0.82000    7.22346    8.61022   14.40944 #   O
190     1    3   -0.82000    8.43585    8.69251   12.14148 #   O
191     1    3   -0.82000    8.68306   10.79785   13.73655 #   O
192     1    3   -0.82000    3.63357   10.57548   14.50971 #   O
193     1    3   -0.82000    5.10522   11.82235   16.29077 #   O
194     1    3   -0.82000    3.96928   13.24720   14.41458 #   O
195     1    3   -0.82000    2.39696   12.24650   16.14205 #   O
196     1    3   -0.82000    5.26069   11.32122   10.43573 #   O
197     1    3   -0.82000    6.38823   10.41924   12.60052 #   O
198     1    3   -0.82000    5.56879   13.06223   12.39848 #   O
199     1    2    0.41000    2.25060    1.84746    3.62379 #   H
200     1    2    0.41000    3.29192    2.85364    4.63388 #   H
201     1    2    0.41000    1.91528    3.57693    3.76709 #   H
202     1    2    0.41000   -0.05371    1.70063   10.20349 #   H
203     1    2    0.41000   -0.42695    3.17200   11.11716 #   H
204     1    2    0.41000   -0.46276    1.59723   11.93659 #   H
205     1    2    0.41000    2.94490    4.00773   13.11295 #   H
206     1    2    0.41000    1.56258    3.25427   13.94854 #   H
207     1    2    0.41000    1.31195    4.49995   12.71594 #   H
208     1    2    0.41000   -2.92252    7.33331    1.44774 #   H
209     1    2    0.41000   -1.44607    8.31457    1.45703 #   H
210     1    2    0.41000   -1.50768    6.77449    2.33743 #   H
211     1    2    0.41000   -1.01862    4.04423    9.19838 #   H
212     1    2    0.41000   -0.56543    5.74862    9.45563 #   H
213     1    2    0.41000    0.68652    4.48627    9.42204 #   H
214     1    2    0.41000   -2.37276    4.68963    6.55554 #   H
215     1    2    0.41000   -1.47742    5.21084    5.13864 #   H
216     1    2    0.41000   -1.93280    6.40279    6.37816 #   H
217     1    2    0.41000    0.86129    7.32521    6.93320 #   H
218     1    2    0.41000    1.89270    6.18686    6.06832 #   H
219     1    2    0.41000    1.98488    6.28053    7.83210 #   H
220     1    2    0.41000   -3.63135    8.20338    8.96647 #   H
221     1    2    0.41000   -2.07137    7.51432    8.54930 #   H
222     1    2    0.41000   -3.35429    7.57903    7.31871 #   H
223     1    2    0.41000   -1.13486    8.54332    5.87356 #   H
224     1    2    0.41000   -0.00300    8.85056    7.19248 #   H
225     1    2    0.41000   -0.33311   10.11529    6.01855 #   H
226     1    2    0.41000   -0.75743    6.96173   12.98567 #   H
227     1    2    0.41000   -0.24108    8.30671   11.93350 #   H
228     1    2    0.41000   -1.73517    7.41293   11.56988 #   H
229     1    2    0.41000   -1.90436   10.65593   15.14448 #   H
230     1    2    0.41000   -0.30440   10.43550   14.39761 #   H
231     1    2    0.41000   -0.90884    9.24196   15.54829 #   H
232     1    2    0.41000   -5.40402   10.68411   11.41626 #   H
233     1    2    0.41000   -4.38734   10.61316    9.95342 #   H
234     1    2    0.41000   -5.10850   12.16704   10.45293 #   H
235     1    2    0.41000    4.73093    1.53550    5.67792 #   H
236     1    2    0.41000    5.76846    1.18339    4.28756 #   H
237     1    2    0.41000    5.12578    2.81546    4.48784 #   H
238     1    2    0.41000    3.89602    6.12543    2.96618 #   H
239     1    2    0.41000    3.09116    5.40184    4.37501 #   H
240     1    2    0.41000    3.54608    7.11887    4.38240 #   H
241     1    2    0.41000   -0.01487    6.57789    4.88525 #   H
242     1    2    0.41000   -0.58473    7.75898    3.70854 #   H
243     1    2    0.41000    0.74589    8.18230    4.79619 #   H
244     1    2    0.41000    2.99554    4.34179    7.24277 #   H
245     1    2    0.41000    3.97501    4.14916    5.78538 #   H
246     1    2    0.41000    3.98142    5.69319    6.64541 #   H
247     1    2    0.41000    5.65619    6.14071    9.01159 #   H
248     1    2    0.41000    6.26439    4.81015    9.98836 #   H
249     1    2    0.41000    4.51210    5.09121    9.86889 #   H
250     1    2    0.41000    1.74318    5.20310   15.70032 #   H
251     1    2    0.41000    2.58263    5.82735   14.28026 #   H
252     1    2    0.41000    0.80283    5.75328   14.30451 #   H
253     1    2    0.41000    2.20389    5.85144   10.62879 #   H
254     1    2    0.41000    1.59509    7.50870   10.84842 #   H
255     1    2    0.41000    1.45966    6.34496   12.16303 #   H
256     1    2    0.41000    4.61922    7.69744    9.72326 #   H
257     1    2    0.41000    5.92880    7.70998   10.92358 #   H
258     1    2    0.41000    4.79151    9.06201   10.84697 #   H
259     1    2    0.41000   -0.75369    9.54386    2.96263 #   H
260     1    2    0.41000   -2.32121   10.30008    2.59956 #   H
261     1    2    0.41000   -2.04992    9.53524    4.17697 #   H
262     1    2    0.41000   -0.54445   10.60648    1.21653 #   H
263     1    2    0.41000    0.04684    9.55794   -0.08953 #   H
264     1    2    0.41000    1.33285    8.08339    8.78949 #   H
265     1    2    0.41000    0.91761    9.78912    9.01928 #   H
266     1    2    0.41000    2.29987    9.10607    9.86149 #   H
267     1    2    0.41000    4.36834    7.63138    7.69608 #   H
268     1    2    0.41000    4.86985    8.73673    6.38514 #   H
269     1    2    0.41000    3.44062    7.69048    6.18715 #   H
270     1    2    0.41000   12.10765    2.64683    9.37368 #   H
271     1    2    0.41000   13.00948    1.66755   10.53079 #   H
272     1    2    0.41000   13.25998    3.42936   10.48378 #   H
273     1    2    0.41000   11.46516    6.34937    2.93992 #   H
274     1    2    0.41000   11.53013    4.86094    3.88896 #   H
275     1    2    0.41000   10.73216    5.57892    5.82072 #   H
276     1    2    0.41000    9.48967    6.14609    6.93792 #   H
277     1    2    0.41000    9.14506    4.76700    5.87506 #   H
278     1    2    0.41000   11.23949    6.19709    8.82760 #   H
279     1    2    0.41000   12.70092    5.22191    8.69575 #   H
280     1    2    0.41000   11.50833    4.88960    9.97070 #   H
281     1    2    0.41000   10.63621    8.36634   10.16250 #   H
282     1    2    0.41000   11.55517    7.02758   10.90803 #   H
283     1    2    0.41000    7.46188    5.77990   11.23792 #   H
284     1    2    0.41000    8.85763    5.48571   10.19442 #   H
285     1    2    0.41000    7.79483    6.87813    9.88067 #   H
286     1    2    0.41000    7.67380    6.43886    7.94160 #   H
287     1    2    0.41000    7.51681    6.76847    6.22271 #   H
288     1    2    0.41000    6.16561    7.11102    7.29210 #   H
289     1    2    0.41000    9.93883    8.26730    6.07274 #   H
290     1    2    0.41000   10.18317    8.23577    7.81410 #   H
291     1    2    0.41000    7.42820   10.67638    8.93826 #   H
292     1    2    0.41000    8.44221    9.46573    9.75353 #   H
293     1    2    0.41000    6.70287    9.19320    9.54109 #   H
294     1    2    0.41000    7.65062   13.11472   10.25494 #   H
295     1    2    0.41000    8.43362   11.55888   10.59173 #   H
296     1    2    0.41000    8.44618   12.84643   11.81246 #   H
297     2    4    0.00000   -4.35260   11.41298   17.01538 #  Si
298     2    1    0.00000   -3.19915   12.71734   16.42546 #   C
299     2    3   -0.82000   -5.46791   11.02459   15.87168 #   O
300     2    2    0.41000   -2.81450   12.51000   15.42349 #   H
301     2    2    0.41000   -2.34568   12.82460   17.10546 #   H
302     2    2    0.41000   -3.71071   13.68157   16.39304 #   H
303     3    4    0.00000    5.52841    4.76047    1.21620 #  Si
304     3    4    0.00000    6.96379    6.47671    3.38357 #  Si
305     3    1    0.00000    4.58026    3.50959    2.16005 #   C
306     3    1    0.00000    8.79357    6.53562    3.68659 #   C
307     3    1    0.00000    6.33369    8.20110    3.49801 #   C
308     3    1    0.00000    6.14475    5.46245    4.69299 #   C
309     3    3   -0.82000    6.38408    3.88552    0.11522 #   O
310     3    3   -0.82000    4.34017    5.70481    0.56487 #   O
311     3    3   -0.82000    6.59869    5.75792    1.92421 #   O
312     3    2    0.41000    5.20575    2.68311    2.50308 #   H
313     3    2    0.41000    3.83983    3.10766    1.45296 #   H
314     3    2    0.41000    4.01428    3.92124    2.99411 #   H
315     3    2    0.41000    9.34480    7.06583    2.90955 #   H
316     3    2    0.41000    9.20987    5.53593    3.81521 #   H
317     3    2    0.41000    8.95527    7.07438    4.62899 #   H
318     3    2    0.41000    6.64519    8.84679    2.67558 #   H
319     3    2    0.41000    6.72307    8.62599    4.43132 #   H
320     3    2    0.41000    5.24556    8.24129    3.55705 #   H
321     3    2    0.41000    5.58335    4.64193    4.24234 #   H
322     3    2    0.41000    5.44637    6.07567    5.26493 #   H
323     3    2    0.41000    6.86569    5.03653    5.38873 #   H
324     4    1    0.00000    3.86566    0.19071    2.08932 #   C
325     4    2    0.41000    3.88519    0.82094    2.98266 #   H
326     4    2    0.41000    4.35255    0.73028    1.27224 #   H
327     5    1    0.00000   -6.08956   12.26871    7.96975 #   C
328     5    2    0.41000   -5.56149   11.42579    8.42012 #   H
329     5    2    0.41000   -6.50116   11.96722    7.00669 #   H
330     5    2    0.41000   -6.92602   12.52797    8.62178 #   H
331     6    1    0.00000   -1.24435    3.92635   14.13191 #   C
332     6    2    0.41000   -0.48704    3.82665   13.35230 #   H
333     6    2    0.41000   -1.08664    4.86150   14.67912 #   H
334     7    1    0.00000    9.46123   10.00026    3.54860 #   C
335     7    2    0.41000    8.67025    9.75580    2.83716 #   H
336     7    2    0.41000    9.37829    9.31563    4.39928 #   H
337     8    1    0.00000   -3.61569    9.47163    0.29138 #   C
338     8    2    0.41000   -3.76164    9.29129    1.36214 #   H
339     8    2    0.41000   -2.54404    9.60783    0.11652 #   H
340     9    1    0.00000   -0.37468   13.11932   14.62015 #   C
341     9    2    0.41000   -0.82083   13.82411   15.32879 #   H
342     9    2    0.41000    0.25940   12.41084   15.15454 #   H
343     9    2    0.41000   -1.19071   12.58152   14.12634 #   H
344    10    1    0.00000   14.30057    1.39095    7.93132 #   C
345    10    2    0.41000   14.29086    2.22136    7.21889 #   H
346    10    2    0.41000   14.08724    1.80407    8.91466 #   H
347    11    1    0.00000    9.03450    8.09643    0.69591 #   C
348    11    2    0.41000    8.98951    8.93107   -0.01057 #   H
349    11    2    0.41000    9.86059    8.28250    1.38763 #   H
350    11    2    0.41000    8.10483    8.06695    1.26794 #   H
351    12    1    0.00000    6.82942   10.32437    0.78682 #   C
352    12    2    0.41000    7.85043   10.44834    1.15910 #   H
353    12    2    0.41000    6.71462    9.35133    0.30359 #   H
354    12    2    0.41000    6.13205   10.36884    1.62912 #   H
355    13    3   -0.82000    1.43748    0.60312    0.58841 #   O
356    14    3   -0.82000   -5.75044   13.17947   14.33809 #   O
357    15    3   -0.82000    6.33880   13.06048    0.58115 #   O
358    16    2    0.41000   -3.10337   12.77721    2.30532 #   H
359    17    2    0.41000   13.32177    3.99557   13.65366 #   H
360    18    2    0.41000   -5.11615    9.83163    3.06361 #   H
361    19    2    0.41000   -3.76966    9.02099   16.99441 #   H
362    20    2    0.41000   -0.62178   11.51872   16.78124 #   H
363    21    2    0.41000   -0.23383    0.97707    7.93015 #   H
364    22    2    0.41000   -2.90884    5.06539    2.53608 #   H
365    23    2    0.41000   -4.19390    8.58634   11.75712 #   H
366    24    2    0.41000   -5.33918    9.77882    6.96160 #   H


Bonds

1       1   96  311 #  C: H
2       3   10  122 # Si: O
3       2   10   73 # Si: C
4       3   45  188 # Si: O
5       3   45  175 # Si: O
6       1  105  337 #  C: H
7       3   28  144 # Si: O
8       1   78  258 #  C: H
9       2   37   96 # Si: C
10      1   96  310 #  C: H
11      1   78  257 #  C: H
12      1  110  353 #  C: H
13      3   37  158 # Si: O
14      3   37  159 # Si: O
15      3    9  122 # Si: O
16      3   28  146 # Si: O
17      1  105  339 #  C: H
18      1  105  338 #  C: H
19      3   52  188 # Si: O
20      1  110  352 #  C: H
21      1  110  354 #  C: H
22      3   52  191 # Si: O
23      3    9  121 # Si: O
24      3    1  126 # Si: O
25      3   35  158 # Si: O
26      3   20  135 # Si: O
27      3   35  155 # Si: O
28      3   43  175 # Si: O
29      3   28  189 # Si: O
30      2   28   87 # Si: C
31      1   67  224 #  C: H
32      1   73  241 #  C: H
33      1   73  242 #  C: H
34      1   73  243 #  C: H
35      1   87  284 #  C: H
36      3    9  145 # Si: O
37      3    9  120 # Si: O
38      3    1  125 # Si: O
39      3   52  187 # Si: O
40      2   52  101 # Si: C
41      3   43  171 # Si: O
42      3   35  154 # Si: O
43      3   35  201 # Si: O
44      3   53  189 # Si: O
45      3   20  172 # Si: O
46      1   67  223 #  C: H
47      3   29  154 # Si: O
48      3   29  145 # Si: O
49      1   87  283 #  C: H
50      1   87  285 #  C: H
51      3   59  202 # Si: O
52      1   95  308 #  C: H
53      3   44  187 # Si: O
54      1  103  331 #  C: H
55      3   36  156 # Si: O
56      3    2  171 # Si: O
57      1   77  254 #  C: H
58      1  101  325 #  C: H
59      1  101  327 #  C: H
60      1  102  328 #  C: H
61      1   95  307 #  C: H
62      1   88  286 #  C: H
63      2   29   88 # Si: C
64      2   29   89 # Si: C
65      3   13  125 # Si: O
66      3   44  172 # Si: O
67      3   59  201 # Si: O
68      2   53  103 # Si: C
69      2   53  102 # Si: C
70      2   53  104 # Si: C
71      2   36   95 # Si: C
72      1   95  309 #  C: H
73      1  103  333 #  C: H
74      1  103  332 #  C: H
75      1   77  255 #  C: H
76      1   69  229 #  C: H
77      1  102  329 #  C: H
78      1  102  330 #  C: H
79      1   89  290 #  C: H
80      1   88  287 #  C: H
81      1   88  288 #  C: H
82      1   69  231 #  C: H
83      3    2  178 # Si: O
84      3   59  203 # Si: O
85      3   59  210 # Si: O
86      3   44  179 # Si: O
87      3   44  173 # Si: O
88      3   36  163 # Si: O
89      3   36  157 # Si: O
90      3   13  127 # Si: O
91      1   89  291 #  C: H
92      1   89  289 #  C: H
93      1  104  334 #  C: H
94      1   85  278 #  C: H
95      1   69  230 #  C: H
96      2    5   69 # Si: C
97      1   85  279 #  C: H
98      3   40  203 # Si: O
99      3   48  179 # Si: O
100     3   48  178 # Si: O
101     1  104  335 #  C: H
102     1  104  336 #  C: H
103     3   63  210 # Si: O
104     3   40  163 # Si: O
105     3    5  116 # Si: O
106     3   24  173 # Si: O
107     3   16  157 # Si: O
108     1   85  277 #  C: H
109     2   24   85 # Si: C
110     3   16  127 # Si: O
111     3   63  209 # Si: O
112     1   75  248 #  C: H
113     3   48  180 # Si: O
114     3   48  193 # Si: O
115     3   40  164 # Si: O
116     3   40  165 # Si: O
117     3    5  123 # Si: O
118     3    5  117 # Si: O
119     3   63  211 # Si: O
120     3   63  212 # Si: O
121     1   90  293 #  C: H
122     1  106  340 #  C: H
123     1   81  265 #  C: H
124     1  106  342 #  C: H
125     3   16  128 # Si: O
126     3   16  129 # Si: O
127     3   24  138 # Si: O
128     3   24  148 # Si: O
129     1   81  267 #  C: H
130     1   76  251 #  C: H
131     1  112  359 #  C: H
132     1   98  318 #  C: H
133     1   75  249 #  C: H
134     1   75  247 #  C: H
135     2   11   75 # Si: C
136     1  111  356 #  C: H
137     3   38  164 # Si: O
138     3   61  211 # Si: O
139     1   98  317 #  C: H
140     1  106  341 #  C: H
141     2   55  106 # Si: C
142     3   11  123 # Si: O
143     1   81  266 #  C: H
144     2   15   81 # Si: C
145     1   90  294 #  C: H
146     1   90  292 #  C: H
147     2   31   90 # Si: C
148     3    4  117 # Si: O
149     3   15  128 # Si: O
150     2   38   98 # Si: C
151     1   98  316 #  C: H
152     1   76  250 #  C: H
153     3   55  193 # Si: O
154     3   22  165 # Si: O
155     2   11   76 # Si: C
156     1   76  252 #  C: H
157     2   61  112 # Si: C
158     1  112  360 #  C: H
159     1   68  227 #  C: H
160     3   46  212 # Si: O
161     3   31  148 # Si: O
162     2   11   74 # Si: C
163     1  111  357 #  C: H
164     2   61  111 # Si: C
165     1  111  355 #  C: H
166     1   99  319 #  C: H
167     1   80  264 #  C: H
168     2   61  113 # Si: C
169     3   46  207 # Si: O
170     3   38  206 # Si: O
171     2   38   97 # Si: C
172     2   15   80 # Si: C
173     3   15  160 # Si: O
174     3    4  136 # Si: O
175     3   55  192 # Si: O
176     2   55  107 # Si: C
177     3   22  161 # Si: O
178     3   31  147 # Si: O
179     2   31   91 # Si: C
180     1   99  321 #  C: H
181     1   68  226 #  C: H
182     1   68  228 #  C: H
183     1   80  263 #  C: H
184     1   80  262 #  C: H
185     3   62  206 # Si: O
186     3   23  147 # Si: O
187     3   39  161 # Si: O
188     3   47  192 # Si: O
189     1  107  344 #  C: H
190     3   62  207 # Si: O
191     1   97  313 #  C: H
192     1  107  343 #  C: H
193     1   97  314 #  C: H
194     1   97  315 #  C: H
195     1  107  345 #  C: H
196     1  113  361 #  C: H
197     1   74  244 #  C: H
198     1   74  246 #  C: H
199     1   74  245 #  C: H
200     1   91  295 #  C: H
201     3   47  176 # Si: O
202     1  113  363 #  C: H
203     1  113  362 #  C: H
204     3   39  160 # Si: O
205     3   23  136 # Si: O
206     1   91  297 #  C: H
207     1   91  296 #  C: H
208     1  100  322 #  C: H
209     3   62  208 # Si: O