LAMMPS (2 Aug 2023 - Update 2)
  using 6 OpenMP thread(s) per MPI task

include init.in

# set log file
# log log.elastic

# Define MD parameters
variable nevery equal 5                 # sampling interval
variable nrepeat equal 20                 # times to use input values for calculating averages
variable nfreq equal ${nevery}*${nrepeat} # length of one average
variable nfreq equal 5*${nrepeat} 
variable nfreq equal 5*20 
variable nthermo equal ${nfreq}           # interval for thermo output: 100
variable nthermo equal 100           

variable temp equal 300.0                # temperature of initial sample
variable timestep equal 0.5               # timestep
variable adiabatic equal 2                # adiabatic (1) or isothermal (2)
variable tdamp equal 50.0                 # time constant for temperature
variable pdamp equal 10*${tdamp}          # time constant for pressure
variable pdamp equal 10*50          
variable up equal 2.0e-3                  # the deformation magnitude
variable thermostat equal 1               # 0 if NVE, 1 if NPT, 2 if NVT
variable delta index 1.0e-6               # Born numdiff strain magnitude

# read initial structure
units           real
dimension       3
boundary        p p p
atom_style      full

# read initial structure
# read_data 333SiO2-1-UFF-c_eq.data
read_data 333SiO2-1-UFF-c.data
Reading data file ...
  triclinic box = (0 0 0) to (14.6913 12.723 15.9631) with tilt (-7.3456 0 0)
WARNING: Triclinic box skew is large. LAMMPS will run inefficiently. (src/domain.cpp:220)
  1 by 1 by 2 MPI processor grid
  reading atoms ...
  243 atoms
Finding 1-2 1-3 1-4 neighbors ...
  special bond factors lj:    0        0        0       
  special bond factors coul:  0        0        0       
     0 = max # of 1-2 neighbors
     0 = max # of 1-3 neighbors
     0 = max # of 1-4 neighbors
     1 = max # of special neighbors
  special bonds CPU = 0.000 seconds
  read_data CPU = 0.005 seconds
variable nequil equal 2000*${nthermo}       # length of equilibration run 1000
variable nequil equal 2000*100       
variable nrun equal 2000*${nthermo}          # length of equilibrated run
variable nrun equal 2000*100          
variable seed index 123457                # seed for thermostat 123456

thermo ${nthermo}
thermo 100
thermo_style custom step temp pe press

# Energy minimization
print "##### Minimization starts."
##### Minimization starts.
minimize 1.0e-6 1.0e-6 100 1000
WARNING: No pairwise cutoff or binsize set. Atom sorting therefore disabled. (src/atom.cpp:2366)
WARNING: Communication cutoff is 0.0. No ghost atoms will be generated. Atoms may get lost. (src/comm_brick.cpp:210)
Per MPI rank memory allocation (min/avg/max) = 8.865 | 8.865 | 8.865 Mbytes
   Step          Temp          PotEng         Press     
         0   0              0              0            
         1   0              0              0            
Loop time of 3.1428e-05 on 12 procs for 1 steps with 243 atoms

46.1% CPU use with 2 MPI tasks x 6 OpenMP threads

Minimization stats:
  Stopping criterion = search direction is not downhill
  Energy initial, next-to-last, final = 
                     0                  0                  0
  Force two-norm initial, final = 0 0
  Force max component initial, final = 0 0
  Final line search alpha, max atom move = 0 0
  Iterations, force evaluations = 1 0

MPI task timing breakdown:
Section |  min time  |  avg time  |  max time  |%varavg| %total
---------------------------------------------------------------
Pair    | 0          | 0          | 0          |   0.0 |  0.00
Bond    | 1.467e-06  | 1.467e-06  | 1.467e-06  |   0.0 |  4.67
Neigh   | 0          | 0          | 0          |   0.0 |  0.00
Comm    | 4.4e-06    | 4.4e-06    | 4.4e-06    |   0.0 | 14.00
Output  | 0          | 0          | 0          |   0.0 |  0.00
Modify  | 0          | 0          | 0          |   0.0 |  0.00
Other   |            | 2.556e-05  |            |       | 81.33

Nlocal:          121.5 ave         126 max         117 min
Histogram: 1 0 0 0 0 0 0 0 0 1
Nghost:              9 ave          12 max           6 min
Histogram: 1 0 0 0 0 0 0 0 0 1
Neighs:              0 ave           0 max           0 min
Histogram: 2 0 0 0 0 0 0 0 0 0

Total # of neighbors = 0
Ave neighs/atom = 0
Ave special neighs/atom = 0
Neighbor list builds = 0
Dangerous builds = 0
min_style cg
# Save the optimized structure
write_data sio2_opt.data
System init for write_data ...
WARNING: Communication cutoff is 0.0. No ghost atoms will be generated. Atoms may get lost. (src/comm_brick.cpp:210)
reset_timestep 0
timestep ${timestep}
timestep 0.5

velocity        all create ${temp} ${seed} dist gaussian
velocity        all create 300 ${seed} dist gaussian
velocity        all create 300 123457 dist gaussian
# equilibration
variable thermostat equal 1               # 0 if NVE, 1 if NPT, 2 if NVT
print "equil: ${thermostat}"
equil: 1
include ff.in
if "$(is_defined(fix,5))" then "unfix 5"
if "$(is_defined(fix,6))" then "unfix 6"
reset_timestep 0

# Assign the force field
pair_style reaxff NULL safezone 3.0 mincap 150
# pair_coeff * * CHONSSi.ff O Si
# pair_coeff * * CHOSiNa.ff O Si
# pair_coeff * * SiOCHN_2018.ff O Si
# pair_coeff * * PDMSDecomp.ff Si O
# pair_coeff * * CHONSi.ff C H O Si
pair_coeff * * CHOFe.ff O Si
WARNING: Van der Waals parameters for element SI indicate inner wall+shielding, but earlier atoms indicate a different van der Waals method. This may cause division-by-zero errors. Keeping van der Waals setting for earlier atoms. (src/REAXFF/reaxff_ffield.cpp:251)
WARNING: Van der Waals parameters for element AL indicate inner wall+shielding, but earlier atoms indicate a different van der Waals method. This may cause division-by-zero errors. Keeping van der Waals setting for earlier atoms. (src/REAXFF/reaxff_ffield.cpp:251)
WARNING: Changed valency_val to valency_boc for X (src/REAXFF/reaxff_ffield.cpp:296)

# charge method for reaxff
fix myqeq all qeq/reaxff 1 0.0 10.0 1.0e-6 reaxff maxiter 400
# Setup neighbor style
neighbor        2 bin
neigh_modify    every 10 delay 0 check no

# Setup MD
# 0 if NVE, 1 if NPT, 2 if NVT

if "${thermostat} == 0" then    "fix 4 all nve" elif "${thermostat} == 1"    "fix 5 all npt temp ${temp} ${temp} ${tdamp} tri 1.0 1.0 ${pdamp}" elif "${thermostat} == 2"    "fix 6 all nvt temp ${temp} ${temp} ${tdamp}"
fix 5 all npt temp ${temp} ${temp} ${tdamp} tri 1.0 1.0 ${pdamp}
fix 5 all npt temp 300 ${temp} ${tdamp} tri 1.0 1.0 ${pdamp}
fix 5 all npt temp 300 300 ${tdamp} tri 1.0 1.0 ${pdamp}
fix 5 all npt temp 300 300 50 tri 1.0 1.0 ${pdamp}
fix 5 all npt temp 300 300 50 tri 1.0 1.0 500
print "md: ${thermostat}"
md: 1
# save trajectory
dump dump_opt all custom ${nthermo} dump_opt.lammpstrj id type x y z
dump dump_opt all custom 100 dump_opt.lammpstrj id type x y z
run ${nequil}
run 200000

CITE-CITE-CITE-CITE-CITE-CITE-CITE-CITE-CITE-CITE-CITE-CITE-CITE

Your simulation uses code contributions which should be cited:

- pair reaxff command: doi:10.1016/j.parco.2011.08.005

@Article{Aktulga12,
 author = {H. M. Aktulga and J. C. Fogarty and S. A. Pandit and A. Y. Grama},
 title = {Parallel Reactive Molecular Dynamics: {N}umerical Methods and Algorithmic Techniques},
 journal = {Parallel Computing},
 year =    2012,
 volume =  38,
 number =  {4--5},
 pages =   {245--259}
}

- fix qeq/reaxff command: doi:10.1016/j.parco.2011.08.005

@Article{Aktulga12,
 author = {H. M. Aktulga and J. C. Fogarty and S. A. Pandit and A. Y. Grama},
 title = {Parallel Reactive Molecular Dynamics: {N}umerical Methods and Algorithmic Techniques},
 journal = {Parallel Computing},
 year =    2012,
 volume =  38,
 pages =   {245--259}
}

CITE-CITE-CITE-CITE-CITE-CITE-CITE-CITE-CITE-CITE-CITE-CITE-CITE

Neighbor list info ...
  update: every = 10 steps, delay = 0 steps, check = no
  max neighbors/atom: 2000, page size: 100000
  master list distance cutoff = 12
  ghost atom cutoff = 12
  binsize = 6, bins = 4 3 3
  2 neighbor lists, perpetual/occasional/extra = 2 0 0
  (1) pair reaxff, perpetual
      attributes: half, newton off, ghost
      pair build: half/bin/newtoff/ghost
      stencil: full/ghost/bin/3d
      bin: standard
  (2) fix qeq/reaxff, perpetual, copy from (1)
      attributes: half, newton off
      pair build: copy
      stencil: none
      bin: none
Per MPI rank memory allocation (min/avg/max) = 160.9 | 160.9 | 161 Mbytes
   Step          Temp          PotEng         Press     
         0   300           -36881.566      21554.575    
       100   157.203       -36741.931     -25860.503    
       200   219.49323     -36764.691      28589.436    
       300   281.20215     -36752.45      -13201.608    
       400   299.84207     -36719.609     -2728.8682    
       500   326.89506     -36707.085      3026.0417    
       600   336.04515     -36701.585     -5078.2572    
       700   301.84372     -36702.427      13737.01     
       800   275.24819     -36699.146     -17634.119    
       900   295.30908     -36723.187      13562.644    
      1000   300.58093     -36708.731     -11864.056    
      1100   301.63398     -36701.414      19788.936    
      1200   301.14038     -36688.107     -11127.014    
      1300   284.58036     -36685.857      2509.6079    
      1400   296.34349     -36712.91       2077.0253    
      1500   305.50509     -36730.249      2322.9311    
      1600   286.27366     -36712.955     -328.9199     
      1700   308.05215     -36703.472     -1650.9383    
      1800   320.51108     -36703.245      8028.3838    
      1900   295.79842     -36683.629     -8263.8177    
      2000   303.16985     -36723.885      840.30846    
      2100   302.29556     -36730.162     -6863.8655    
      2200   296.75233     -36713.289      5091.8818    
      2300   294.31979     -36695.146     -1750.5516    
      2400   309.90133     -36696.239     -520.74137    
      2500   273.81799     -36674.075     -3436.9179    
      2600   294.87623     -36718.311      2173.31      
      2700   280.6561      -36712.832     -4149.5831    
      2800   291.98337     -36708.95      -549.83377    
      2900   327.41659     -36719.999      8254.7277    
      3000   323.38842     -36697.362     -5559.6711    
      3100   289.24868     -36694.815     -1747.3358    
      3200   283.92014     -36708.883      3435.6052    
      3300   289.11002     -36710.415      647.87709    
      3400   315.92958     -36710.308     -2870.1618    
      3500   308.88474     -36697.355      1714.1111    
      3600   300.05234     -36700.625      2168.1413    
      3700   297.01778     -36731.583      42.28523     
      3800   273.34371     -36716.971     -1873.0473    
      3900   296.19648     -36711.935      196.28868    
      4000   297.26544     -36700.337     -2008.9037    
      4100   338.62997     -36723.047     -5642.9517    
      4200   293.65051     -36708.478     -1235.638     
      4300   286.18493     -36713.141      4521.3971    
      4400   311.50867     -36728.456     -696.55735    
      4500   292.57147     -36706.039     -8011.5031    
      4600   304.4093      -36704.064      498.43434    
      4700   333.15591     -36707.574      995.57923    
      4800   326.23168     -36687.281      1355.5483    
      4900   309.72609     -36686.592     -12478.366    
      5000   303.85823     -36719.985      7098.4218    
      5100   297.1746      -36722.963     -1217.1042    
      5200   316.63091     -36727.188     -1192.0944    
      5300   298.74522     -36699.257     -158.13112    
      5400   320.71032     -36697.328      8511.8427    
      5500   325.01816     -36709.049      158.27412    
      5600   288.14125     -36705.105     -4542.4267    
      5700   302.00932     -36715.562      5686.323     
      5800   301.87972     -36708.32      -604.4227     
      5900   293.71137     -36694.538     -7693.1192    
      6000   306.7333      -36713.186     -4110.2878    
      6100   279.66315     -36712.307      10340.351    
      6200   290.31593     -36723.25      -909.53077    
      6300   301.7085      -36713.236     -4945.6857    
      6400   313.41106     -36697.991     -1859.9875    
      6500   323.13626     -36709.544      10054.72     
      6600   302.4906      -36709.978     -15.598099    
      6700   305.92414     -36719.428     -5779.9788    
      6800   290.27806     -36709.927      10090.539    
      6900   311.3392      -36720.185      1913.9164    
      7000   306.0794      -36707.873     -2155.7247    
      7100   304.03804     -36703.305     -5993.4175    
      7200   298.52854     -36711.493      4668.4251    
      7300   295.96345     -36716.894     -758.02564    
      7400   275.24162     -36700.429     -7321.8466    
      7500   293.34839     -36709.264      3588.9028    
      7600   301.75392     -36699.106      5649.1978    
      7700   326.25914     -36706.112      3763.5784    
      7800   302.17305     -36707.068     -6623.221     
      7900   294.77312     -36726.322      1334.8775    
      8000   286.84107     -36715.559     -741.45087    
      8100   297.7416      -36708.384     -6543.7959    
      8200   324.14002     -36717.458     -2611.3682    
      8300   296.06163     -36710.301      3488.3606    
      8400   287.5086      -36729.323      5652.7805    
      8500   279.46808     -36709.009     -10894.426    
      8600   303.29692     -36714.673     -2557.865     
      8700   290.3318      -36700.622      2641.1592    
      8800   308.4166      -36710.577     -4835.6442    
      8900   307.32045     -36717.698      6266.5243    
      9000   274.60788     -36723.533     -587.06184    
      9100   277.93951     -36737.389      10468.849    
      9200   289.37873     -36714.956     -9491.6302    
      9300   295.26348     -36706.278      1225.7923    
      9400   300.44864     -36704.232     -325.51073    
      9500   316.10774     -36713.227      3449.6799    
      9600   293.82117     -36696.66      -3867.0237    
      9700   276.93644     -36710.1       -457.07427    
      9800   287.43834     -36722.746      7094.5866    
      9900   307.04844     -36717.627     -4261.4565    
     10000   323.75001     -36708.161      1744.8592    
     10100   310.43977     -36697.726     -5944.127     
     10200   308.96269     -36708.118      6492.2745    
     10300   310.66046     -36719.65      -5261.931     
     10400   285.79883     -36715.971      1252.2889    
     10500   279.85537     -36709.742     -1967.7578    
     10600   311.28828     -36701.684      155.33753    
     10700   322.1256      -36707.452      2053.4503    
     10800   293.57033     -36704.7        2021.3926    
     10900   298.41445     -36723.764      54.81622     
     11000   309.11287     -36729.421      2742.9399    
     11100   296.22582     -36713.377      3676.9752    
     11200   281.15798     -36698.369     -2918.3311    
     11300   299.265       -36707.737     -1774.6033    
     11400   315.22139     -36719.482     -3487.9975    
     11500   285.05908     -36710.409      4411.127     
     11600   290.40763     -36713.301     -4412.9866    
     11700   291.00534     -36706.676      5503.0464    
     11800   318.5337      -36708.248     -893.48858    
     11900   327.71437     -36708.556      2735.3252    
     12000   304.44775     -36716.058     -3438.7545    
     12100   298.96501     -36725.545      722.75292    
     12200   296.08515     -36721.42       4726.5772    
     12300   316.85937     -36721.001     -6242.0581    
     12400   298.02717     -36705.587      5763.6259    
     12500   305.76616     -36714.025     -8671.6261    
     12600   285.62883     -36730.825      13013.971    
     12700   287.36013     -36725.348     -9826.2959    
     12800   304.78366     -36717.433      5249.1976    
     12900   272.35967     -36683.47      -5527.905     
     13000   318.69084     -36714.493      12273.155    
     13100   306.84423     -36716.584     -5146.0413    
     13200   258.14634     -36716.752      3359.3813    
     13300   297.11196     -36739.696      3137.1022    
     13400   296.86502     -36718.737     -3382.0742    
     13500   298.33529     -36705.51       4472.5471    
     13600   304.09028     -36700.723     -126.37888    
     13700   307.48626     -36711.474      4978.9784    
     13800   272.30167     -36707.691     -7763.6621    
     13900   263.6055      -36706.2        2052.9046    
     14000   303.12457     -36722.309     -5292.639     
     14100   291.14423     -36708.83       4584.9113    
     14200   322.69534     -36718.789      1739.726     
     14300   303.98167     -36693.722     -3744.7384    
     14400   308.82532     -36696.589      2447.4421    
     14500   282.43539     -36693.073      550.3576     
     14600   306.32416     -36727.903      4361.7321    
     14700   289.64267     -36722.065     -1475.1122    
     14800   303.22837     -36723.52       5574.1583    
     14900   310.9474      -36697.387     -3251.5387    
     15000   307.80634     -36694.979      5827.3775    
     15100   307.98272     -36707.861     -4331.2731    
     15200   288.1904      -36710.979      2174.8702    
     15300   310.80565     -36722.044      8457.6524    
     15400   285.18641     -36707.987     -4709.367     
     15500   274.1315      -36713.557      4543.1805    
     15600   301.55967     -36730.259     -3689.4267    
     15700   297.23147     -36706.159      1994.4399    
     15800   296.50612     -36693.671     -3353.4664    
     15900   306.31794     -36698.427      4210.0585    
     16000   282.2412      -36707.393     -3550.61      
     16100   306.47246     -36739.81       1814.6243    
     16200   282.84175     -36717.52      -3997.5399    
     16300   308.73828     -36723.682      1488.2401    
     16400   302.46887     -36707.441     -3470.837     
     16500   309.13879     -36708.234     -472.08454    
     16600   308.01108     -36706.637      2915.6059    
     16700   290.3982      -36707.409     -208.59203    
     16800   291.59338     -36732.418      482.21916    
     16900   294.06513     -36719.004     -7573.9244    
     17000   297.21703     -36703.751      3677.751     
     17100   298.37026     -36697.381      2853.1757    
     17200   322.5353      -36718.552     -2052.6524    
     17300   276.69644     -36703.038     -2475.0362    
     17400   280.14557     -36702.325      357.95236    
     17500   318.38186     -36723.701      7504.4155    
     17600   291.62861     -36703.547     -2972.4411    
     17700   309.52602     -36719.024     -6270.2923    
     17800   312.14348     -36724.818      3078.6458    
     17900   297.27091     -36702.739      7737.5126    
     18000   305.57055     -36691.319     -3356.3827    
     18100   308.73889     -36695.372      350.99532    
     18200   305.14966     -36721.099      834.7405     
     18300   296.77445     -36727.541     -525.38216    
     18400   288.08678     -36709.521     -431.49999    
     18500   305.60667     -36710.119     -661.6757     
     18600   296.15682     -36698.694      4635.1847    
     18700   314.36876     -36715.839     -317.14078    
     18800   280.44572     -36719.937      1113.0384    
     18900   291.45943     -36730.267     -2009.0071    
     19000   311.20454     -36724.807      228.4906     
     19100   322.87216     -36714.459     -2728.7779    
     19200   306.79417     -36708.566      936.1046     
     19300   292.02951     -36706.991     -4406.8903    
     19400   297.47516     -36718.309      6354.038     
     19500   303.50889     -36721.067     -3799.5648    
     19600   302.5981      -36709.303     -995.19573    
     19700   325.14443     -36714.637      5041.6242    
     19800   294.19087     -36698.9        3025.196     
     19900   296.85951     -36718.745     -6479.4309    
     20000   291.32199     -36730.767     -1932.2137    
     20100   289.56786     -36739.942      609.64688    
     20200   271.94919     -36711.427      1402.961     
     20300   315.67709     -36716.778      7056.4773    
     20400   303.42435     -36700.192     -4435.0157    
     20500   308.22162     -36711.848      3519.2735    
     20600   294.68091     -36722.74      -5849.3718    
     20700   274.6547      -36707.328      1617.394     
     20800   322.79485     -36715.559      3412.6707    
     20900   336.22435     -36706.608      940.25876    
     21000   312.10359     -36709.46      -2411.6201    
     21100   287.6923      -36703          1265.1708    
     21200   297.37593     -36705.843     -2282.9681    
     21300   314.97287     -36711.681      1564.6833    
     21400   298.58521     -36698.636     -1898.7004    
     21500   294.76693     -36719.164      3774.7796    
     21600   275.57574     -36705.825     -2905.5495    
     21700   314.12867     -36719.295      10261.429    
     21800   325.73906     -36705.776      255.68213    
     21900   321.05544     -36702.481     -1648.7427    
     22000   290.5523      -36718.319     -951.17142    
     22100   274.57758     -36706.457     -8108.0759    
     22200   288.68044     -36700.558      8791.7341    
     22300   305.53484     -36696.123     -9500.4206    
     22400   301.07245     -36705.876      11156.136    
     22500   290.1023      -36716.451     -651.21586    
     22600   303.86585     -36721.624      2822.1544    
     22700   293.61518     -36706.106     -6196.8921    
     22800   300.47301     -36712.708     -2759.8562    
     22900   315.05478     -36717.592      7954.397     
     23000   287.06933     -36698.039     -8696.6475    
     23100   278.26032     -36698.897     -2734.9386    
     23200   295.14114     -36717.501      568.85127    
     23300   305.71243     -36717.974      12790.55     
     23400   306.68145     -36688.993     -9495.5167    
     23500   331.54083     -36706.663     -7233.8767    
     23600   294.35667     -36716.612      3783.9522    
     23700   296.82491     -36727.146      1662.1733    
     23800   287.29281     -36710.054     -6168.7385    
     23900   280.69677     -36690.702     -812.75504    
     24000   316.53909     -36710.703      12960.525    
     24100   304.64782     -36709.168     -2555.0062    
     24200   303.30169     -36718.892     -4950.6859    
     24300   291.98858     -36720.218      582.19495    
     24400   301.69681     -36722.199      5639.8654    
     24500   275.37379     -36690.328     -7024.4977    
     24600   294.03684     -36689.363     -4415.1071    
     24700   305.33933     -36700.257      4868.7704    
     24800   282.65188     -36714.11       13307.71     
     24900   288.89133     -36726.866     -8416.4077    
     25000   308.12835     -36730.837      835.40591    
     25100   282.68439     -36699.101      5252.1122    
     25200   301.36186     -36707.289     -2439.7047    
     25300   295.08932     -36702.249     -6748.0466    
     25400   285.77933     -36704.213      569.58461    
     25500   294.63574     -36734.947      11700.16     
     25600   275.74802     -36723.258     -11845.518    
     25700   310.75596     -36728.866      4535.0309    
     25800   298.37918     -36703.688     -10798.62     
     25900   287.15145     -36695.765      14154.867    
     26000   290.17399     -36689.816     -12509.349    
     26100   298.66826     -36714.379      2860.9122    
     26200   270.74119     -36712.135     -1316.562     
     26300   292.18832     -36725.429      3793.0132    
     26400   311.96294     -36711.543     -2614.2385    
     26500   298.93914     -36696.118     -104.04071    
     26600   304.06775     -36705.78       7454.7841    
     26700   300.84512     -36710.116     -4036.851     
     26800   313.72938     -36728.489      3115.6041    
     26900   269.4167      -36714.899     -7003.9185    
     27000   309.92676     -36743.925      10138.551    
     27100   286.82588     -36698.871     -4929.6846    
     27200   313.43892     -36709.841      1805.2415    
     27300   273.46745     -36683.883     -3071.2326    
     27400   304.48209     -36710.458      1625.152     
     27500   318.9846      -36715.782      3718.5686    
     27600   320.11033     -36717.119      944.87803    
     27700   291.14475     -36706.719     -4096.3219    
     27800   292.08195     -36719.56      -5202.2891    
     27900   295.61907     -36723.602      5972.8398    
     28000   286.52431     -36693.723     -1784.3926    
     28100   333.0854      -36705.808     -1066.2111    
     28200   325.43689     -36710.761      1865.3216    
     28300   303.16156     -36714.272     -421.65206    
     28400   304.92639     -36718.273     -793.25815    
     28500   279.66237     -36701.129     -3881.4409    
     28600   282.83425     -36704.759     -2379.5032    
     28700   283.75005     -36691.653     -1469.4091    
     28800   312.19455     -36690.064      2174.0636    
     28900   322.38607     -36698.714      2258.7352    
     29000   307.87952     -36718.502      772.06804    
     29100   283.8722      -36713.589      6497.3353    
     29200   320.66911     -36728.513     -986.01407    
     29300   290.57182     -36702.252     -1327.0416    
     29400   315.2991      -36702.632     -7400.3842    
     29500   304.56232     -36672.86      -117.69213    
     29600   333.57847     -36704.884     -2408.2877    
     29700   299.3461      -36708.268      297.27653    
     29800   295.49969     -36710.269      978.99135    
     29900   295.58071     -36708.269      1280.5448    
     30000   299.49666     -36711.565      2577.7799    
     30100   315.66066     -36709.238     -4819.2046    
     30200   295.04048     -36682.729      6150.4454    
     30300   324.90472     -36697.571     -1641.6713    
     30400   296.40254     -36712.118     -1415.1429    
     30500   302.95527     -36727.314      1740.0766    
     30600   300.23606     -36717.465      222.20152    
     30700   300.79324     -36697.407      2168.2166    
     30800   304.85088     -36693.259     -3244.5778    
     30900   313.80507     -36715.816      5921.3228    
     31000   280.87676     -36702.398     -4596.6157    
     31100   296.64278     -36710.829      1078.9581    
     31200   295.0332      -36705.45       797.72531    
     31300   314.83874     -36713.475     -1341.122     
     31400   284.90585     -36700.714     -1018.1255    
     31500   279.83699     -36711.296     -5917.638     
     31600   285.86232     -36716.397      8950.0387    
     31700   298.38568     -36695.415     -1832.8484    
     31800   307.39645     -36690.444     -5124.9512    
     31900   303.81419     -36700.641     -2993.1267    
     32000   308.97408     -36720.745      5686.1063    
     32100   303.0504      -36715.272     -753.52322    
     32200   302.90692     -36711.45      -3824.7997    
     32300   299.66849     -36707.165      5992.7452    
     32400   310.93664     -36714.158     -3322.8164    
     32500   277.71057     -36698.365      2104.2319    
     32600   293.41616     -36715.017     -1621.0319    
     32700   291.72858     -36703.857      3777.236     
     32800   320.60828     -36706.286     -3185.2135    
     32900   322.2304      -36701.568      128.54031    
     33000   309.71392     -36726.892     -4055.014     
     33100   282.42789     -36717.092      2116.8927    
     33200   299.17598     -36714.913     -2195.443     
     33300   296.92436     -36693.989     -428.78981    
     33400   326.41037     -36718.863      32.360298    
     33500   285.75759     -36706.792     -3578.0876    
     33600   274.62772     -36721.593     -2413.0497    
     33700   274.21885     -36740.583     -31.287938    
     33800   280.44444     -36726.757      7623.4307    
     33900   291.72112     -36717.249     -962.69046    
     34000   285.51871     -36695.534     -3981.8847    
     34100   301.78415     -36693.927      777.18483    
     34200   307.16456     -36700.625      4909.2787    
     34300   316.56591     -36726.693     -4403.8904    
     34400   276.73831     -36715.17      -2964.8364    
     34500   272.99681     -36706.914      4489.0084    
     34600   315.39033     -36724.795      857.57279    
     34700   292.50915     -36701.581     -6073.6189    
     34800   300.14143     -36708.914      2266.3309    
     34900   295.15958     -36717.752      3033.1478    
     35000   286.01505     -36721.811     -425.24046    
     35100   299.7584      -36731.625     -3817.1589    
     35200   296.77782     -36704.046      3680.8545    
     35300   301.96679     -36698.075     -827.47605    
     35400   313.11541     -36704.076     -4523.4355    
     35500   299.68917     -36705.925      1297.8754    
     35600   275.54983     -36721.827      2268.9806    
     35700   289.28953     -36731.91       2598.8209    
     35800   304.53446     -36720.309     -4110.1928    
     35900   296.68361     -36702.342      6011.4377    
     36000   325.79099     -36724.528     -1517.626     
     36100   301.38841     -36709.927     -1211.0991    
     36200   288.10807     -36701.114     -4955.7666    
     36300   299.23735     -36703.93       2972.089     
     36400   292.22872     -36694.737     -869.89746    
     36500   279.27173     -36683.621      1720.0434    
     36600   325.65783     -36735.819     -1448.2142    
     36700   282.11351     -36722.875     -2487.179     
     36800   291.53743     -36722.329      3467.6578    
     36900   305.91494     -36712.112     -4827.0991    
     37000   309.30168     -36714.867      3871.916     
     37100   308.96271     -36712.725     -4225.3399    
     37200   297.49395     -36713.485      1937.7939    
     37300   273.01986     -36711.972     -8448.0726    
     37400   297.522       -36726.363      1020.9729    
     37500   303.98751     -36706.536     -489.52218    
     37600   315.68809     -36702.599     -1505.4342    
     37700   294.21116     -36685.88      -1727.6363    
     37800   301.77794     -36708.556     -4257.1023    
     37900   284.62444     -36719.796      6574.4929    
     38000   286.8655      -36715.021     -1561.1812    
     38100   310.34097     -36717.054     -2511.0531    
     38200   306.18578     -36696.494      2252.9692    
     38300   305.55836     -36707.78       8400.5278    
     38400   293.47701     -36701.014     -3102.8962    
     38500   293.30884     -36701.688      1239.8755    
     38600   289.97358     -36706.229     -1565.3944    
     38700   315.92407     -36715.745      2630.7691    
     38800   311.25191     -36692.349     -6331.0093    
     38900   349.20523     -36721.01       4385.6524    
     39000   286.83493     -36707.785      1258.8701    
     39100   285.32686     -36707.545      1546.4979    
     39200   301.93888     -36712.582     -8284.9572    
     39300   300.48551     -36703.585      9065.3335    
     39400   330.79115     -36704.688      1032.0121    
     39500   308.00194     -36696.048     -4884.5321    
     39600   291.50363     -36715.52       2348.24      
     39700   283.66655     -36708.423     -1712.201     
     39800   284.75046     -36699.386      3355.9763    
     39900   284.26768     -36679.311     -5009.3503    
     40000   334.90459     -36711.555      3453.7409    
     40100   279.76313     -36710.311     -2056.9264    
     40200   286.30471     -36717.53       2251.4447    
     40300   286.08464     -36705.004     -3834.636     
     40400   291.81504     -36694.306     -2295.0991    
     40500   327.64096     -36714.032     -452.78861    
     40600   286.46404     -36704.877     -2458.0951    
     40700   267.66346     -36708.356      2868.5678    
     40800   289.3186      -36719.758     -7340.3185    
     40900   316.30005     -36715.545      9306.9156    
     41000   281.71136     -36678.292      483.4226     
     41100   321.21011     -36710.116      4231.599     
     41200   308.74794     -36709.525     -2336.6919    
     41300   291.20185     -36708.249     -4685.8046    
     41400   299.72062     -36721.053      2434.5222    
     41500   282.00995     -36707.098     -4860.7187    
     41600   335.75955     -36711.194      652.28973    
     41700   326.06238     -36702.607      1632.6561    
     41800   310.18636     -36720.701      2590.903     
     41900   290.70949     -36712.313     -2365.5653    
     42000   299.63701     -36706.689     -1592.468     
     42100   331.28116     -36715.512      211.18294    
     42200   324.95469     -36719.035     -63.219503    
     42300   303.87806     -36711.182     -3386.7942    
     42400   277.04453     -36698.591      2048.7471    
     42500   304.33184     -36712.56       1605.75      
     42600   305.876       -36698.27      -5253.2378    
     42700   326.32925     -36694.637     -1528.5568    
     42800   314.293       -36694.515     -3689.8117    
     42900   296.98792     -36713.85       1309.295     
     43000   287.64091     -36711.347     -524.00172    
     43100   317.51389     -36723.288     -55.31186     
     43200   301.68906     -36700.808     -3543.2969    
     43300   324.71355     -36690.847      2685.3649    
     43400   292.3137      -36683.446      4988.0208    
     43500   307.58018     -36724.661     -3061.2195    
     43600   288.30673     -36718.544     -93.874542    
     43700   271.91712     -36707.856     -912.10144    
     43800   325.40928     -36718.571     -538.42521    
     43900   324.13407     -36709.521      3945.6206    
     44000   289.262       -36694.722     -1019.973     
     44100   285.91201     -36702.095      4297.2073    
     44200   284.20991     -36702.185     -6339.0475    
     44300   309.04771     -36724.674     -1024.3429    
     44400   303.80161     -36718.014     -1315.42      
     44500   281.36449     -36697.358      1453.503     
     44600   284.49606     -36690.805     -824.58889    
     44700   309.13671     -36697.687     -823.00794    
     44800   308.57707     -36684.29      -5236.2704    
     44900   292.52983     -36704.79       3360.7332    
     45000   280.52947     -36706.591      2301.0904    
     45100   313.57568     -36723.915     -1141.7428    
     45200   302.02118     -36705.059      2873.4441    
     45300   297.14421     -36679.125     -2468.0887    
     45400   343.02909     -36700.239      3726.6463    
     45500   304.39103     -36698.564     -1715.2143    
     45600   289.82445     -36704.669      3984.1355    
     45700   294.963       -36714.187      6758.5481    
     45800   312.3385      -36730.914     -8.9532016    
     45900   283.34844     -36693.94      -7076.5508    
     46000   332.61861     -36712.903      4804.2347    
     46100   305.72571     -36693.391      4613.2557    
     46200   277.74544     -36702.939     -4509.4253    
     46300   290.0744      -36717.118     -6048.7283    
     46400   305.60457     -36715.458      2391.1987    
     46500   295.21207     -36695.719      3899.133     
     46600   307.09524     -36697.083     -2912.733     
     46700   286.69515     -36718.872     -6280.5456    
     46800   295.25748     -36735.594      3974.202     
     46900   293.34929     -36715.746     -2032.553     
     47000   302.87554     -36704.206     -1177.1874    
     47100   297.15132     -36694.249     -2444.309     
     47200   286.0972      -36699.344      6516.7949    
     47300   297.26499     -36729.309     -1803.3671    
     47400   292.34729     -36739.257     -2073.8135    
     47500   286.43831     -36724.635     -1974.2764    
     47600   290.48011     -36711.697      3209.3804    
     47700   293.73003     -36697.399     -2082.9115    
     47800   310.84244     -36706.674     -858.57516    
     47900   291.89902     -36704.746      51.22981     
     48000   280.03291     -36726.296      2901.2584    
     48100   262.69304     -36709.927     -2239.9501    
     48200   309.20328     -36723.365     -5524.4685    
     48300   300.5783      -36710.608      4638.6514    
     48400   294.59089     -36696.413     -2567.2664    
     48500   303.32389     -36703.638      1255.2482    
     48600   300.29068     -36717.531     -2634.5225    
     48700   279.16543     -36731.679      4438.8326    
     48800   267.01934     -36714.484      2456.1239    
     48900   301.33029     -36713.046     -816.95982    
     49000   304.81901     -36707.606      1868.0967    
     49100   300.78666     -36707.457     -599.05925    
     49200   281.39818     -36703.985      2366.3865    
     49300   287.08115     -36725.168     -8623.9124    
     49400   271.27921     -36730.381      5001.8382    
     49500   286.56248     -36708.597      47.911712    
     49600   304.44713     -36710.945     -2993.0395    
     49700   287.95568     -36698.775     -356.85526    
     49800   298.15244     -36712.194     -3057.7867    
     49900   282.11956     -36711.1        3663.2703    
     50000   283.72031     -36709.659     -8824.4242    
     50100   301.49101     -36701.879      9403.0007    
     50200   321.43976     -36704.231      1026.0006    
     50300   301.15247     -36708.008      843.15878    
     50400   288.50985     -36710.337      2593.8671    
     50500   290.4449      -36710.408     -1505.2098    
     50600   314.3108      -36722.911      1943.3488    
     50700   306.52148     -36706.823     -8521.4611    
     50800   339.74642     -36707.717      3517.779     
     50900   325.97374     -36692.247      257.68586    
     51000   300.64712     -36701.841      3136.0235    
     51100   297.889       -36711.409     -8750.9925    
     51200   274.80098     -36701.156      2351.9257    
     51300   304.37982     -36714.429     -1453.0115    
     51400   322.7235      -36704.96      -3230.8322    
     51500   314.59957     -36696.639      323.14416    
     51600   290.31913     -36710.841     -497.4388     
     51700   289.45948     -36725.03       2567.5236    
     51800   287.74013     -36713.303     -3350.1623    
     51900   296.31657     -36697.983     -882.29161    
     52000   316.70202     -36706.871      3272.0146    
     52100   302.58192     -36706.489      1939.8187    
     52200   294.84827     -36706.009     -1365.2136    
     52300   292.55322     -36704.497     -1087.8024    
     52400   333.6271      -36727.309      212.39907    
     52500   312.68785     -36710.565     -1636.9367    
     52600   298.97053     -36704.068      830.19243    
     52700   301.23884     -36717.864     -3725.4205    
     52800   283.53229     -36716.487      4776.775     
     52900   301.51291     -36712.939     -784.38637    
     53000   330.98889     -36713.361      3023.0426    
     53100   294.89926     -36693.155     -372.68901    
     53200   305.12243     -36715.101     -4001.922     
     53300   270.58104     -36724.286     -337.2484     
     53400   272.12781     -36719.325     -542.18232    
     53500   311.4386      -36723.653      1899.4347    
     53600   271.00397     -36681.215     -4344.3915    
     53700   328.95353     -36722.261      5488.6447    
     53800   292.84192     -36706.183     -445.95949    
     53900   272.17378     -36712.977     -4913.0339    
     54000   279.44733     -36720.948     -4474.5518    
     54100   298.3947      -36706.002      3688.4517    
     54200   329.76327     -36719.077      5194.4949    
     54300   307.90898     -36715.33      -3667.5889    
     54400   281.07142     -36710.091     -3438.1985    
     54500   300.42394     -36713.447      943.53457    
     54600   332.23544     -36710.511      2734.6854    
     54700   318.18032     -36698.444     -3037.0285    
     54800   309.42921     -36705.832     -1849.642     
     54900   288.38829     -36704.473     -494.23517    
     55000   277.55291     -36704.266     -3605.2529    
     55100   290.13439     -36708.213      1520.4506    
     55200   314.77969     -36715.124     -2073.4458    
     55300   301.98899     -36703.278     -4336.872     
     55400   302.74631     -36703.062     -4041.7772    
     55500   293.25322     -36705.497      2624.5395    
     55600   291.79972     -36717.378      3935.127     
     55700   266.88923     -36704.842     -7600.1014    
     55800   313.47797     -36726.794      2839.8555    
     55900   322.66536     -36707.27      -5787.0735    
     56000   295.81639     -36688.324      4674.9591    
     56100   302.85844     -36705.499     -129.88369    
     56200   282.429       -36719.864      6381.3591    
     56300   293.33722     -36724.919     -5300.9312    
     56400   300.94256     -36717.407     -316.61141    
     56500   314.80742     -36717.274      8468.2016    
     56600   297.44997     -36693.545      4489.2675    
     56700   316.54371     -36707.768     -11163.924    
     56800   292.70884     -36700.868      2389.7136    
     56900   283.54125     -36703.646      4949.1145    
     57000   302.69629     -36717.248      1883.7147    
     57100   286.96064     -36703.285     -4860.322     
     57200   294.54478     -36686.048     -3847.2212    
     57300   334.6647      -36706.996      2593.4517    
     57400   309.61678     -36701.825      267.21962    
     57500   278.8745      -36703.473      1336.2579    
     57600   308.82765     -36724.838      2231.6338    
     57700   315.89839     -36724.345      8137.3883    
     57800   293.87119     -36695.493     -2278.6196    
     57900   319.33308     -36686.56      -7486.8327    
     58000   348.49051     -36701.589      1833.7652    
     58100   282.88571     -36693.66       4523.3782    
     58200   298.54228     -36711.506      4234.2398    
     58300   292.31624     -36711.946     -9077.582     
     58400   286.66637     -36711.173      5939.4092    
     58500   304.77849     -36705.541      489.92282    
     58600   322.53714     -36700.074     -6298.9812    
     58700   302.18538     -36702.035      3380.8714    
     58800   292.12104     -36716.536     -2085.2333    
     58900   306.55788     -36727.769      4044.3804    
     59000   277.33985     -36697.447     -5767.137     
     59100   306.18342     -36708.053      1480.3461    
     59200   319.21065     -36702.569     -1579.8808    
     59300   317.84311     -36686.965      4234.3173    
     59400   333.81912     -36698.449     -4212.7292    
     59500   298.54697     -36704.988     -2982.7403    
     59600   304.41415     -36720.95       8734.1287    
     59700   299.36146     -36713.381     -5484.7228    
     59800   303.31126     -36715.292      2883.8276    
     59900   294.00854     -36690.581      2545.5288    
     60000   325.87523     -36701.241      8597.1742    
     60100   309.63382     -36690.289     -8531.1855    
     60200   302.07883     -36713.548     -2360.3122    
     60300   306.14489     -36731.277      667.43619    
     60400   280.50912     -36713.842      2983.0055    
     60500   295.70235     -36701.986     -3099.8854    
     60600   295.86306     -36691.021     -6235.7313    
     60700   307.78561     -36701.076      1334.9656    
     60800   291.96076     -36703.142     -5631.2895    
     60900   286.35376     -36707.808      4421.0586    
     61000   290.74114     -36709.088     -7939.1093    
     61100   321.90713     -36711.351      2349.9926    
     61200   300.46751     -36679.39      -3188.206     
     61300   339.61413     -36725.95       4846.7379    
     61400   287.42198     -36710.214      4296.5585    
     61500   307.28174     -36722.455      1137.3549    
     61600   279.68927     -36697.221     -3671.132     
     61700   302.20724     -36696.52      -86.162564    
     61800   336.23158     -36703.02       7805.8761    
     61900   275.00684     -36679.76      -1496.7623    
     62000   306.0094      -36721.468     -2733.1476    
     62100   281.82934     -36715.669      2250.1724    
     62200   308.95209     -36731.531      607.39992    
     62300   295.40513     -36692.917     -1722.2903    
     62400   322.56006     -36701.217      1778.1881    
     62500   305.48157     -36706.802     -4388.4325    
     62600   297.45119     -36708.831     -1590.2408    
     62700   308.91877     -36726.683      5558.2218    
     62800   287.53633     -36716.18       1898.2064    
     62900   270.82907     -36711.301     -4104.7706    
     63000   289.87558     -36709.321     -4963.7362    
     63100   317.03023     -36709.577      4260.4159    
     63200   309.93907     -36701.397     -3046.9574    
     63300   290.13621     -36701.838     -4008.0532    
     63400   309.92453     -36739.605     -2287.3903    
     63500   275.57896     -36715.073      3233.0836    
     63600   314.59336     -36727.961     -6251.3576    
     63700   288.05055     -36703.434     -3083.7435    
     63800   297.27587     -36702.769      5223.5189    
     63900   302.59357     -36692.891      4358.6093    
     64000   312.56684     -36679.769     -1727.5739    
     64100   318.96936     -36695.188      6684.8532    
     64200   286.27461     -36701.456      1312.4988    
     64300   296.00678     -36714.667      1845.807     
     64400   295.05921     -36697.452     -6985.1312    
     64500   305.87961     -36704.443      12105.924    
     64600   323.61266     -36708.948     -2350.7281    
     64700   302.63633     -36705.036     -1930.7657    
     64800   311.81974     -36725.876     -2878.3729    
     64900   291.2495      -36720.034      2719.7173    
     65000   300.53964     -36724.246      6316.0401    
     65100   289.05347     -36685.897     -12959.858    
     65200   331.91098     -36704.422     -1923.1979    
     65300   310.80149     -36703.772      2704.488     
     65400   289.58363     -36706.079      4352.7506    
     65500   306.1714      -36718.159     -4258.6233    
     65600   273.14876     -36696.296     -4939.3112    
     65700   284.97048     -36698.87       5199.2898    
     65800   328.08327     -36699.964     -1322.5085    
     65900   345.19092     -36702.901      497.02092    
     66000   296.21942     -36694.227     -3567.8464    
     66100   310.67758     -36714.385      5576.9234    
     66200   304.31733     -36709.08      -2741.2327    
     66300   320.09457     -36721.596      2506.8707    
     66400   289.11572     -36712.965     -1200.7347    
     66500   296.75729     -36734.678     -2637.8638    
     66600   286.09489     -36716.807     -767.27327    
     66700   299.00378     -36700.772     -2177.1911    
     66800   334.02961     -36727.624      1462.0151    
     66900   296.41695     -36719.395      6291.8822    
     67000   276.14979     -36708.315     -4033.3797    
     67100   304.79729     -36717.715      104.40101    
     67200   302.59384     -36689.599     -5670.7874    
     67300   303.28887     -36701.84       8251.9953    
     67400   305.47388     -36716.236     -6279.1505    
     67500   280.14848     -36702.063      2201.345     
     67600   305.40711     -36714.2        2358.1751    
     67700   309.13713     -36713.222     -2361.2416    
     67800   311.47977     -36716.07      -2341.023     
     67900   297.48899     -36709.394     -3513.445     
     68000   297.69953     -36703.57       7799.2431    
     68100   311.84421     -36703.196     -4061.2562    
     68200   291.05493     -36710.022      2028.8094    
     68300   270.91114     -36716.817     -6782.7783    
     68400   290.96712     -36726.48       8473.058     
     68500   285.07758     -36702.272     -5897.9003    
     68600   323.4464      -36724.896      3753.3973    
     68700   292.38979     -36702.787     -6230.9211    
     68800   292.0247      -36712.789      7679.3786    
     68900   287.97262     -36721.08      -4989.2098    
     69000   284.89173     -36723.152     -2423.6073    
     69100   293.50149     -36714.864     -841.94964    
     69200   298.80114     -36692.933      28.029559    
     69300   330.74063     -36716.124     -3946.0654    
     69400   297.05368     -36712.335      3225.2518    
     69500   287.9653      -36713.776      1390.0682    
     69600   285.23594     -36705.874     -2432.838     
     69700   290.41896     -36704.799     -2521.5426    
     69800   295.87595     -36704.442      1486.9515    
     69900   291.9665      -36703.728      1919.0921    
     70000   295.84093     -36707.904      539.74218    
     70100   282.02317     -36717.986     -4837.5163    
     70200   282.28631     -36729.386      1718.1515    
     70300   298.56364     -36715.141     -5890.9948    
     70400   288.44813     -36693.107     -1427.1632    
     70500   319.35384     -36715.917      2192.4452    
     70600   297.40825     -36709.354      3846.3277    
     70700   276.46651     -36720.82      -5408.4253    
     70800   281.11179     -36720.335     -5282.4498    
     70900   295.89194     -36717.251     -744.04313    
     71000   294.29548     -36707.634      276.32492    
     71100   332.66192     -36727.429      1289.8602    
     71200   290.30134     -36694.555     -3062.963     
     71300   290.21998     -36702.343      1309.9863    
     71400   295.84134     -36721.61      -3917.583     
     71500   285.0907      -36721.815     -1456.6417    
     71600   298.72691     -36714.013      3357.3539    
     71700   287.05931     -36688.743      3871.5937    
     71800   302.77367     -36701.963     -1506.3136    
     71900   304.94391     -36714.756     -2875.8442    
     72000   300.58984     -36722.997      146.08812    
     72100   285.92886     -36734.583      2809.8822    
     72200   288.55351     -36745.325     -4014.1777    
     72300   280.93777     -36716.648      683.542      
     72400   293.42399     -36709.603      6495.1826    
     72500   283.5189      -36695.46       3207.475     
     72600   310.78351     -36702.151     -8197.5362    
     72700   325.97896     -36719.091      4093.0897    
     72800   285.21644     -36715.294     -496.51239    
     72900   284.11206     -36714.562      1431.278     
     73000   305.7525      -36714.834     -3750.71      
     73100   308.03587     -36717.579      2694.007     
     73200   278.82398     -36695.345      2726.7825    
     73300   300.7048      -36706.016     -3893.7845    
     73400   298.37743     -36701.748      774.88885    
     73500   287.68886     -36684.243     -4146.6564    
     73600   323.96013     -36716.873      4817.5785    
     73700   296.44804     -36713.902     -4385.0276    
     73800   279.3851      -36719.366      5665.6914    
     73900   289.67564     -36709.723     -3698.3209    
     74000   312.88853     -36707.415      2988.1372    
     74100   300.77922     -36695.055      675.84623    
     74200   309.24081     -36707.841      1356.0853    
     74300   290.80306     -36706.116     -3876.0182    
     74400   289.96472     -36728.281      1651.0151    
     74500   278.30819     -36723.581      2340.3504    
     74600   311.5281      -36705.935     -1360.7594    
     74700   301.09548     -36695.891     -1094.327     
     74800   296.69691     -36702.42      -2885.6379    
     74900   289.36723     -36714.045      6710.6308    
     75000   300.12244     -36718.762     -2343.8626    
     75100   312.39002     -36712.109      2598.1911    
     75200   322.40443     -36696.206     -4018.4846    
     75300   295.31636     -36677.757      4705.4524    
     75400   286.09683     -36705.267     -2372.8744    
     75500   303.08213     -36726.116      4360.0815    
     75600   302.949       -36722.924     -2114.1204    
     75700   308.93791     -36723.468      2379.0807    
     75800   306.60524     -36696.379     -4250.9602    
     75900   314.83538     -36688.578      425.17131    
     76000   296.97838     -36688.059     -5307.8805    
     76100   312.58874     -36714.376     -1211.5269    
     76200   293.59581     -36709.512      3388.255     
     76300   291.4948      -36713.716     -41.273956    
     76400   296.8386      -36716.987      3153.6886    
     76500   283.86562     -36699.454     -1254.6421    
     76600   317.72273     -36706.283      1929.6126    
     76700   308.37898     -36690.711     -6462.9314    
     76800   304.61818     -36706.407     -3323.5683    
     76900   308.18696     -36733.808     -2446.3535    
     77000   303.64419     -36729.957      4487.8202    
     77100   296.31837     -36711.142     -1739.973     
     77200   300.80012     -36705.936      1631.9918    
     77300   300.74079     -36704.005     -690.32704    
     77400   280.05147     -36700.77      -1187.1841    
     77500   282.36926     -36724.927     -2435.5059    
     77600   266.25252     -36705.177     -2179.5295    
     77700   304.96257     -36711.755      3024.9538    
     77800   306.40542     -36706.201     -1494.5292    
     77900   304.31483     -36718.611     -3775.4873    
     78000   276.67461     -36716.585      4287.6236    
     78100   294.60246     -36715.698      3530.6798    
     78200   295.86134     -36699.247     -6031.6505    
     78300   295.98328     -36699.482      1975.743     
     78400   310.31878     -36719.927      738.87191    
     78500   274.63458     -36708.594     -2611.7691    
     78600   296.86414     -36719.787     -2604.0715    
     78700   307.53257     -36701.373     -749.03717    
     78800   320.54626     -36704.647      4094.9948    
     78900   332.53828     -36727.724     -3805.7215    
     79000   290.68945     -36708.222      910.392      
     79100   291.07509     -36711.949      357.35949    
     79200   305.36198     -36713.158      3023.5332    
     79300   328.55479     -36695.538     -6360.2002    
     79400   335.07652     -36707.036     -2101.7113    
     79500   313.03685     -36711.527     -562.6461     
     79600   308.71958     -36714.415      741.31818    
     79700   302.14109     -36718.802     -8702.3069    
     79800   289.98747     -36715.976      2272.3935    
     79900   300.0474      -36704.005     -627.80464    
     80000   314.24428     -36697.832      396.25354    
     80100   301.76638     -36693.398      846.69217    
     80200   297.12885     -36725.383      604.07841    
     80300   274.90361     -36713.685      3.2089065    
     80400   286.71775     -36706.384     -4284.4418    
     80500   299.24599     -36702.246      948.45523    
     80600   313.38158     -36711.783      2887.5569    
     80700   314.35595     -36718.424      5834.3556    
     80800   267.76406     -36701.526     -8957.882     
     80900   266.47228     -36721.852      2130.3362    
     81000   280.41095     -36717.924      4898.6516    
     81100   299.18911     -36712.118     -93.131761    
     81200   295.76656     -36702.565     -4455.8753    
     81300   306.57958     -36717.834      4091.2303    
     81400   303.19973     -36711.737     -1647.6932    
     81500   308.40317     -36706.041      152.35867    
     81600   310.20555     -36704.147     -1488.6164    
     81700   298.66946     -36711.246      4118.5515    
     81800   285.8045      -36717.965     -2682.2275    
     81900   274.51502     -36713.57      -4056.111     
     82000   312.29296     -36714.096      4778.9714    
     82100   323.70163     -36708.812      634.59732    
     82200   298.46388     -36696.962      535.26649    
     82300   293.89405     -36709.575     -9652.8348    
     82400   283.89252     -36721.589      3447.2894    
     82500   303.14502     -36726.364      515.7182     
     82600   294.87701     -36714.443      752.36487    
     82700   310.72193     -36716.048     -220.40307    
     82800   286.72293     -36690.719      4109.675     
     82900   304.24226     -36699.166      1432.8819    
     83000   313.17323     -36712.057     -6450.8049    
     83100   287.33353     -36703.018      4615.6773    
     83200   293.77012     -36714.953     -3296.1735    
     83300   274.99372     -36708.973      5608.351     
     83400   293.40476     -36702.469     -3989.3881    
     83500   308.79697     -36699.905      2320.1231    
     83600   327.16682     -36713.354     -6733.7432    
     83700   291.86669     -36716.571      1774.8417    
     83800   275.25859     -36710.719     -4811.5786    
     83900   301.30005     -36726.991     -2869.2997    
     84000   297.50675     -36718.996      4538.6118    
     84100   309.72963     -36713.703     -5066.2772    
     84200   327.53894     -36711.568     -169.25895    
     84300   296.80514     -36694.639     -3074.9812    
     84400   273.48702     -36709.836      4761.9801    
     84500   269.32933     -36713.769     -4219.3715    
     84600   287.45079     -36714.714      3931.1577    
     84700   303.99701     -36708.042     -2730.0803    
     84800   312.10676     -36703.056      3447.3986    
     84900   302.67372     -36701.057     -6951.2437    
     85000   293.77289     -36711.245      2400.1404    
     85100   296.78351     -36728.83      -2416.4487    
     85200   258.23023     -36731.329      6754.2932    
     85300   283.33037     -36726.862     -4234.5577    
     85400   295.10276     -36716.965      769.41784    
     85500   303.68985     -36708.148      6553.2008    
     85600   309.22317     -36700.658     -4070.2434    
     85700   316.1925      -36717.596      369.6414     
     85800   269.37826     -36712.343     -4900.0483    
     85900   294.62197     -36730.148      10277.555    
     86000   289.57928     -36712.872     -7234.5678    
     86100   304.13077     -36716.709      1750.0323    
     86200   289.49628     -36703.649     -3179.6283    
     86300   309.88046     -36704.115      7664.3241    
     86400   324.96687     -36685.904     -12899.359    
     86500   319.2301      -36695.965      3256.3394    
     86600   301.88012     -36717.28       748.23591    
     86700   293.6629      -36719.07      -153.9654     
     86800   285.48691     -36707.657     -3874.4492    
     86900   309.64006     -36713.835     -4213.405     
     87000   311.77338     -36700.523      1864.3084    
     87100   314.70459     -36691.987     -891.70193    
     87200   303.04575     -36701.27      -3223.9126    
     87300   275.47136     -36706.409     -698.09003    
     87400   293.45511     -36711.139      2978.3944    
     87500   285.25889     -36697.674      1758.8824    
     87600   323.90149     -36706.955      1747.8068    
     87700   319.52479     -36693.59      -218.831      
     87800   294.96641     -36698.57      -3884.5669    
     87900   286.24746     -36709.757     -1298.3355    
     88000   309.23994     -36725.34       2876.5108    
     88100   293.67689     -36711.711      3882.8474    
     88200   307.72685     -36705.991     -236.76154    
     88300   337.01893     -36705.068     -2788.3534    
     88400   307.98396     -36697.244      1099.6269    
     88500   287.12419     -36701.847      6348.1911    
     88600   308.79387     -36714.49      -10078.411    
     88700   305.57658     -36719.909      2604.2497    
     88800   283.09012     -36718.776      1705.9657    
     88900   289.18687     -36719.743      3254.5748    
     89000   295.18996     -36694.171     -7694.2188    
     89100   323.57061     -36705.245      498.36424    
     89200   306.43927     -36701.816      544.10509    
     89300   314.47233     -36726.963      5909.976     
     89400   302.07365     -36729.277     -1007.8083    
     89500   287.22303     -36736.477      2055.2561    
     89600   261.91684     -36729.846     -2451.1579    
     89700   268.65753     -36716.734     -1783.9635    
     89800   305.63318     -36718.274      2583.3121    
     89900   314.35541     -36707.279     -1301.3824    
     90000   306.19006     -36702.054      1718.3074    
     90100   296.20101     -36707.846     -4135.5101    
     90200   289.57199     -36723.882      4349.718     
     90300   282.03915     -36707.66      -290.60411    
     90400   314.64261     -36714.943      2818.8278    
     90500   299.97762     -36703.85      -3157.4864    
     90600   297.28648     -36700.26       2617.328     
     90700   288.27338     -36700.451      2317.2082    
     90800   305.85811     -36721.992     -127.7523     
     90900   296.68287     -36729.792     -1649.4271    
     91000   263.91677     -36715.311      873.94105    
     91100   298.87375     -36726.504      3153.4236    
     91200   304.93177     -36703.489     -6853.0816    
     91300   307.99895     -36700.229      13146.594    
     91400   292.65392     -36703.94      -5783.8273    
     91500   305.64446     -36727.061      1253.2854    
     91600   291.56396     -36716.675     -1216.6988    
     91700   308.5282      -36721.522     -528.26424    
     91800   290.80326     -36708.173      1952.7505    
     91900   301.21211     -36716.341     -2424.8192    
     92000   294.70267     -36704.557      1490.7095    
     92100   314.66289     -36691.735     -3064.6192    
     92200   344.0023      -36711.425      3844.6404    
     92300   314.79791     -36715.179     -5996.9392    
     92400   295.9343      -36714.89       2781.2883    
     92500   296.4813      -36715.264     -3591.3005    
     92600   309.71658     -36714.168      2032.1115    
     92700   318.60997     -36704.713      3195.2187    
     92800   325.73287     -36700.092      2713.3843    
     92900   298.16145     -36702.304     -1265.6988    
     93000   285.39749     -36711.574      234.99008    
     93100   287.62654     -36712.911      314.83495    
     93200   316.73218     -36713.706     -3160.8912    
     93300   288.50852     -36692.766      10415.652    
     93400   326.49238     -36722.329     -5558.257     
     93500   285.31174     -36717.019      5187.4044    
     93600   289.75665     -36725.491     -4432.226     
     93700   307.09398     -36719.284      2438.1174    
     93800   286.78687     -36687.309      762.15198    
     93900   290.57597     -36694.317     -1385.2249    
     94000   296.60698     -36704.969     -1212.5786    
     94100   295.65431     -36711.082     -3182.0036    
     94200   258.83443     -36709.279      15.256833    
     94300   266.98843     -36721.256     -6215.3808    
     94400   293.73171     -36720.329      5752.8442    
     94500   312.19437     -36717.456     -4555.8925    
     94600   306.84071     -36712.477     -682.44502    
     94700   302.19586     -36707.071     -7453.4093    
     94800   306.41741     -36690.206      2443.6752    
     94900   318.84881     -36690.977     -4689.3392    
     95000   310.55776     -36717.223      336.27531    
     95100   314.10564     -36730.176     -697.95175    
     95200   282.99739     -36707.381     -3864.2255    
     95300   307.22354     -36711.469      13527.167    
     95400   308.17388     -36691.085     -11830.284    
     95500   297.40191     -36694.203      3779.4844    
     95600   296.6197      -36731.018      1431.4521    
     95700   284.7887      -36724.716      4906.4978    
     95800   299.57696     -36714.452     -9587.3819    
     95900   288.01055     -36699.659      3229.4745    
     96000   310.99704     -36712.092      10618.451    
     96100   270.30131     -36697.164     -3767.1337    
     96200   289.09919     -36727.227     -4708.9831    
     96300   300.32147     -36724.974     -3863.6184    
     96400   315.07992     -36711.848      4772.7468    
     96500   321.85449     -36712.766     -2490.086     
     96600   312.37114     -36717.241     -4531.8381    
     96700   310.76579     -36725.501     -2.7956971    
     96800   278.3587      -36714.548     -3052.9324    
     96900   284.94535     -36724.098      1019.2163    
     97000   313.10139     -36723.926     -729.21756    
     97100   309.03982     -36702.73       5687.4219    
     97200   309.96285     -36698.616     -4645.4009    
     97300   288.36038     -36702.744     -4266.2445    
     97400   286.67498     -36713.499      2385.7795    
     97500   293.62227     -36710.592     -313.83892    
     97600   299.49762     -36698.575      2830.5566    
     97700   323.0964      -36704.715     -5884.914     
     97800   326.94286     -36729.661      8362.793     
     97900   272.52253     -36715.013      1777.5271    
     98000   277.40708     -36710.74      -3195.5998    
     98100   304.43449     -36703.716     -1854.834     
     98200   315.99914     -36705.334     -2924.5957    
     98300   305.86986     -36703.177      1650.7801    
     98400   297.81309     -36716.154     -5593.0722    
     98500   279.50435     -36728.199      4506.9216    
     98600   297.03972     -36740.025      174.28838    
     98700   281.79602     -36715.568     -1157.7935    
     98800   282.7991      -36703.064     -2700.839     
     98900   294.20856     -36698.272      2554.4414    
     99000   304.98572     -36705.698      2953.5125    
     99100   308.31492     -36720.521     -4334.0746    
     99200   276.66099     -36728.073     -657.58456    
     99300   290.49448     -36734.332     -1085.5343    
     99400   297.37773     -36724.03       566.4948     
     99500   306.35654     -36716.384      2104.7623    
     99600   299.98603     -36701.101     -2244.4952    
     99700   330.97416     -36720.438      2377.9188    
     99800   291.33371     -36717.578      2076.6755    
     99900   271.50101     -36718.47      -5614.1511    
    100000   296.12415     -36724.741      2673.8002    
    100100   315.6301      -36720.091     -4322.5227    
    100200   296.18465     -36701.765      8680.9734    
    100300   294.18752     -36698.362     -6061.0966    
    100400   312.69578     -36725.34       4974.4677    
    100500   285.60826     -36736.586      98.765884    
    100600   252.73862     -36715.18      -1571.6511    
    100700   291.12539     -36725.063      988.35094    
    100800   300.68185     -36715.707     -5608.0077    
    100900   279.47117     -36691.162      5433.4109    
    101000   311.34603     -36697.358     -8585.012     
    101100   314.55527     -36704.359      7617.0366    
    101200   298.28426     -36715.362     -7346.0698    
    101300   267.81449     -36710.83       8062.9749    
    101400   280.20513     -36708.844     -2159.2067    
    101500   296.99912     -36701.292     -1745.425     
    101600   310.12481     -36695.575     -308.81185    
    101700   321.96773     -36704.279     -2642.6344    
    101800   312.88665     -36716.737      9640.3951    
    101900   304.63195     -36719.811     -1896.8772    
    102000   287.03549     -36715.953      5606.783     
    102100   296.91599     -36698.692     -7254.4994    
    102200   326.32207     -36699.727     -291.3318     
    102300   320.11541     -36707.125      4716.9947    
    102400   301.70233     -36710.79      -4423.523     
    102500   303.10165     -36716.96      -308.91531    
    102600   305.67082     -36713.609     -2792.4551    
    102700   302.71756     -36710.586      2310.7589    
    102800   325.25106     -36705.477     -1426.7069    
    102900   315.61188     -36683.743     -7409.7865    
    103000   316.02843     -36706.989     -548.20788    
    103100   276.12062     -36701.008      4549.8279    
    103200   303.03707     -36720.268      5876.6517    
    103300   300.19822     -36708.189     -6163.2299    
    103400   323.165       -36711.683      7681.5592    
    103500   324.24785     -36689.973     -2699.0871    
    103600   291.49412     -36692.791     -1080.319     
    103700   299.37169     -36715.728      2768.0923    
    103800   285.81103     -36709.812      1292.3566    
    103900   301.24164     -36706.661     -634.69769    
    104000   334.02711     -36715.369     -496.24363    
    104100   302.21235     -36705.101      3694.3675    
    104200   288.17071     -36721.824     -675.50633    
    104300   287.50162     -36721.903     -4175.1696    
    104400   289.87859     -36707.557      981.47361    
    104500   296.27093     -36706.54      -2140.6635    
    104600   284.24928     -36694.962      1841.9682    
    104700   316.0117      -36713.976     -492.17527    
    104800   305.79995     -36700.318      530.57906    
    104900   305.44071     -36703.185     -2801.1331    
    105000   288.97009     -36702.6       -519.20877    
    105100   302.26593     -36719.725      849.35772    
    105200   285.45534     -36725.429      3454.457     
    105300   295.89702     -36734.539     -3847.3673    
    105400   298.96261     -36704.272     -2783.1098    
    105500   306.00253     -36701.844      5452.6492    
    105600   291.4516      -36695.597     -2974.1344    
    105700   292.95806     -36706.88       2476.5797    
    105800   289.69086     -36728.304      1399.2691    
    105900   286.56713     -36735.972      5369.6431    
    106000   271.43079     -36710.615     -5765.2654    
    106100   309.84496     -36708.86       947.57016    
    106200   307.75726     -36700.886      1558.9205    
    106300   316.15449     -36703.914      2186.065     
    106400   286.06932     -36700.531     -2200.4211    
    106500   278.71743     -36717.083      5430.5392    
    106600   281.9961      -36714.905      1284.9484    
    106700   298.76517     -36714.675     -3951.9093    
    106800   288.77678     -36697.197     -4208.2752    
    106900   285.44428     -36697.889      839.91938    
    107000   300.5464      -36705.32       6466.7859    
    107100   316.96703     -36714.077     -6650.8888    
    107200   300.77972     -36727.507      5626.7912    
    107300   286.81452     -36726.308      670.98283    
    107400   297.37696     -36721.691      1045.392     
    107500   295.04672     -36696.202     -1697.7036    
    107600   334.29457     -36726.205      1269.4939    
    107700   285.83999     -36695.268      2930.1595    
    107800   297.76292     -36713.316     -3877.25      
    107900   277.91213     -36719.433      1774.1369    
    108000   288.63265     -36721.699      671.65643    
    108100   329.43072     -36718.338      4295.3193    
    108200   315.28359     -36703.557     -5618.0649    
    108300   308.43949     -36714.323      4952.3854    
    108400   269.06434     -36704.265     -3950.5828    
    108500   284.30526     -36717.251     -1707.4839    
    108600   306.51905     -36714.859     -7495.087     
    108700   315.81587     -36695.665      3949.156     
    108800   316.70245     -36703.335      4849.0766    
    108900   308.45515     -36716.598     -2122.2043    
    109000   310.82544     -36724.667     -2268.6983    
    109100   322.12514     -36731.299      333.30549    
    109200   290.81604     -36710.087      4732.7658    
    109300   303.95229     -36710.797     -2567.0843    
    109400   306.06301     -36710.59       248.56555    
    109500   310.40251     -36708.369     -2858.9413    
    109600   298.75707     -36683.478      1779.9497    
    109700   301.05699     -36694.082     -1257.7308    
    109800   312.28768     -36727.716      3641.0406    
    109900   276.59319     -36707.839      2496.9065    
    110000   291.69437     -36711.522     -6653.7264    
    110100   303.23383     -36719.551      4009.4355    
    110200   302.51458     -36710.346     -4510.584     
    110300   300.21939     -36688.477      3531.9958    
    110400   312.56391     -36694.704     -10359.769    
    110500   293.96119     -36710.157      10539.831    
    110600   286.28427     -36707.321     -6229.6482    
    110700   305.18912     -36721.863      7670.1862    
    110800   307.12277     -36707.972     -6623.5948    
    110900   326.56719     -36695.605      4764.7773    
    111000   312.03362     -36692.974     -2113.3866    
    111100   299.96998     -36705.685     -2598.4087    
    111200   298.84265     -36716.377      5499.9163    
    111300   302.42662     -36725.217     -581.75851    
    111400   266.20551     -36708.284      2934.5694    
    111500   294.72749     -36710.763     -6953.9734    
    111600   324.64265     -36709.931      7322.0191    
    111700   295.39128     -36687.291     -3663.5256    
    111800   307.60993     -36714.617      1451.7683    
    111900   297.01367     -36726.468     -1894.3502    
    112000   301.05422     -36730.554      6847.0953    
    112100   292.01216     -36713.329     -4316.8846    
    112200   315.21491     -36722.636     -3633.6223    
    112300   312.26712     -36712.234      7506.425     
    112400   305.98672     -36696.539     -4719.9451    
    112500   324.99777     -36703.158      2677.7473    
    112600   303.59894     -36705.262     -9689.8554    
    112700   295.65117     -36718.837      9314.5751    
    112800   297.47021     -36718.454     -7090.288     
    112900   319.43227     -36719.935      3334.7139    
    113000   329.03363     -36699.64      -852.23476    
    113100   311.48074     -36694.616      6905.7927    
    113200   294.69688     -36700.393     -4218.4436    
    113300   299.78024     -36707.862     -4784.2296    
    113400   311.11543     -36719.373      5047.3072    
    113500   304.2879      -36710.726      60.775256    
    113600   293.35535     -36722.97      -420.84128    
    113700   247.02277     -36710.823     -9658.5043    
    113800   289.87551     -36725.782      9934.5524    
    113900   284.0872      -36701.873     -7192.4507    
    114000   302.63294     -36704.772     -199.71942    
    114100   308.48361     -36697.908     -11220.622    
    114200   324.87242     -36722.811      10034.554    
    114300   274.56712     -36713.825     -2408.2361    
    114400   279.72109     -36719.728      1924.3698    
    114500   299.55621     -36713.797     -244.58048    
    114600   304.07628     -36706.159      5321.9225    
    114700   328.64864     -36719.786      2034.9415    
    114800   295.8734      -36704.093     -10891.545    
    114900   296.46684     -36725.568      14457.364    
    115000   264.78616     -36723.394     -4175.2938    
    115100   258.07939     -36728.529      8454.9284    
    115200   293.11139     -36717.635     -8632.2831    
    115300   279.02381     -36697.317      4736.6201    
    115400   313.89162     -36713.44       2075.0715    
    115500   305.09286     -36701.94       458.76475    
    115600   335.73902     -36722.198     -1561.7684    
    115700   281.0957      -36700.614     -1552.4317    
    115800   283.59872     -36723.997      10792.021    
    115900   287.83553     -36712.759     -7086.9177    
    116000   317.53541     -36716.153      1021.7205    
    116100   297.20163     -36700.492     -2892.8602    
    116200   300.69434     -36704.193      9181.2442    
    116300   292.03369     -36701.15      -1144.2709    
    116400   287.73669     -36711.921     -2756.6       
    116500   275.59471     -36718.538     -1840.2143    
    116600   283.93242     -36717.487      4954.0569    
    116700   300.82938     -36698.105     -761.52829    
    116800   317.41585     -36708.992     -1774.6516    
    116900   288.8084      -36702.703      3710.915     
    117000   270.82304     -36705.449      157.30968    
    117100   292.9532      -36721.373     -1439.677     
    117200   301.02236     -36697.036     -5539.3829    
    117300   336.02808     -36713.352      1617.3801    
    117400   297.9666      -36708.171      5673.0128    
    117500   309.13852     -36722.205     -4149.4677    
    117600   288.05398     -36718.694     -5636.2675    
    117700   269.45826     -36731.005      1362.4128    
    117800   285.91978     -36749.179      2259.0418    
    117900   264.49641     -36702.159     -1088.4269    
    118000   311.4274      -36719.193     -890.50674    
    118100   291.64912     -36702.854      4827.8747    
    118200   303.80096     -36712.265      542.00345    
    118300   293.166       -36705.878     -2428.6356    
    118400   269.5448      -36694.346      2804.185     
    118500   308.79406     -36724.397      2145.1256    
    118600   321.16796     -36721.057     -2243.4417    
    118700   296.56042     -36699.461     -304.98247    
    118800   308.49368     -36707.602     -2625.3707    
    118900   299.62679     -36713.812      2228.4233    
    119000   285.38526     -36707.206     -2448.6055    
    119100   295.56695     -36704.227     -5098.4851    
    119200   319.59675     -36718.68       3160.331     
    119300   276.27683     -36699.993      3973.1017    
    119400   330.49874     -36724.928      3197.0087    
    119500   313.25214     -36704.598     -5941.103     
    119600   314.57943     -36710.532      4058.9759    
    119700   286.39156     -36699.325     -5225.341     
    119800   289.36367     -36717.631      4935.8102    
    119900   295.03954     -36730.876      815.548      
    120000   280.0856      -36723.317      1620.013     
    120100   280.59616     -36692.892     -2744.3635    
    120200   313.29297     -36702.732     -395.81858    
    120300   302.22749     -36701.033      611.03057    
    120400   299.49298     -36715.055     -2771.2307    
    120500   303.17066     -36736.684      905.47326    
    120600   274.979       -36712.255     -324.27901    
    120700   341.98178     -36720.989     -2808.6515    
    120800   310.71369     -36704.076      260.47       
    120900   297.25742     -36713.54       470.54893    
    121000   289.38554     -36710.47      -4250.8467    
    121100   306.4603      -36721.553     -4027.586     
    121200   296.73394     -36720.372      4783.5881    
    121300   283.8406      -36710.971      549.31888    
    121400   317.24844     -36713.539     -2087.2741    
    121500   304.36508     -36691.334     -9148.3349    
    121600   299.32496     -36704.043      5920.1499    
    121700   290.07446     -36717.371      1618.6257    
    121800   286.71903     -36722.951     -1567.806     
    121900   294.68485     -36722.016     -866.59448    
    122000   301.20743     -36721.113      3214.8255    
    122100   281.79083     -36696.42       354.48876    
    122200   303.42821     -36691.873     -5630.7586    
    122300   322.99456     -36696.092      3478.2389    
    122400   297.09196     -36700.625      2508.2871    
    122500   276.69888     -36705.684      1380.4399    
    122600   293.17487     -36706.905     -5923.0014    
    122700   342.38035     -36729.923      5186.5618    
    122800   303.55894     -36704.703     -2455.2483    
    122900   282.28291     -36712.747     -705.0932     
    123000   306.18933     -36738.72      -4333.9107    
    123100   287.30198     -36720.004      5558.0093    
    123200   304.13721     -36709.305      3812.7957    
    123300   299.17622     -36706.145     -1218.0439    
    123400   298.79683     -36716.095      2230.0194    
    123500   296.10647     -36730.458     -2045.0108    
    123600   276.28736     -36722.687      5496.7998    
    123700   289.37395     -36699.234     -5590.086     
    123800   292.24136     -36688.447     -629.74133    
    123900   315.6801      -36705.622      754.57083    
    124000   301.54298     -36716.153      1969.3572    
    124100   280.52074     -36716.795      125.27669    
    124200   290.2033      -36724.409      3600.0594    
    124300   287.00646     -36709.903     -41.642992    
    124400   305.47252     -36710.875      516.76056    
    124500   301.1779      -36701.683      207.56073    
    124600   283.36745     -36686.725      1114.4265    
    124700   305.19659     -36711.306     -1836.0501    
    124800   281.36249     -36726.553      1093.5925    
    124900   274.36012     -36724.335     -3320.4117    
    125000   284.79307     -36710.309      1146.9229    
    125100   284.68882     -36694.974     -2793.2148    
    125200   305.21694     -36706.087      34.14851     
    125300   284.90558     -36708.966      3817.255     
    125400   280.41715     -36720.156     -405.90697    
[...]
    169200   278.49679     -36720.965      4356.8874    
    169300   311.87308     -36717.021      1832.4207    
    169400   305.25169     -36708.359     -2653.6816    
    169500   297.75172     -36705.758     -3613.0901    
    169600   328.97753     -36740.773      6485.222     
    169700   270.88131     -36711.098      1722.2633    
    169800   267.99003     -36713.35      -4416.0291    
    169900   306.57284     -36718.534     -359.36875    
    170000   325.64769     -36714.671      5338.1548    
    170100   310.26771     -36703.245     -4031.4405    
    170200   303.62949     -36715.014      6037.8686    
    170300   277.85982     -36722.16       2570.7708    
    170400   282.24691     -36722.533     -4570.4631    
    170500   307.66602     -36725.494      1502.4328    
    170600   315.52775     -36718.205     -2950.3939    
    170700   311.45766     -36708.796      1768.0685    
    170800   312.19427     -36708.079      5337.7569    
    170900   297.96774     -36712.506     -2908.6489    
    171000   284.20974     -36720.833     -3061.2101    
    171100   285.53101     -36715.197      4126.2193    
    171200   299.84948     -36702.105      2331.1341    
    171300   297.98326     -36700.206     -2970.5498    
    171400   283.14564     -36698.365      6699.6323    
    171500   304.58241     -36712.755      9028.8636    
    171600   290.53198     -36707.886     -4783.6907    
    171700   299.19016     -36727.251     -528.74952    
    171800   306.01452     -36732.861      4747.1037    
    171900   270.99771     -36686.077     -3764.4933    
    172000   315.03808     -36701.409     -1853.2971    
    172100   293.17674     -36694.452      2989.5203    
    172200   294.65803     -36707.397      5005.3458    
    172300   294.67467     -36712.74      -6374.1443    
    172400   280.30142     -36704.522     -2035.4365    
    172500   308.37147     -36713.475      7187.5869    
    172600   301.17243     -36694.723      1919.8716    
    172700   308.11927     -36698.125     -3183.7604    
    172800   290.9134      -36717.376      2490.5424    
    172900   294.14118     -36729.845      4034.0508    
    173000   280.65194     -36707.147      2322.0729    
    173100   309.79714     -36708.133      1533.1499    
    173200   313.52342     -36703.943     -6277.8103    
    173300   299.38329     -36703.661      1466.1077    
    173400   315.85986     -36723.446      1648.2108    
    173500   300.76287     -36712.854      403.55848    
    173600   309.74684     -36714.121     -3856.1562    
    173700   304.70557     -36705.793      4162.5378    
    173800   300.47897     -36700.482     -4333.9353    
    173900   292.2741      -36705.594      214.08778    
    174000   275.36714     -36706.784     -2769.246     
    174100   290.8605      -36722.17       4503.1152    
    174200   289.64362     -36701.89      -985.49809    
    174300   310.4123      -36696.763      2963.2941    
    174400   322.83494     -36702.391      3218.2944    
    174500   299.19017     -36719.661      2836.8353    
    174600   273.09595     -36712.579     -606.47739    
    174700   294.14547     -36720.163      976.48293    
    174800   291.19276     -36693.348     -3685.7892    
    174900   302.97247     -36690.115      3780.1801    
    175000   299.85397     -36699.89       1879.7341    
    175100   297.68277     -36718.54       1756.8974    
    175200   265.62548     -36695.562     -724.48299    
    175300   299.29538     -36715.259      2168.687     
    175400   305.83749     -36709.913     -1585.7211    
    175500   312.80214     -36710.721     -369.30749    
    175600   312.01801     -36713.354      4683.8488    
    175700   273.29397     -36700.168      6884.8573    
    175800   282.02986     -36711.413     -3659.9537    
    175900   292.44754     -36723.24       3537.5578    
    176000   311.32059     -36722.846     -103.04914    
    176100   305.1493      -36698.995     -112.29477    
    176200   307.06056     -36699.855     -264.02725    
    176300   305.20769     -36713.357     -194.6897     
    176400   275.242       -36719.269     -2925.2499    
    176500   313.23117     -36737.264      4850.5306    
    176600   289.77325     -36701.737     -4052.0394    
    176700   308.10281     -36701.225     -1316.6986    
    176800   313.83511     -36711.554     -935.86983    
    176900   309.04558     -36715.454     -1682.8579    
    177000   304.6016      -36711.234     -1483.9667    
    177100   305.74761     -36713.283      2408.3803    
    177200   293.96634     -36707.314     -2293.5692    
    177300   263.59265     -36701.618     -445.79624    
    177400   288.00672     -36723.556      11346.153    
    177500   301.68386     -36712.667      943.36404    
    177600   313.42738     -36698.897     -10213.764    
    177700   306.50552     -36693.662      7801.3619    
    177800   281.14971     -36700.588      5586.6105    
    177900   284.5146      -36715.579     -5402.5892    
    178000   286.58855     -36714.043      352.13145    
    178100   312.4068      -36719.727      5714.3509    
    178200   322.43364     -36718.784     -2709.4193    
    178300   299.39987     -36692.487     -2614.1537    
    178400   330.04994     -36697.449      3347.5582    
    178500   308.14858     -36696.011      637.07237    
    178600   303.24171     -36717.666      4702.2117    
    178700   295.23483     -36713.656     -1971.0502    
    178800   304.48705     -36712.418      6120.3092    
    178900   319.16811     -36704.131     -2178.1321    
    179000   323.10138     -36696.999      7610.2782    
    179100   318.69458     -36699.873     -2372.4995    
    179200   286.92251     -36706.087      4349.0678    
    179300   287.01798     -36712.569     -2129.5664    
    179400   287.26639     -36712.2       -4042.5428    
    179500   303.79748     -36709.629     -2116.9055    
    179600   310.35684     -36695.526      7278.8861    
    179700   330.94489     -36701.27       5315.878     
    179800   307.30139     -36708.403     -4319.3342    
    179900   305.81952     -36723.355      507.41997    
    180000   285.93794     -36708.034      2817.2528    
    180100   304.44977     -36711.483      248.04177    
    180200   313.01425     -36699.167     -3877.7013    
    180300   335.99788     -36703.846      4969.5062    
    180400   297.18063     -36698.235      3464.9009    
    180500   279.83012     -36707.3       -3823.4628    
    180600   299.9778      -36717.525      3878.4922    
    180700   296.79521     -36706.764      2572.0052    
    180800   308.07387     -36696.547     -1002.0798    
    180900   319.99916     -36686.017     -682.95606    
    181000   295.12077     -36692.999      5768.1534    
    181100   320.74078     -36720.302      2877.6136    
    181200   293.3598      -36710.052     -1988.4252    
    181300   286.08167     -36711.52      -5250.1574    
    181400   303.57375     -36716.632      2705.7584    
    181500   320.39573     -36702.676      3386.1651    
    181600   305.81373     -36694.403     -3282.2191    
    181700   300.10685     -36711.224      1330.7028    
    181800   293.54299     -36724.81       8124.6232    
    181900   288.55763     -36715.474     -3385.5673    
    182000   312.94841     -36728.827     -4798.254     
    182100   287.73272     -36714.26       8244.9963    
    182200   309.43526     -36714.507      3550.6919    
    182300   329.87538     -36706.408     -8259.1359    
    182400   305.72991     -36699.688      1121.2782    
    182500   273.29299     -36701.284      13217.309    
    182600   292.17421     -36712.969     -2016.3414    
    182700   305.36932     -36718.969     -6961.9435    
    182800   284.37901     -36699.567      1350.9887    
    182900   333.61379     -36718.19       3317.7551    
    183000   287.99292     -36696.313     -6584.6752    
    183100   281.70827     -36722.68       8661.1377    
    183200   282.30137     -36719.777      7246.1998    
    183300   314.32929     -36717.125     -5640.8211    
    183400   303.74439     -36699.846     -6010.4849    
    183500   304.5051      -36707.055      3269.9747    
    183600   302.24003     -36712.239      930.69644    
    183700   295.90511     -36709.313      2328.7802    
    183800   293.51113     -36703.169      4686.1713    
    183900   288.50789     -36698.339     -2267.818     
    184000   304.27613     -36715.879      1060.0278    
    184100   302.39324     -36724.966      8094.5182    
    184200   296.3546      -36713.942     -1379.1809    
    184300   288.32058     -36693.424      5385.9938    
    184400   327.76458     -36704.842     -640.50812    
    184500   305.39558     -36696.172      6007.4229    
    184600   283.77012     -36710.692     -1088.8748    
    184700   305.73812     -36735.67      -5282.3978    
    184800   298.05236     -36713.526      5146.2861    
    184900   293.88514     -36699.445      2923.8317    
    185000   309.22728     -36704.82      -5213.9861    
    185100   292.95566     -36705.243      4851.5696    
    185200   281.20229     -36729.608     -1846.7895    
    185300   273.45717     -36726.854     -1849.5055    
    185400   283.94212     -36711.955     -1281.2165    
    185500   299.71673     -36709.915      6574.2748    
    185600   331.84702     -36719.306     -798.154      
    185700   303.35703     -36700.908      639.81726    
    185800   277.04679     -36700.314     -2128.9181    
    185900   281.9365      -36724.395      3859.9303    
    186000   265.43125     -36704.011     -2468.5912    
    186100   309.6322      -36722.41       5887.5062    
    186200   296.05185     -36701.397     -2433.384     
    186300   307.55269     -36712.971     -484.62857    
    186400   280.00142     -36708.604      816.14939    
    186500   279.13747     -36728.647      1305.6607    
    186600   288.01264     -36722.842     -4561.8495    
    186700   320.67835     -36718.473      3291.4392    
    186800   293.85223     -36697.165     -889.11621    
    186900   305.70667     -36712.273      2328.2716    
    187000   291.94165     -36719.113      1635.1643    
    187100   275.37301     -36719.229      183.51983    
    187200   315.06711     -36722.521      2160.0689    
    187300   299.17021     -36688.388     -4058.2012    
    187400   323.7984      -36708.387      487.06054    
    187500   301.42581     -36715.345      6236.7692    
    187600   292.79769     -36718.705     -1413.3022    
    187700   291.30806     -36714.704     -5071.6009    
    187800   271.02066     -36696.151      7975.8102    
    187900   306.82901     -36715.035      5884.2112    
    188000   277.40179     -36692.41      -2487.0623    
    188100   314.5026      -36723.869      1479.0514    
    188200   282.87492     -36719.808      3955.4231    
    188300   289.7239      -36723.762     -4612.8706    
    188400   319.24453     -36724.972      1210.4914    
    188500   314.98889     -36709.223      4673.5195    
    188600   310.78004     -36708.252     -2604.8144    
    188700   304.74458     -36717.156     -2469.2078    
    188800   290.69149     -36720.821      2785.2622    
    188900   294.14996     -36717.141     -553.63314    
    189000   311.54174     -36692.172     -3021.3144    
    189100   318.21405     -36696.37       3357.7248    
    189200   317.81016     -36719.186      2830.5392    
    189300   296.31758     -36720.267     -4310.005     
    189400   292.74906     -36719.478      447.32231    
    189500   320.7943      -36721.247      2925.9212    
    189600   304.71352     -36691.981     -4489.7363    
    189700   311.77641     -36697.897     -5486.1442    
    189800   288.53738     -36725.293      8767.6734    
    189900   273.37261     -36715.077      5944.3709    
    190000   294.87368     -36708.805     -6551.078     
    190100   323.88114     -36715.28      -3644.8695    
    190200   307.21517     -36700.542      8484.6981    
    190300   305.20816     -36708.649     -3372.8553    
    190400   272.35024     -36714.664     -1434.2137    
    190500   274.26742     -36709.288      1368.246     
    190600   293.51168     -36705.908     -1623.4683    
    190700   317.9073      -36716.369      3678.0579    
    190800   278.05927     -36696.891      237.74472    
    190900   293.44203     -36715.276      904.95513    
    191000   317.26517     -36722.011      2309.8119    
    191100   353.07201     -36700.866     -3115.313     
    191200   322.84907     -36698.475      4352.5853    
    191300   312.38667     -36718.715      3695.5538    
    191400   284.55868     -36713.731      448.79179    
    191500   296.41285     -36718.388     -1388.1965    
    191600   307.05786     -36708.958      585.63017    
    191700   294.206       -36689.651      10302.823    
    191800   329.51304     -36705.669      226.35681    
    191900   305.56696     -36699.879     -3436.6174    
    192000   300.97678     -36717.734      5605.2309    
    192100   267.23505     -36708.48      -1256.9307    
    192200   287.48906     -36716.878     -4583.9025    
    192300   305.76139     -36707.103      6390.8418    
    192400   313.56816     -36712.28       95.125566    
    192500   289.08825     -36697.662     -6306.842     
    192600   290.3796      -36706.337      5667.9214    
    192700   281.6803      -36716.695      2454.6922    
    192800   267.78281     -36718.603     -4525.6822    
    192900   294.92748     -36722.005     -2959.1695    
    193000   317.41757     -36718.279     -2590.1106    
    193100   312.40063     -36711.423     -2590.1406    
    193200   289.23163     -36700.639      2158.3159    
    193300   283.66743     -36701.451      5600.6913    
    193400   273.06998     -36699.407     -3937.6434    
    193500   285.33891     -36718.361     -2989.4009    
    193600   273.70403     -36709.899      7129.7081    
    193700   321.3915      -36717.49      -3175.2295    
    193800   315.50439     -36700.891     -7985.4665    
    193900   304.30862     -36704.056      1630.7452    
    194000   279.27633     -36702.778      2922.9935    
    194100   296.64724     -36718.744      55.876057    
    194200   312.27844     -36729.801     -1475.9958    
    194300   289.1657      -36708.445      2575.9812    
    194400   297.21929     -36698.421     -100.1399     
    194500   329.06997     -36708.26      -3688.6339    
    194600   304.35734     -36703.825      1566.7961    
    194700   290.7209      -36718.584      2190.094     
    194800   287.20864     -36715.919      5447.3213    
    194900   305.47993     -36710.941     -4915.8466    
    195000   312.33848     -36709.342      1630.9269    
    195100   316.88313     -36711.579     -2078.4524    
    195200   291.03744     -36707.619     -754.39549    
    195300   273.55463     -36703.784     -257.23827    
    195400   303.9976      -36724.575      4371.4998    
    195500   296.91183     -36703.573     -874.42984    
    195600   296.83989     -36685.797      5748.0687    
    195700   336.12456     -36704.274      6638.3173    
    195800   299.80178     -36711.898     -1315.3559    
    195900   287.36289     -36715.293     -2518.3709    
    196000   302.94101     -36727.561      6613.5762    
    196100   300.69379     -36710.967      4597.5813    
    196200   315.07152     -36698.858     -2043.4067    
    196300   325.3323      -36707.211     -1272.4113    
    196400   300.23461     -36706.32       2476.941     
    196500   297.99828     -36708.797      2710.5909    
    196600   293.77394     -36708.49      -2273.1984    
    196700   291.55446     -36717.97      -961.83338    
    196800   273.59962     -36713.57       8837.9219    
    196900   308.92753     -36726.642     -4112.8887    
    197000   282.82614     -36686.691     -6374.2874    
    197100   310.46836     -36699.911      8113.5172    
    197200   320.34179     -36709.105      2199.6685    
    197300   264.47827     -36698.261     -767.32217    
    197400   285.4472      -36723.131     -3293.2967    
    197500   308.98236     -36728.997      5518.886     
    197600   307.27501     -36711.936      6535.5762    
    197700   293.91535     -36703.099     -3291.6319    
    197800   286.4889      -36699.225      3284.7751    
    197900   317.98603     -36718.8        2506.3606    
    198000   308.14969     -36709.463     -3619.3803    
    198100   318.22472     -36714.781      2553.4945    
    198200   294.01778     -36700.717      3613.4835    
    198300   311.6313      -36724.337     -1455.3799    
    198400   276.90716     -36718.579     -1771.1458    
    198500   277.23086     -36717.566      971.78728    
    198600   318.581       -36716.796      547.05722    
    198700   288.24906     -36690.116     -5960.0596    
    198800   324.98041     -36721.073     -1780.642     
    198900   308.19441     -36731.356      2799.9924    
    199000   264.75915     -36711.402      1328.1165    
    199100   295.84392     -36712.623     -645.08602    
    199200   321.83344     -36713.887      5974.9276    
    199300   296.57892     -36700.551      314.03616    
    199400   299.30597     -36715.39      -4821.0329    
    199500   288.51401     -36715.561      3884.8089    
    199600   294.40184     -36715.523      4484.8926    
    199700   283.94179     -36681.202     -3906.3389    
    199800   331.89682     -36705.888     -2814.8503    
    199900   305.19509     -36703.112      4886.2826    
    200000   297.33935     -36720.414      1734.5326    
Loop time of 25930.4 on 12 procs for 200000 steps with 243 atoms

Performance: 0.333 ns/day, 72.029 hours/ns, 7.713 timesteps/s, 1.874 katom-step/s
99.7% CPU use with 2 MPI tasks x 6 OpenMP threads

MPI task timing breakdown:
Section |  min time  |  avg time  |  max time  |%varavg| %total
---------------------------------------------------------------
Pair    | 5944.8     | 6187.7     | 6430.6     | 308.8 | 23.86
Bond    | 0.35136    | 0.3564     | 0.36143    |   0.8 |  0.00
Neigh   | 535.56     | 536.21     | 536.87     |   2.8 |  2.07
Comm    | 34.036     | 273.27     | 512.51     |1447.2 |  1.05
Output  | 0.51349    | 0.54175    | 0.57001    |   3.8 |  0.00
Modify  | 18924      | 18927      | 18931      |   2.3 | 72.99
Other   |            | 4.914      |            |       |  0.02

Nlocal:          121.5 ave         122 max         121 min
Histogram: 1 0 0 0 0 0 0 0 0 1
Nghost:         3913.5 ave        3923 max        3904 min
Histogram: 1 0 0 0 0 0 0 0 0 1
Neighs:          64286 ave       64549 max       64023 min
Histogram: 1 0 0 0 0 0 0 0 0 1

Total # of neighbors = 128572
Ave neighs/atom = 529.10288
Ave special neighs/atom = 0
Neighbor list builds = 20000
Dangerous builds not checked

# summarize sampling protocol
print "Stress sampling interval = ${nevery}"
Stress sampling interval = 5
variable tmp equal ${nrun}/${nevery}
variable tmp equal 200000/${nevery}
variable tmp equal 200000/5
print "Stress sample count = ${tmp}"
Stress sample count = 40000
print "Born sampling interval = ${nevery}"
Born sampling interval = 5
variable tmp equal ${nrun}/${nevery}
variable tmp equal 200000/${nevery}
variable tmp equal 200000/5
print "Born sample count = ${tmp}"
Born sample count = 40000

# output the result
# print ""
# print "Output the tensor to C.lmp.log"

# print "${C11} ${C12} ${C13} ${C14} ${C15} ${C16}" #     file "C.lmp.log" screen no
# print "${C12} ${C22} ${C23} ${C24} ${C25} ${C26}"#     append "C.lmp.log" screen no
# print "${C13} ${C23} ${C33} ${C34} ${C35} ${C36}"#     append "C.lmp.log" screen no
# print "${C14} ${C24} ${C34} ${C44} ${C45} ${C46}"#     append "C.lmp.log" screen no
# print "${C15} ${C25} ${C35} ${C45} ${C55} ${C56}"#     append "C.lmp.log" screen no
# print "${C16} ${C26} ${C36} ${C46} ${C56} ${C66}"#     append "C.lmp.log" screen no

print "done!"
done!
Total wall time: 10:10:02
