LAMMPS data file via write_data, version 2 Aug 2023, timestep = 0, units = real

243 atoms
2 atom types

0 14.6913 xlo xhi
0 12.723 ylo yhi
0 15.9631 zlo zhi
-7.3456 0 0 xy xz yz

Masses

1 15.999
2 32.064999

Atoms # full

1 1 2 1.32 2.313 0 1.7740000000000007 0 0 0
2 1 2 1.32 13.534299999999996 2.003 3.5470000000000015 -1 0 0
3 1 2 1.32 1.2919999999999996 2.238 0 0 0 0
4 1 2 1.32 2.313 0 7.095000000000002 0 0 0
6 1 2 1.32 1.2919999999999996 2.238 5.321000000000002 0 0 0
10 1 2 1.32 -0.1349999999999989 4.241 1.7740000000000007 0 0 0
11 1 2 1.32 11.0863 6.244 3.5470000000000015 -1 0 0
12 1 2 1.32 -1.1560000000000006 6.479000000000001 0 0 0 0
13 1 2 1.32 -0.1349999999999989 4.241 7.095000000000002 0 0 0
15 1 2 1.32 -1.1560000000000006 6.479000000000001 5.321000000000002 0 0 0
19 1 2 1.32 -2.5839999999999987 8.482 1.7740000000000007 0 0 0
20 1 2 1.32 8.6373 10.485 3.5470000000000015 -1 0 0
21 1 2 1.32 -3.6049999999999995 10.72 0 0 0 0
22 1 2 1.32 -2.5839999999999987 8.482 7.095000000000002 0 0 0
24 1 2 1.32 -3.6049999999999995 10.72 5.321000000000002 0 0 0
28 1 2 1.32 7.209999999999997 0 1.7740000000000007 0 0 0
29 1 2 1.32 3.74 2.003 3.5470000000000015 0 0 0
30 1 2 1.32 6.188999999999999 2.238 0 0 0 0
31 1 2 1.32 7.209999999999997 0 7.095000000000002 0 0 0
33 1 2 1.32 6.188999999999999 2.238 5.321000000000002 0 0 0
37 1 2 1.32 4.762 4.241 1.7740000000000007 0 0 0
38 1 2 1.32 1.2919999999999998 6.244 3.5470000000000015 0 0 0
39 1 2 1.32 3.740999999999998 6.479000000000001 0 0 0 0
40 1 2 1.32 4.762 4.241 7.095000000000002 0 0 0
42 1 2 1.32 3.740999999999998 6.479000000000001 5.321000000000002 0 0 0
46 1 2 1.32 2.3130000000000006 8.482 1.7740000000000007 0 0 0
47 1 2 1.32 -1.1569999999999974 10.485 3.5470000000000015 0 0 0
48 1 2 1.32 1.2920000000000007 10.72 0 0 0 0
49 1 2 1.32 2.3130000000000006 8.482 7.095000000000002 0 0 0
51 1 2 1.32 1.2920000000000007 10.72 5.321000000000002 0 0 0
55 1 2 1.32 12.107 0 1.7740000000000007 0 0 0
56 1 2 1.32 8.638 2.003 3.5470000000000015 0 0 0
57 1 2 1.32 11.085999999999999 2.238 0 0 0 0
58 1 2 1.32 12.107 0 7.095000000000002 0 0 0
60 1 2 1.32 11.085999999999999 2.238 5.321000000000002 0 0 0
64 1 2 1.32 9.658999999999999 4.241 1.7740000000000007 0 0 0
65 1 2 1.32 6.188999999999998 6.244 3.5470000000000015 0 0 0
66 1 2 1.32 8.637999999999998 6.479000000000001 0 0 0 0
67 1 2 1.32 9.658999999999999 4.241 7.095000000000002 0 0 0
69 1 2 1.32 8.637999999999998 6.479000000000001 5.321000000000002 0 0 0
73 1 2 1.32 7.209999999999999 8.482 1.7740000000000007 0 0 0
74 1 2 1.32 3.7410000000000005 10.485 3.5470000000000015 0 0 0
75 1 2 1.32 6.189 10.72 0 0 0 0
76 1 2 1.32 7.209999999999999 8.482 7.095000000000002 0 0 0
78 1 2 1.32 6.189 10.72 5.321000000000002 0 0 0
82 1 1 -0.66 1.3939999999999997 1.118 1.1210000000000007 0 0 0
83 1 1 -0.66 0.2709999999999999 1.766 4.200000000000003 0 0 0
84 1 1 -0.66 1.3939999999999997 1.118 6.442000000000003 0 0 0
88 1 1 -0.66 -1.0550000000000002 3.123 2.4270000000000014 0 0 0
89 1 1 -0.66 0.7839999999999998 3.5930000000000004 0.653 0 0 0
90 1 1 -0.66 -1.0549999999999993 5.359 1.1210000000000007 0 0 0
91 1 1 -0.66 -1.0550000000000002 3.123 7.748000000000003 0 0 0
92 1 1 -0.66 0.7839999999999998 3.5930000000000004 5.974000000000003 0 0 0
93 1 1 -0.66 -2.178000000000001 6.007 4.200000000000003 0 0 0
94 1 1 -0.66 -1.0549999999999993 5.359 6.442000000000003 0 0 0
100 1 1 -0.66 -3.503000000000001 7.364 2.4270000000000014 0 0 0
101 1 1 -0.66 -1.6649999999999996 7.834 0.653 0 0 0
102 1 1 -0.66 -5.952 11.605 2.4270000000000014 0 0 0
103 1 1 -0.66 -3.502999999999999 9.6 1.1210000000000007 0 0 0
104 1 1 -0.66 -4.1129999999999995 12.075 0.653 0 0 0
105 1 1 -0.66 -3.503000000000001 7.364 7.748000000000003 0 0 0
106 1 1 -0.66 -1.6649999999999996 7.834 5.974000000000003 0 0 0
107 1 1 -0.66 -5.952 11.605 7.748000000000003 0 0 0
108 1 1 -0.66 -4.626 10.248 4.200000000000003 0 0 0
109 1 1 -0.66 -3.502999999999999 9.6 6.442000000000003 0 0 0
110 1 1 -0.66 -4.1129999999999995 12.075 5.974000000000003 0 0 0
118 1 1 -0.66 3.232 0.648 2.8950000000000014 0 0 0
119 1 1 -0.66 2.7189999999999976 2.475 4.668000000000003 0 0 0
120 1 1 -0.66 6.290999999999998 1.118 1.1210000000000007 0 0 0
123 1 1 -0.66 5.1679999999999975 1.766 4.200000000000003 0 0 0
124 1 1 -0.66 6.290999999999998 1.118 6.442000000000003 0 0 0
130 1 1 -0.66 3.8419999999999996 3.123 2.4270000000000014 0 0 0
131 1 1 -0.66 5.680999999999998 3.5930000000000004 0.653 0 0 0
132 1 1 -0.66 0.7839999999999989 4.889 2.8950000000000014 0 0 0
133 1 1 -0.66 0.27099999999999946 6.716 4.668000000000003 0 0 0
134 1 1 -0.66 3.841999999999999 5.359 1.1210000000000007 0 0 0
135 1 1 -0.66 3.8419999999999996 3.123 7.748000000000003 0 0 0
136 1 1 -0.66 5.680999999999998 3.5930000000000004 5.974000000000003 0 0 0
139 1 1 -0.66 2.719999999999998 6.007 4.200000000000003 0 0 0
140 1 1 -0.66 3.841999999999999 5.359 6.442000000000003 0 0 0
148 1 1 -0.66 1.3939999999999975 7.364 2.4270000000000014 0 0 0
149 1 1 -0.66 3.232000000000001 7.834 0.653 0 0 0
150 1 1 -0.66 -1.665 9.13 2.8950000000000014 0 0 0
151 1 1 -0.66 -1.0550000000000024 11.605 2.4270000000000014 0 0 0
152 1 1 -0.66 -2.178000000000001 10.957 4.668000000000003 0 0 0
153 1 1 -0.66 1.3940000000000001 9.6 1.1210000000000007 0 0 0
154 1 1 -0.66 0.7839999999999998 12.075 0.653 0 0 0
155 1 1 -0.66 1.3939999999999975 7.364 7.748000000000003 0 0 0
156 1 1 -0.66 3.232000000000001 7.834 5.974000000000003 0 0 0
158 1 1 -0.66 -1.0550000000000024 11.605 7.748000000000003 0 0 0
160 1 1 -0.66 0.2709999999999999 10.248 4.200000000000003 0 0 0
161 1 1 -0.66 1.3940000000000001 9.6 6.442000000000003 0 0 0
162 1 1 -0.66 0.7839999999999998 12.075 5.974000000000003 0 0 0
172 1 1 -0.66 13.026 0.648 2.8950000000000014 0 0 0
173 1 1 -0.66 8.129 0.648 2.8950000000000014 0 0 0
174 1 1 -0.66 7.6169999999999956 2.475 4.668000000000003 0 0 0
176 1 1 -0.66 11.187999999999995 1.118 1.1210000000000007 0 0 0
180 1 1 -0.66 12.513999999999994 2.475 4.668000000000003 0 0 0
181 1 1 -0.66 10.065 1.766 4.200000000000003 0 0 0
182 1 1 -0.66 11.187999999999995 1.118 6.442000000000003 0 0 0
190 1 1 -0.66 8.74 3.123 2.4270000000000014 0 0 0
191 1 1 -0.66 10.578 3.5930000000000004 0.653 0 0 0
192 1 1 -0.66 10.578 4.889 2.8950000000000014 0 0 0
193 1 1 -0.66 5.680999999999999 4.889 2.8950000000000014 0 0 0
194 1 1 -0.66 5.167999999999994 6.716 4.668000000000003 0 0 0
196 1 1 -0.66 8.74 5.359 1.1210000000000007 0 0 0
197 1 1 -0.66 8.74 3.123 7.748000000000003 0 0 0
198 1 1 -0.66 10.578 3.5930000000000004 5.974000000000003 0 0 0
202 1 1 -0.66 10.064999999999994 6.716 4.668000000000003 0 0 0
203 1 1 -0.66 7.616999999999996 6.007 4.200000000000003 0 0 0
204 1 1 -0.66 8.74 5.359 6.442000000000003 0 0 0
214 1 1 -0.66 6.290999999999995 7.364 2.4270000000000014 0 0 0
215 1 1 -0.66 8.128999999999994 7.834 0.653 0 0 0
216 1 1 -0.66 8.128999999999998 9.13 2.8950000000000014 0 0 0
217 1 1 -0.66 3.2319999999999975 9.13 2.8950000000000014 0 0 0
218 1 1 -0.66 3.843 11.605 2.4270000000000014 0 0 0
219 1 1 -0.66 2.7199999999999953 10.957 4.668000000000003 0 0 0
221 1 1 -0.66 6.290999999999998 9.6 1.1210000000000007 0 0 0
222 1 1 -0.66 5.680999999999998 12.075 0.653 0 0 0
223 1 1 -0.66 6.290999999999995 7.364 7.748000000000003 0 0 0
224 1 1 -0.66 8.128999999999994 7.834 5.974000000000003 0 0 0
227 1 1 -0.66 3.843 11.605 7.748000000000003 0 0 0
229 1 1 -0.66 7.616999999999999 10.957 4.668000000000003 0 0 0
230 1 1 -0.66 5.168000000000001 10.248 4.200000000000003 0 0 0
231 1 1 -0.66 6.290999999999998 9.6 6.442000000000003 0 0 0
232 1 1 -0.66 5.680999999999998 12.075 5.974000000000003 0 0 0
5 1 2 1.32 13.534299999999996 2.003 8.868 -1 0 0
7 1 2 1.32 2.313 0 12.416000000000006 0 0 0
8 1 2 1.32 13.534299999999996 2.003 14.189000000000005 -1 0 0
9 1 2 1.32 1.2919999999999996 2.238 10.642000000000005 0 0 0
14 1 2 1.32 11.0863 6.244 8.868 -1 0 0
16 1 2 1.32 -0.1349999999999989 4.241 12.416000000000006 0 0 0
17 1 2 1.32 11.0863 6.244 14.189000000000005 -1 0 0
18 1 2 1.32 -1.1560000000000006 6.479000000000001 10.642000000000005 0 0 0
23 1 2 1.32 8.6373 10.485 8.868 -1 0 0
25 1 2 1.32 -2.5839999999999987 8.482 12.416000000000006 0 0 0
26 1 2 1.32 8.6373 10.485 14.189000000000005 -1 0 0
27 1 2 1.32 -3.6049999999999995 10.72 10.642000000000005 0 0 0
32 1 2 1.32 3.74 2.003 8.868 0 0 0
34 1 2 1.32 7.209999999999997 0 12.416000000000006 0 0 0
35 1 2 1.32 3.74 2.003 14.189000000000005 0 0 0
36 1 2 1.32 6.188999999999999 2.238 10.642000000000005 0 0 0
41 1 2 1.32 1.2919999999999998 6.244 8.868 0 0 0
43 1 2 1.32 4.762 4.241 12.416000000000006 0 0 0
44 1 2 1.32 1.2919999999999998 6.244 14.189000000000005 0 0 0
45 1 2 1.32 3.740999999999998 6.479000000000001 10.642000000000005 0 0 0
50 1 2 1.32 -1.1569999999999974 10.485 8.868 0 0 0
52 1 2 1.32 2.3130000000000006 8.482 12.416000000000006 0 0 0
53 1 2 1.32 -1.1569999999999974 10.485 14.189000000000005 0 0 0
54 1 2 1.32 1.2920000000000007 10.72 10.642000000000005 0 0 0
59 1 2 1.32 8.638 2.003 8.868 0 0 0
61 1 2 1.32 12.107 0 12.416000000000006 0 0 0
62 1 2 1.32 8.638 2.003 14.189000000000005 0 0 0
63 1 2 1.32 11.085999999999999 2.238 10.642000000000005 0 0 0
68 1 2 1.32 6.188999999999998 6.244 8.868 0 0 0
70 1 2 1.32 9.658999999999999 4.241 12.416000000000006 0 0 0
71 1 2 1.32 6.188999999999998 6.244 14.189000000000005 0 0 0
72 1 2 1.32 8.637999999999998 6.479000000000001 10.642000000000005 0 0 0
77 1 2 1.32 3.7410000000000005 10.485 8.868 0 0 0
79 1 2 1.32 7.209999999999999 8.482 12.416000000000006 0 0 0
80 1 2 1.32 3.7410000000000005 10.485 14.189000000000005 0 0 0
81 1 2 1.32 6.189 10.72 10.642000000000005 0 0 0
85 1 1 -0.66 0.2709999999999999 1.766 14.842000000000006 0 0 0
86 1 1 -0.66 0.2709999999999999 1.766 9.521000000000006 0 0 0
87 1 1 -0.66 1.3939999999999997 1.118 11.763000000000005 0 0 0
95 1 1 -0.66 -1.0550000000000002 3.123 13.069000000000006 0 0 0
96 1 1 -0.66 0.7839999999999998 3.5930000000000004 11.295 0 0 0
97 1 1 -0.66 -2.178000000000001 6.007 14.842000000000006 0 0 0
98 1 1 -0.66 -2.178000000000001 6.007 9.521000000000006 0 0 0
99 1 1 -0.66 -1.0549999999999993 5.359 11.763000000000005 0 0 0
111 1 1 -0.66 -3.503000000000001 7.364 13.069000000000006 0 0 0
112 1 1 -0.66 -1.6649999999999996 7.834 11.295 0 0 0
113 1 1 -0.66 -4.626 10.248 14.842000000000006 0 0 0
114 1 1 -0.66 -5.952 11.605 13.069000000000006 0 0 0
115 1 1 -0.66 -4.626 10.248 9.521000000000006 0 0 0
116 1 1 -0.66 -3.502999999999999 9.6 11.763000000000005 0 0 0
117 1 1 -0.66 -4.1129999999999995 12.075 11.295 0 0 0
121 1 1 -0.66 3.232 0.648 8.216 0 0 0
122 1 1 -0.66 2.7189999999999976 2.475 9.989 0 0 0
125 1 1 -0.66 3.232 0.648 13.537000000000006 0 0 0
126 1 1 -0.66 5.1679999999999975 1.766 14.842000000000006 0 0 0
127 1 1 -0.66 2.7189999999999976 2.475 15.320000000000006 0 0 0
128 1 1 -0.66 5.1679999999999975 1.766 9.521000000000006 0 0 0
129 1 1 -0.66 6.290999999999998 1.118 11.763000000000005 0 0 0
137 1 1 -0.66 0.7839999999999989 4.889 8.216 0 0 0
138 1 1 -0.66 0.27099999999999946 6.716 9.989 0 0 0
141 1 1 -0.66 3.8419999999999996 3.123 13.069000000000006 0 0 0
142 1 1 -0.66 5.680999999999998 3.5930000000000004 11.295 0 0 0
143 1 1 -0.66 0.7839999999999989 4.889 13.537000000000006 0 0 0
144 1 1 -0.66 2.719999999999998 6.007 14.842000000000006 0 0 0
145 1 1 -0.66 0.27099999999999946 6.716 15.320000000000006 0 0 0
146 1 1 -0.66 2.719999999999998 6.007 9.521000000000006 0 0 0
147 1 1 -0.66 3.841999999999999 5.359 11.763000000000005 0 0 0
157 1 1 -0.66 -1.665 9.13 8.216 0 0 0
159 1 1 -0.66 -2.178000000000001 10.957 9.989 0 0 0
163 1 1 -0.66 1.3939999999999975 7.364 13.069000000000006 0 0 0
164 1 1 -0.66 3.232000000000001 7.834 11.295 0 0 0
165 1 1 -0.66 -1.665 9.13 13.537000000000006 0 0 0
166 1 1 -0.66 0.2709999999999999 10.248 14.842000000000006 0 0 0
167 1 1 -0.66 -1.0550000000000024 11.605 13.069000000000006 0 0 0
168 1 1 -0.66 -2.178000000000001 10.957 15.320000000000006 0 0 0
169 1 1 -0.66 0.2709999999999999 10.248 9.521000000000006 0 0 0
170 1 1 -0.66 1.3940000000000001 9.6 11.763000000000005 0 0 0
171 1 1 -0.66 0.7839999999999998 12.075 11.295 0 0 0
175 1 1 -0.66 12.513999999999994 2.475 15.320000000000006 0 0 0
177 1 1 -0.66 13.026 0.648 8.216 0 0 0
178 1 1 -0.66 8.129 0.648 8.216 0 0 0
179 1 1 -0.66 7.6169999999999956 2.475 9.989 0 0 0
183 1 1 -0.66 13.026 0.648 13.537000000000006 0 0 0
184 1 1 -0.66 8.129 0.648 13.537000000000006 0 0 0
185 1 1 -0.66 10.065 1.766 14.842000000000006 0 0 0
186 1 1 -0.66 7.6169999999999956 2.475 15.320000000000006 0 0 0
187 1 1 -0.66 12.513999999999994 2.475 9.989 0 0 0
188 1 1 -0.66 10.065 1.766 9.521000000000006 0 0 0
189 1 1 -0.66 11.187999999999995 1.118 11.763000000000005 0 0 0
195 1 1 -0.66 10.064999999999994 6.716 15.320000000000006 0 0 0
199 1 1 -0.66 10.578 4.889 8.216 0 0 0
200 1 1 -0.66 5.680999999999999 4.889 8.216 0 0 0
201 1 1 -0.66 5.167999999999994 6.716 9.989 0 0 0
205 1 1 -0.66 8.74 3.123 13.069000000000006 0 0 0
206 1 1 -0.66 10.578 3.5930000000000004 11.295 0 0 0
207 1 1 -0.66 10.578 4.889 13.537000000000006 0 0 0
208 1 1 -0.66 5.680999999999999 4.889 13.537000000000006 0 0 0
209 1 1 -0.66 7.616999999999996 6.007 14.842000000000006 0 0 0
210 1 1 -0.66 5.167999999999994 6.716 15.320000000000006 0 0 0
211 1 1 -0.66 10.064999999999994 6.716 9.989 0 0 0
212 1 1 -0.66 7.616999999999996 6.007 9.521000000000006 0 0 0
213 1 1 -0.66 8.74 5.359 11.763000000000005 0 0 0
220 1 1 -0.66 7.616999999999999 10.957 15.320000000000006 0 0 0
225 1 1 -0.66 8.128999999999998 9.13 8.216 0 0 0
226 1 1 -0.66 3.2319999999999975 9.13 8.216 0 0 0
228 1 1 -0.66 2.7199999999999953 10.957 9.989 0 0 0
233 1 1 -0.66 6.290999999999995 7.364 13.069000000000006 0 0 0
234 1 1 -0.66 8.128999999999994 7.834 11.295 0 0 0
235 1 1 -0.66 8.128999999999998 9.13 13.537000000000006 0 0 0
236 1 1 -0.66 3.2319999999999975 9.13 13.537000000000006 0 0 0
237 1 1 -0.66 5.168000000000001 10.248 14.842000000000006 0 0 0
238 1 1 -0.66 3.843 11.605 13.069000000000006 0 0 0
239 1 1 -0.66 2.7199999999999953 10.957 15.320000000000006 0 0 0
240 1 1 -0.66 7.616999999999999 10.957 9.989 0 0 0
241 1 1 -0.66 5.168000000000001 10.248 9.521000000000006 0 0 0
242 1 1 -0.66 6.290999999999998 9.6 11.763000000000005 0 0 0
243 1 1 -0.66 5.680999999999998 12.075 11.295 0 0 0

Velocities

1 0.0005815335765835263 0.004328301110916673 -8.868133902881048e-05
2 -0.00017197390784299676 -0.0008493176813665249 0.0022968085662844794
3 -0.0004383851327673005 -0.0008584433684598022 -0.003976831207098635
4 -0.0007029995744054372 -0.0019368568629009307 -0.0019035001214377386
6 -0.0017442949547177096 0.002591753174845748 0.0002741575927953082
10 -0.0010688825850846703 -0.0030745929767981264 0.0012608667854464187
11 0.006586729980528551 4.715747943666173e-05 0.0032962363945805975
12 0.0023848447851443164 -0.0020527154998962664 -0.0002368266705808793
13 0.006844414923058072 0.00251797884062631 -0.0029598960378163226
15 -0.0009110375419664438 0.004433438894133511 0.0012286588321975419
19 -0.002545973089470128 -0.0013975888309582726 -0.0015649022481342677
20 0.0012034166668708484 4.231845498116093e-05 0.00039526112585537766
21 -4.499991058091249e-05 -0.0040808164851873305 -0.00038651212118251925
22 -0.0028574061020192293 0.006852694110012427 0.003584593260621126
24 -0.0028773771077748003 -0.002156742695971009 -0.004311017837331424
28 0.0016111467457199458 0.003114730861792949 0.0004903034797550611
29 0.0019018149689565187 -0.0022664925008904265 0.0051619986199558324
30 -0.003210779906960465 0.003322904971812372 -0.0012775545895595162
31 -0.00325769315779366 -0.005060925542306994 -0.00036506339923944716
33 -0.007899768290530901 0.0019301203068169597 0.0009340775582898647
37 -0.004275963584336039 -0.005740392932567897 0.004573785005296052
38 0.0022127123009046947 0.0036710324983411867 -0.0001382501481534053
39 0.0008063022469007052 0.001106161273430749 0.005412055939482751
40 0.0013066897724264693 -0.00016850280563029596 -0.0028297784773578375
42 -0.00413293269626598 0.0028390280382294152 -0.003943789248656772
46 -0.0011537783336464569 0.00432349411635874 -0.001243313974967934
47 -0.0025893732282442307 0.0014666090463786674 0.003396032986006627
48 0.001041661505813853 0.0016388162928639455 0.00270462739386328
49 -0.0018290066904952614 -0.0034636099604045487 0.00484408699904036
51 -0.0011702599205655982 -0.000567629389930682 4.315038476515384e-06
55 0.004305066022072959 0.0004665991850760656 -0.002322137197621005
56 0.0034592124574124245 0.005719952724782138 -0.0028866660396247444
57 -0.0006796557198297557 0.001039760493942539 0.003572815935432672
58 0.0018535984325052616 0.0029854354159385183 -0.0007525608335288194
60 0.0004118731985347918 0.0003957844074841862 0.0008419827632782517
64 0.0013928326986947046 0.0016294463581707655 -0.0021857206318901105
65 0.00355668888075355 -0.008466658709472594 0.0018593947207355777
66 0.004085728971948647 0.0013103306087657472 0.0005334620768667573
67 -0.002957049081934606 0.0011566388231200075 0.0016758917084685305
69 0.002926409003727935 0.00037941192384724156 0.0017286047725305043
73 0.0024562624411691904 -0.004513708250162568 -0.0028162672725956287
74 0.0021746776352430976 0.003425295319789779 -0.0006260738528024753
75 -0.0026506908024319814 0.0029697503963963855 -0.0031738290562032677
76 0.003572078803800946 -0.007044959474256822 -0.0032772742049169347
78 -0.004161653365581719 0.0010528134237700769 0.00013617419136479684
82 0.0034056475345938223 0.003011523510611603 0.0035688804689824423
83 -0.0013016788202135513 0.007441589411312432 -0.00366008842148277
84 0.0011929866175536647 -0.0005439670062116552 -0.006917108479706572
88 -0.004138385357300394 -0.004426222417218774 0.001980206706632616
89 0.004752373130749846 -0.004780538965363191 -0.0011618832937861717
90 0.001215205495702398 0.004674422417633026 -0.0035245264170775787
91 -0.0018061370923040739 -0.0019826779218480523 0.006019954829753361
92 -0.003690597437293978 0.0007056162240416088 0.0019383590311960238
93 0.00029170245857991663 -0.001723387276369475 -0.0013298980930822562
94 0.0033234682464249976 0.003163415306792671 0.0004375728630521695
100 0.0022930777018032975 -9.865454451488547e-05 0.006878578405680362
101 0.009163804272957274 0.00040307754189037475 0.004691072602632268
102 -6.0125926612935034e-05 5.1386306226316933e-05 -0.002854792292638995
103 -0.000569138634049368 -0.0016679382096493884 0.0007622804306688371
104 -0.0014427139052095902 0.0005253007252312917 -0.004576891272001077
105 0.0018561409639745326 -0.000833670949324871 -0.0017945473487964657
106 0.00722709178326819 -0.003538250761337516 -0.004299725286515618
107 -0.0025264812536943647 0.0022258674193428277 0.003582266590203811
108 0.0002732607058128333 -0.00048113525086799293 -0.008338139438443842
109 0.004085376792103138 0.0001654243440326384 0.00295994546189808
110 0.005642479321375015 0.002375751717045316 -0.0057554480099322675
118 -0.0012099836378307452 0.00022569930851090527 0.0041664423908672815
119 -0.0011881605700569211 0.0006827998509111864 0.0029917490693838096
120 -0.0004890815238966363 -0.0070156125024286005 0.0009736628122580276
123 -0.0009167155902797302 0.0021591999725119886 -0.006309894810850242
124 0.007049387368800903 0.00036746631773767276 -0.007680719363814809
130 -0.0017400775480256921 -0.010519663800800374 -0.005101060597366491
131 -0.00290743417408215 0.005239932636992847 -0.0035909263818984906
132 -0.001735333327383188 0.0026397728878753426 -2.444447971159179e-05
133 0.0047247019370384976 0.0025571276069192694 0.0009625522649268868
134 0.0018863662873018876 0.0066999565192029245 0.0017401292861279455
135 -0.000867854680422697 0.00048680441604706276 -0.0018791301083723986
136 -0.005077736700581152 0.002076060454570997 -0.004159715707808273
139 0.008839860532191744 -0.005843999800418816 0.0007016070657208318
140 -0.007395051249542457 0.002751931235203687 -0.0035056412828703837
148 0.005391267414107868 -0.0004653899172755194 -0.007616430914327579
149 0.0013128566903249353 0.0017513542471953877 -0.00288047342731084
150 -0.0018559972475116434 0.0016383358334991934 -0.0014644835074467037
151 0.0013681117894744185 -0.0010307228530065907 0.0019475466415816863
152 -0.0006293134142500354 0.0005687547207179402 0.0027673140299724034
153 0.005521967949119728 0.005379650865367276 0.0005938256127685985
154 0.004846911211678294 0.0015794463926210752 -0.004910089997358826
155 0.003282666548771336 0.0031308305470025455 0.0020717433727970697
156 0.005707298364900533 -0.0050693388229413085 0.006579454582192399
158 0.0003319765198508881 -2.4539961941654194e-05 -0.000981216221894811
160 0.0016046219883212353 -0.004250727656414366 0.0019061942078856353
161 0.0012619565980551612 -0.0025283810199465107 5.193915383497061e-05
162 -7.406870565308903e-05 0.0011310917477466939 0.0010918620386225512
172 -0.004215175233506781 -0.004623295785654581 0.002881523829416832
173 0.0021031380609882336 0.00722787668080435 -0.009862460619696315
174 -0.0012935483828576263 -0.0014657332634918534 -0.004247040598363997
176 0.004330233182784076 0.003910162409276593 -0.00287845622281874
180 0.004075663262390382 -0.008963663290440987 -0.004620081450094047
181 -0.009256816338825125 0.0018593095153427541 -0.005802502178761636
182 8.707102604306257e-05 -0.0016099852496207375 -0.0019890994184960224
190 0.001342377044489038 0.005017130737141132 0.00013527947508534742
191 0.002959353223897639 -0.005205227343476711 -0.004924997936625779
192 0.003176798150502772 -0.0010753634688067738 -0.00022934814674216393
193 -0.003941218829408426 0.0011162959481629522 -0.0035274382318822794
194 -0.006697196998329179 0.005155809855940941 0.005839216789777096
196 0.0012599007583831625 -0.001869124593998723 0.0005920590246318465
197 -0.003694084682637039 -0.0003694528386432111 -0.002775215477977099
198 -0.0036506095638547593 -0.0031516730105291884 -0.0018163737761680958
202 -0.002368813422567485 0.004961866670955905 0.003902615538611504
203 -0.0034773328373493284 0.0008746035798557226 0.0010314368307108748
204 -0.003982631477544915 -0.004314866417573275 0.0023321811780715887
214 -0.002504283965223869 -0.0005696093748169534 0.00034286754971602087
215 -0.006257350951091976 -0.008866103016819327 -0.002182278960843906
216 -0.012280326954949506 -0.00499681413367788 -0.0023326877325830484
217 -0.00856775139848097 0.0020634828372877406 0.004242259842019018
218 -0.0014165679582671242 -0.0024911055321921033 -0.005030805335242786
219 0.0023167214166120416 -0.010329498319393084 0.005593933985016968
221 -0.004095381617003225 0.0025526683034878357 0.0026458768741767897
222 0.006677694081435331 0.004622018749284829 -0.0012660773672325566
223 -0.0059989662584096015 -0.0006043602684480201 -0.005330637698261732
224 -0.006620002474043417 0.0068764660977422105 0.00263232577417018
227 0.0012259369274320463 0.012009453503386489 0.005633593205142724
229 0.002888328226838421 -0.0010066781146048844 -0.0002901387594989256
230 -0.0013542177389517457 -0.004468984386548157 -0.000791097306626959
231 -0.0009742649434011083 0.0004515334919932477 0.004830119928175419
232 0.006457111170011804 -0.0017422853584711086 0.00045501502390961845
5 -0.001171594460390745 -0.0024448243594853004 -0.002892961276084376
7 0.001117860764230997 -0.0010014049360309045 0.0018654576386944392
8 0.0005700774830064255 0.005773147444131355 -0.0008529649863306583
9 0.0024396115819913773 0.001362518162227492 0.003824826529822636
14 0.002416205381381 -0.0013654423154794782 -0.0028018617667315694
16 0.0003658162186675236 -2.1901163311876913e-05 -8.521381055524558e-05
17 0.004343963671729961 -0.004429604867168122 -0.002780031583992457
18 0.0008668035804581583 -0.004402875356519149 0.0007759382627326742
23 -0.0034583313038703697 -0.0023687225779981283 -0.0010840674333538614
25 -0.0013406108729109231 -0.0025093318182259454 0.0003704467895886146
26 0.0007847172650140577 0.0034765515144448925 -0.0016165021241330776
27 0.0011074721372404228 0.001686051754794717 0.004400665541804022
32 0.002721036785792064 -0.001926473518246075 -0.002010400419617468
34 -0.0005077428882687786 -0.0031193483963534363 -0.002450684099340829
35 -0.0016709803277248836 -0.0027407372742496174 0.003892036416204414
36 0.0023961982217243975 0.0005816809074111254 0.004391796398928858
41 -0.0006603504532255375 -0.003539718597486368 0.008058615859658646
43 -0.0033435868454130464 0.0017498351647550624 0.00156570585188299
44 0.0005531604709449522 0.001386324064019869 -0.0038162885485673883
45 0.0005736911900197603 0.001776872267208093 0.0008733167677613953
50 -0.0035056747804388983 -0.0061632885564648675 0.00040598431183193394
52 0.000795355736360139 0.0039174407097594555 0.002501263479985728
53 -0.003126052687139713 0.0015072381992912167 -0.0005691178355564429
54 0.002872928519964632 -0.0010721178542806753 0.00024760047233048744
59 0.0008851465101112787 -0.0042260633467982945 0.0049561057286827285
61 -0.0050049713980841164 -0.003029231408500567 -0.0012104795199159137
62 0.0006467442170170041 0.00028943432556984824 -0.0023299505841558577
63 -0.0007077722925427341 -0.006077127426612971 4.104265667674391e-05
68 -0.0023626679237400616 -0.001419187640258211 0.000488953044448171
70 -0.0004769779800168432 -0.0006685482046048453 -0.003664727132654235
71 0.005881176831651258 0.000940515555430644 -0.0028433296971871616
72 0.0002801531104400798 -0.0018293041187167109 0.0003942728655261488
77 0.0019289170385188164 0.00467240908435213 -0.0022248171915362058
79 -0.0006732544971285524 0.002026555784151639 0.0007566734357496577
80 0.00012903650385874364 -0.0039060828085481537 -0.0027897181739794095
81 -0.003771013471489755 -0.0035433474251658275 -0.0007337861626650606
85 -0.0061015468044362635 -0.0008708741475597925 -0.002112794898921417
86 0.0037109812516958173 0.004601722682391323 -0.004242569551026843
87 0.0008278319338648416 0.0013915220442427174 -0.0005079170978219826
95 -0.002167564104939941 0.007826283366028619 0.004269882985131565
96 0.005476034687823602 -0.0028854044371014968 -0.0024317915840189742
97 -0.008419135399784936 0.0011872170790921722 0.004756690801080662
98 -0.0006030085856779475 0.001798685102111096 0.0022813774261998664
99 -0.001191437605321843 -0.0031165889087244277 -0.0006694666486389497
111 0.007012773137276063 0.004961852281835975 0.002806135080567047
112 -0.0019969175661044215 -0.008353583305733893 0.002350210596937397
113 0.0014956252325854765 0.00019315692909884242 -0.0015714650364956253
114 0.0003168303861078449 -0.0015054401512731692 0.002391104398221771
115 -0.0007332112806888506 0.007893559685544596 -1.7805952724085513e-05
116 0.003667970691580154 -0.002496635197832507 -0.0015959938676369584
117 -0.002514677933067468 0.0023942210528533304 0.005800727149437805
121 0.0023204071364900805 0.008292272825243195 -0.0010560160895992697
122 0.0030346491722316915 -0.0037098560827113583 0.0017265573052834262
125 -0.0020610053654596216 -0.0054121272114323405 0.004806957942789752
126 0.0005454448472060894 -0.0035545228950001483 0.006055417117535121
127 0.0015064754495731467 -0.002991993393940592 0.002926182111020802
128 -0.0025033953537109454 -0.0012316996097447089 0.0012655688893863121
129 0.004241382703682548 -0.0038494870538268887 -0.0028658466326760166
137 -0.006306364683762148 0.0036528246646538036 -0.001076196072354972
138 -0.0038461125124258618 0.005415985710659536 0.001275002210430254
141 -0.0020156344158166134 -0.0012206153016149444 0.0012980205090166303
142 0.001557008830872119 0.0037681226749077612 0.0011670116897958402
143 -0.0017437438707312482 0.00045456065468685135 0.0051228627604945195
144 -0.0003703236093870364 0.006395217222834457 0.0034686905690475265
145 -0.0022877195879651576 -0.00493976778784304 0.006664763590107075
146 0.0009463557207234288 0.003928418765349856 0.006416958061655952
147 0.0011335110114167244 0.0006763574982316477 0.0026623909495452304
157 0.0019120754050421383 -0.00035545553034728076 0.003006850037529998
159 0.0066226564649499026 0.0025103124090637596 0.004215594242116141
163 0.008893660173298998 0.002061252280612508 -0.001104304164172206
164 -0.004150218420579197 0.003947465899039516 0.00486473082347859
165 0.004489898883961027 -0.00311242572648681 0.0026331836900489484
166 -0.0012629271617338627 -0.00021474419663802363 0.001979862774390421
167 -0.005706407205380278 0.004858441742313825 -0.0012763412267345097
168 -0.0036498225152203187 0.005015787273236956 -0.0017708862999881302
169 0.002715364412434856 0.0035271537970867225 -0.007749180281548102
170 0.000738814636013893 -0.002189686679119243 -0.0006174507949803066
171 0.001974630187693521 0.0030179921496443214 0.006638878946942268
175 0.0042580109621545795 0.0034235903961360066 -0.002552171184224565
177 -0.00247710710804842 0.00610981315852767 -0.003872218325665625
178 0.004585517022363911 0.003041367563576722 0.0014193068456758778
179 -0.005402886632727269 -0.002553032611653303 -0.0029396834279367843
183 0.0031781858753252915 0.0012113673024915681 0.0022657851202607833
184 -0.009167493622715938 -0.0029023467252024984 0.0023317787343777874
185 0.00035920883123253654 -0.00032621565677517936 -0.002264384569651127
186 -0.0003404739056879434 -0.00035526966824689767 -0.00014104318386025583
187 0.0007823350355902745 0.0033290100796528697 0.002548499625567562
188 0.005108693102571397 0.0009039314945998807 -0.004174355053151592
189 -0.0019326206114901492 0.004965380898620047 -0.0021319853071136903
195 -0.005150460726359513 -0.00846373340685748 -0.0003916536177261924
199 0.005395657065030249 -0.002474151875078219 -0.00716412093708976
200 0.000151143407808681 -0.001777486270585584 -0.00047469501357255526
201 0.0033611689453027574 0.005112437850407567 -0.0015364480717202603
205 -0.004435291752034718 -0.00017270238832413403 -0.0013254423311024703
206 -0.00580065496789095 0.001091553249505531 0.00600500551026518
207 -0.005916022017383324 -0.004963047502251084 -0.005268771509410665
208 0.00015246097450536916 -0.003056715561855327 -0.002973708741563985
209 -0.003932242215542552 -0.0013391752534153963 -0.000964345767744047
210 -0.0023262312975448752 -0.005226059855259548 0.0014654219064816395
211 -0.003730581322473845 0.0010059808076753876 -0.0006761082915224405