LAMMPS (2 Aug 2023 - Update 2)
OMP_NUM_THREADS environment is not set. Defaulting to 1 thread. (src/comm.cpp:98)
  using 1 OpenMP thread(s) per MPI task
Reading data file ...
  triclinic box = (0.87691184 0.2673559 -0.011415924) to (16.737488 14.716444 17.475616) with tilt (-6.4428995 0.91810762 -0.039342292)
  2 by 2 by 2 MPI processor grid
  reading atoms ...
  365 atoms
  reading velocities ...
  365 velocities
Finding 1-2 1-3 1-4 neighbors ...
  special bond factors lj:    0        0        0       
  special bond factors coul:  0        0        0       
     0 = max # of 1-2 neighbors
     0 = max # of 1-3 neighbors
     0 = max # of 1-4 neighbors
     1 = max # of special neighbors
  special bonds CPU = 0.001 seconds
  read_data CPU = 0.009 seconds
*****Minimization starts.*****
Setting up cg style minimization ...
  Unit style    : real
  Current step  : 0
WARNING: No pairwise cutoff or binsize set. Atom sorting therefore disabled. (src/atom.cpp:2366)
WARNING: Communication cutoff is 0.0. No ghost atoms will be generated. Atoms may get lost. (src/comm_brick.cpp:210)
Per MPI rank memory allocation (min/avg/max) = 6.365 | 6.365 | 6.365 Mbytes
   Step          Temp          E_pair         E_mol          TotEng         Press     
         0   300            0              0              325.50446      3712.9088    
         1   300            0              0              325.50446      3712.9088    
Loop time of 4.90299e-05 on 8 procs for 1 steps with 365 atoms

52.8% CPU use with 8 MPI tasks x 1 OpenMP threads

Minimization stats:
  Stopping criterion = search direction is not downhill
  Energy initial, next-to-last, final = 
                     0                  0                  0
  Force two-norm initial, final = 0 0
  Force max component initial, final = 0 0
  Final line search alpha, max atom move = 0 0
  Iterations, force evaluations = 1 0

MPI task timing breakdown:
Section |  min time  |  avg time  |  max time  |%varavg| %total
---------------------------------------------------------------
Pair    | 0          | 0          | 0          |   0.0 |  0.00
Bond    | 1.1e-07    | 1.555e-07  | 2.08e-07   |   0.0 |  0.32
Neigh   | 0          | 0          | 0          |   0.0 |  0.00
Comm    | 1.027e-06  | 1.3045e-06 | 1.56e-06   |   0.0 |  2.66
Output  | 0          | 0          | 0          |   0.0 |  0.00
Modify  | 0          | 0          | 0          |   0.0 |  0.00
Other   |            | 4.757e-05  |            |       | 97.02

Nlocal:         45.625 ave          54 max          40 min
Histogram: 2 0 2 0 0 2 0 1 0 1
Nghost:              0 ave           0 max           0 min
Histogram: 8 0 0 0 0 0 0 0 0 0
Neighs:              0 ave           0 max           0 min
Histogram: 8 0 0 0 0 0 0 0 0 0

Total # of neighbors = 0
Ave neighs/atom = 0
Ave special neighs/atom = 0
Neighbor list builds = 0
Dangerous builds = 0
WARNING: New thermo_style command, previous thermo_modify settings will be lost (src/output.cpp:903)

CITE-CITE-CITE-CITE-CITE-CITE-CITE-CITE-CITE-CITE-CITE-CITE-CITE

Your simulation uses code contributions which should be cited:
- pair reaxff command: doi:10.1016/j.parco.2011.08.005
- fix qeq/reaxff command: doi:10.1016/j.parco.2011.08.005
The log file lists these citations in BibTeX format.

CITE-CITE-CITE-CITE-CITE-CITE-CITE-CITE-CITE-CITE-CITE-CITE-CITE

Neighbor list info ...
  update: every = 10 steps, delay = 0 steps, check = no
  max neighbors/atom: 2000, page size: 100000
  master list distance cutoff = 12
  ghost atom cutoff = 12
  binsize = 6, bins = 4 3 3
  2 neighbor lists, perpetual/occasional/extra = 2 0 0
  (1) pair reaxff, perpetual
      attributes: half, newton off, ghost
      pair build: half/bin/newtoff/ghost
      stencil: full/ghost/bin/3d
      bin: standard
  (2) fix qeq/reaxff, perpetual, copy from (1)
      attributes: half, newton off
      pair build: copy
      stencil: none
      bin: none
Setting up Verlet run ...
  Unit style    : real
  Current step  : 0
  Time step     : 0.5
Per MPI rank memory allocation (min/avg/max) = 120.9 | 122.8 | 124 Mbytes
   Step          Temp          PotEng         Press        f_avgp[1]       Density         Volume    
         0   300           -42614.218      5198.3922      0              1.6496984      4007.5182    
       100   287.29049     -42601.738     -3517.5328      4842.3402      1.6496984      4007.5182    
       200   291.63329     -42621.936      3022.2557      3876.768       1.6496984      4007.5182    
       300   281.64428     -42638.142     -6320.4772      1649.6672      1.6496984      4007.5182    
       400   291.61346     -42636.1        7999.5118      2167.8822      1.6496984      4007.5182    
       500   305.95564     -42627.339      9631.5701      7328.9427      1.6496984      4007.5182    
       600   311.36077     -42628.89      -4080.871       6605.2248      1.6496984      4007.5182    
       700   303.38289     -42624.688      6777.5177      8140.3287      1.6496984      4007.5182    
       800   306.30616     -42645.432     -3967.1884      6250.0964      1.6496984      4007.5182    
       900   287.30422     -42651.621      4894.5754      2160.9395      1.6496984      4007.5182    
      1000   292.9053      -42663.404     -19925.933      2291.2657      1.6496984      4007.5182    
      1100   288.25939     -42620.965      504.43832      6635.9307      1.6496984      4007.5182    
      1200   307.43241     -42623.644      4874.8142      5174.8195      1.6496984      4007.5182    
      1300   316.16868     -42631.365     -385.52272      4949.6048      1.6496984      4007.5182    
      1400   308.42489     -42643.951     -3569.5198      8183.6058      1.6496984      4007.5182    
      1500   287.59532     -42643.18      -6674.6163      3036.2112      1.6496984      4007.5182    
      1600   315.25347     -42669.138      1417.8125      7299.0973      1.6496984      4007.5182    
      1700   295.24719     -42628.798      3106.3508      2877.0614      1.6496984      4007.5182    
      1800   272.06676     -42599.061     -14713.11      -93.387003      1.6496984      4007.5182    
      1900   288.10786     -42618.928      5640.9627     -23.467188      1.6496984      4007.5182    
      2000   289.66258     -42620.971      4815.5946      5354.0586      1.6496984      4007.5182    
Loop time of 89.4812 on 8 procs for 2000 steps with 365 atoms

Performance: 0.966 ns/day, 24.856 hours/ns, 22.351 timesteps/s, 8.158 katom-step/s
98.9% CPU use with 8 MPI tasks x 1 OpenMP threads

MPI task timing breakdown:
Section |  min time  |  avg time  |  max time  |%varavg| %total
---------------------------------------------------------------
Pair    | 48.582     | 64.394     | 74.482     | 141.6 | 71.96
Bond    | 0.00062964 | 0.00073608 | 0.00088509 |   0.0 |  0.00
Neigh   | 4.4751     | 5.8118     | 6.8949     |  42.3 |  6.50
Comm    | 0.65727    | 10.76      | 26.554     | 346.1 | 12.02
Output  | 0.0010809  | 0.0011993  | 0.0016633  |   0.5 |  0.00
Modify  | 7.3634     | 8.4758     | 9.8392     |  35.7 |  9.47
Other   |            | 0.03769    |            |       |  0.04

Nlocal:         45.625 ave          50 max          40 min
Histogram: 2 0 0 1 0 0 1 0 2 2
Nghost:        3175.38 ave        3205 max        3131 min
Histogram: 1 0 0 2 0 1 1 0 0 3
Neighs:        28986.1 ave       31738 max       25550 min
Histogram: 2 0 0 1 0 0 1 2 0 2

Total # of neighbors = 231889
Ave neighs/atom = 635.31233
Ave special neighs/atom = 0
Neighbor list builds = 200
Dangerous builds not checked
System init for write_data ...
System init for write_restart ...
OMP_NUM_THREADS environment is not set. Defaulting to 1 thread. (src/comm.cpp:98)
  using 1 OpenMP thread(s) per MPI task
Reading restart file ...
  restart file = 2 Aug 2023, LAMMPS = 2 Aug 2023
  restoring atom style full from restart
  triclinic box = (0.87691184 0.2673559 -0.011415924) to (16.737488 14.716444 17.475616) with tilt (-6.4428995 0.91810762 -0.039342292)
  2 by 2 by 2 MPI processor grid
  pair style reaxff stores no restart info
  365 atoms
Finding 1-2 1-3 1-4 neighbors ...
  special bond factors lj:    0        0        0       
  special bond factors coul:  0        0        0       
     0 = max # of 1-2 neighbors
     0 = max # of 1-3 neighbors
     0 = max # of 1-4 neighbors
     1 = max # of special neighbors
  special bonds CPU = 0.000 seconds
  read_restart CPU = 0.003 seconds
*****Negative-deform 1 starts.*****
Resetting global fix info from restart file:
  fix style: nvt, fix ID: 4
All restart file global fix info was re-assigned
Neighbor list info ...
  update: every = 10 steps, delay = 0 steps, check = no
  max neighbors/atom: 2000, page size: 100000
  master list distance cutoff = 12
  ghost atom cutoff = 12
  binsize = 6, bins = 4 3 3
  2 neighbor lists, perpetual/occasional/extra = 2 0 0
  (1) pair reaxff, perpetual
      attributes: half, newton off, ghost
      pair build: half/bin/newtoff/ghost
      stencil: full/ghost/bin/3d
      bin: standard
  (2) fix qeq/reaxff, perpetual, copy from (1)
      attributes: half, newton off
      pair build: copy
      stencil: none
      bin: none
Setting up Verlet run ...
  Unit style    : real
  Current step  : 0
  Time step     : 0.5
Per MPI rank memory allocation (min/avg/max) = 122 | 123.6 | 124.7 Mbytes
   Step          Temp          PotEng         Press        f_avgp[1]        Volume    
         0   289.66258     -42620.971      4815.5916      0              4007.5182    
       100   317.21906     -42639.52       16845.82       3726.1105      4005.5145    
       200   290.25038     -42618.985      5918.614       1823.2549      4003.5107    
       300   298.65246     -42655.594      13349.413      7012.9079      4001.507     
       400   272.43579     -42641.748     -4482.6323      1294.6504      3999.5032    
       500   301.89832     -42659.401      2840.7557      3447.3725      3997.4994    
       600   305.77323     -42634.04       12562.084      1997.8765      3995.4957    
       700   317.35333     -42645.771      6961.7909      4964.5399      3993.4919    
       800   297.87605     -42639.794      4356.0504      1110.2172      3991.4882    
       900   285.82006     -42636.484     -8152.9335      2327.087       3989.4844    
      1000   296.03139     -42629.195     -1827.8123      2407.7411      3987.4806    
      1100   304.03531     -42607.424     -4875.9122      277.39739      3985.4769    
      1200   322.04537     -42628.967      2347.3836      7139.1471      3983.4731    
      1300   299.68009     -42626.432      5194.8799      7933.61        3981.4694    
      1400   301.06186     -42638.371      4280.686       4866.5982      3979.4656    
      1500   305.51421     -42650.334     -2892.9461      844.08092      3977.4618    
      1600   290.83781     -42637.505      4536.0627      7967.3094      3975.4581    
      1700   312.83712     -42642.267      4135.0426      2082.9745      3973.4543    
      1800   313.00814     -42639.306      4828.4658      11640.907      3971.4506    
      1900   303.01439     -42660.955      818.70791      1323.8312      3969.4468    
      2000   287.20627     -42657.919     -6778.0784      2563.5089      3967.4431    
Loop time of 90.1359 on 8 procs for 2000 steps with 365 atoms

Performance: 0.959 ns/day, 25.038 hours/ns, 22.189 timesteps/s, 8.099 katom-step/s
98.9% CPU use with 8 MPI tasks x 1 OpenMP threads

MPI task timing breakdown:
Section |  min time  |  avg time  |  max time  |%varavg| %total
---------------------------------------------------------------
Pair    | 49.047     | 63.388     | 73.316     | 115.0 | 70.33
Bond    | 0.00059571 | 0.0006977  | 0.0008114  |   0.0 |  0.00
Neigh   | 4.4826     | 5.7119     | 6.7379     |  34.0 |  6.34
Comm    | 2.3603     | 12.275     | 26.603     | 261.1 | 13.62
Output  | 0.0041967  | 0.0050182  | 0.0056267  |   0.7 |  0.01
Modify  | 7.6659     | 8.7174     | 9.9677     |  28.1 |  9.67
Other   |            | 0.03781    |            |       |  0.04

Nlocal:         45.625 ave          54 max          38 min
Histogram: 1 1 1 1 0 1 0 1 1 1
Nghost:        3172.88 ave        3216 max        3110 min
Histogram: 1 0 1 1 0 1 1 0 0 3
Neighs:        29247.5 ave       34462 max       24438 min
Histogram: 1 1 1 1 0 1 0 1 1 1

Total # of neighbors = 233980
Ave neighs/atom = 641.0411
Ave special neighs/atom = 0
Neighbor list builds = 200
Dangerous builds not checked
OMP_NUM_THREADS environment is not set. Defaulting to 1 thread. (src/comm.cpp:98)
  using 1 OpenMP thread(s) per MPI task
Reading restart file ...
  restart file = 2 Aug 2023, LAMMPS = 2 Aug 2023
  restoring atom style full from restart
  triclinic box = (0.87691184 0.2673559 -0.011415924) to (16.737488 14.716444 17.475616) with tilt (-6.4428995 0.91810762 -0.039342292)
  2 by 2 by 2 MPI processor grid
  pair style reaxff stores no restart info
  365 atoms
Finding 1-2 1-3 1-4 neighbors ...
  special bond factors lj:    0        0        0       
  special bond factors coul:  0        0        0       
     0 = max # of 1-2 neighbors
     0 = max # of 1-3 neighbors
     0 = max # of 1-4 neighbors
     1 = max # of special neighbors
  special bonds CPU = 0.000 seconds
  read_restart CPU = 0.003 seconds
*****Positive-deform 1 starts.*****
Resetting global fix info from restart file:
  fix style: nvt, fix ID: 4
All restart file global fix info was re-assigned
Neighbor list info ...
  update: every = 10 steps, delay = 0 steps, check = no
  max neighbors/atom: 2000, page size: 100000
  master list distance cutoff = 12
  ghost atom cutoff = 12
  binsize = 6, bins = 4 3 3
  2 neighbor lists, perpetual/occasional/extra = 2 0 0
  (1) pair reaxff, perpetual
      attributes: half, newton off, ghost
      pair build: half/bin/newtoff/ghost
      stencil: full/ghost/bin/3d
      bin: standard
  (2) fix qeq/reaxff, perpetual, copy from (1)
      attributes: half, newton off
      pair build: copy
      stencil: none
      bin: none
Setting up Verlet run ...
  Unit style    : real
  Current step  : 0
  Time step     : 0.5
Per MPI rank memory allocation (min/avg/max) = 122 | 123.6 | 124.7 Mbytes
   Step          Temp          PotEng         Press        f_avgp[1]        Volume    
         0   289.66258     -42620.971      4815.5916      0              4007.5182    
       100   317.21906     -42639.52       16828.983      3724.5812      4009.522     
       200   289.05096     -42617.521      5750.1954      1731.2284      4011.5258    
       300   304.08964     -42661.298      9931.3133      3981.7155      4013.5295    
       400   273.98289     -42643.817     -6194.3824     -1501.9624      4015.5333    
       500   297.26649     -42655.125      2551.6399      578.94537      4017.537     
       600   300.62134     -42624.361      4748.7369      1896.7429      4019.5408    
       700   320.73063     -42644.953      6723.2063      95.458408      4021.5445    
       800   298.54558     -42635.427     -46.412464     -3092.4178      4023.5483    
       900   289.93814     -42641.241     -127.62126      2054.8975      4025.5521    
      1000   283.12912     -42631.439     -6204.0943      17.556478      4027.5558    
      1100   309.6292      -42622.529     -6962.6881     -679.44333      4029.5596    
      1200   317.24768     -42621.42      -5749.2999      3185.676       4031.5633    
      1300   298.3985      -42619.208     -3398.3941     -719.07045      4033.5671    
      1400   312.09575     -42651.758      1554.073      -3653.9108      4035.5709    
      1500   286.22024     -42627.725     -4035.2144     -1938.3478      4037.5746    
      1600   297.90635     -42635.908      2985.3916     -2013.7672      4039.5784    
      1700   300.53777     -42634.985     -5468.9217     -1504.9293      4041.5821    
      1800   322.08114     -42650.836     -4264.3071      4381.0609      4043.5859    
      1900   301.76411     -42630.638     -1617.451       2218.2398      4045.5897    
      2000   308.48267     -42653.503      5490.4919      542.24428      4047.5934    
Loop time of 87.265 on 8 procs for 2000 steps with 365 atoms

Performance: 0.990 ns/day, 24.240 hours/ns, 22.919 timesteps/s, 8.365 katom-step/s
99.0% CPU use with 8 MPI tasks x 1 OpenMP threads

MPI task timing breakdown:
Section |  min time  |  avg time  |  max time  |%varavg| %total
---------------------------------------------------------------
Pair    | 49.361     | 55.694     | 72.1       | 118.3 | 63.82
Bond    | 0.00057827 | 0.00066799 | 0.00082268 |   0.0 |  0.00
Neigh   | 4.4451     | 5.0177     | 6.4424     |  35.4 |  5.75
Comm    | 0.5055     | 16.908     | 23.237     | 214.7 | 19.38
Output  | 0.0038888  | 0.0046046  | 0.0050848  |   0.6 |  0.01
Modify  | 8.1718     | 9.607      | 10.187     |  25.8 | 11.01
Other   |            | 0.03232    |            |       |  0.04

Nlocal:         45.625 ave          54 max          40 min
Histogram: 2 0 2 0 1 1 0 1 0 1
Nghost:        3130.62 ave        3186 max        3071 min
Histogram: 1 1 0 0 2 1 1 0 1 1
Neighs:        28677.5 ave       33694 max       25499 min
Histogram: 2 0 2 1 1 0 0 1 0 1

Total # of neighbors = 229420
Ave neighs/atom = 628.54795
Ave special neighs/atom = 0
Neighbor list builds = 200
Dangerous builds not checked
OMP_NUM_THREADS environment is not set. Defaulting to 1 thread. (src/comm.cpp:98)
  using 1 OpenMP thread(s) per MPI task
Reading restart file ...
  restart file = 2 Aug 2023, LAMMPS = 2 Aug 2023
  restoring atom style full from restart
  triclinic box = (0.87691184 0.2673559 -0.011415924) to (16.737488 14.716444 17.475616) with tilt (-6.4428995 0.91810762 -0.039342292)
  2 by 2 by 2 MPI processor grid
  pair style reaxff stores no restart info
  365 atoms
Finding 1-2 1-3 1-4 neighbors ...
  special bond factors lj:    0        0        0       
  special bond factors coul:  0        0        0       
     0 = max # of 1-2 neighbors
     0 = max # of 1-3 neighbors
     0 = max # of 1-4 neighbors
     1 = max # of special neighbors
  special bonds CPU = 0.000 seconds
  read_restart CPU = 0.003 seconds
*****Negative-deform 2 starts.*****
Resetting global fix info from restart file:
  fix style: nvt, fix ID: 4
All restart file global fix info was re-assigned
Neighbor list info ...
  update: every = 10 steps, delay = 0 steps, check = no
  max neighbors/atom: 2000, page size: 100000
  master list distance cutoff = 12
  ghost atom cutoff = 12
  binsize = 6, bins = 4 3 3
  2 neighbor lists, perpetual/occasional/extra = 2 0 0
  (1) pair reaxff, perpetual
      attributes: half, newton off, ghost
      pair build: half/bin/newtoff/ghost
      stencil: full/ghost/bin/3d
      bin: standard
  (2) fix qeq/reaxff, perpetual, copy from (1)
      attributes: half, newton off
      pair build: copy
      stencil: none
      bin: none
Setting up Verlet run ...
  Unit style    : real
  Current step  : 0
  Time step     : 0.5
Per MPI rank memory allocation (min/avg/max) = 122 | 123.6 | 124.7 Mbytes
   Step          Temp          PotEng         Press        f_avgp[1]        Volume    
         0   289.66258     -42620.971      4815.5916      0              4007.5182    
       100   317.21906     -42639.52       16845.82       3726.1105      4005.5145    
       200   289.7275      -42618.267      5541.426       1770.8075      4003.5107    
       300   299.64455     -42656.551      9656.9683      5822.3095      4001.507     
       400   272.92347     -42643.386     -1286.483       1845.3452      3999.5032    
       500   299.94225     -42659.489     -8940.5735      2028.6527      3997.4994    
       600   299.5525      -42625.93      -5327.4654      2834.2316      3995.4957    
       700   299.68499     -42623.24       1469.7233      3002.9576      3993.4919    
       800   309.08653     -42643.329      6929.418       2276.8345      3991.4882    
       900   301.95366     -42653.19       8975.2772      6478.2445      3989.4844    
      1000   275.85266     -42626.65      -8080.1804      4156.1175      3987.4806    
      1100   303.7958      -42628.422     -869.04815      4235.197       3985.4769    
      1200   320.04224     -42626.259     -5727.2145      3394.143       3983.4731    
      1300   298.7212      -42611.524     -4340.7637      4821.3895      3981.4694    
      1400   284.56895     -42631.691     -4312.4257      5127.394       3979.4656    
      1500   294.35172     -42647.346      1238.7719      9044.4001      3977.4618    
      1600   317.37982     -42666.078     -3779.8575      4442.4222      3975.4581    
      1700   302.61242     -42636.056      5763.7461      1566.1189      3973.4543    
      1800   320.69918     -42641.453     -3624.0764      4437.5546      3971.4506    
      1900   297.28955     -42625.109      6929.9764      8041.2482      3969.4468    
      2000   296.44841     -42657.588     -3550.8027     -1316.8948      3967.4431    
Loop time of 88.9024 on 8 procs for 2000 steps with 365 atoms

Performance: 0.972 ns/day, 24.695 hours/ns, 22.497 timesteps/s, 8.211 katom-step/s
99.1% CPU use with 8 MPI tasks x 1 OpenMP threads

MPI task timing breakdown:
Section |  min time  |  avg time  |  max time  |%varavg| %total
---------------------------------------------------------------
Pair    | 50.714     | 56.995     | 73.621     | 118.4 | 64.11
Bond    | 0.00057338 | 0.0006432  | 0.00078624 |   0.0 |  0.00
Neigh   | 4.5099     | 5.0693     | 6.5382     |  35.5 |  5.70
Comm    | 0.50466    | 17.122     | 23.401     | 215.9 | 19.26
Output  | 0.0040104  | 0.0046554  | 0.0051474  |   0.6 |  0.01
Modify  | 8.2032     | 9.6785     | 10.243     |  25.9 | 10.89
Other   |            | 0.03259    |            |       |  0.04

Nlocal:         45.625 ave          57 max          39 min
Histogram: 1 3 1 0 0 0 2 0 0 1
Nghost:        3197.25 ave        3239 max        3153 min
Histogram: 1 1 0 2 0 0 0 3 0 1
Neighs:        29223.1 ave       36128 max       25056 min
Histogram: 1 3 1 0 0 1 1 0 0 1

Total # of neighbors = 233785
Ave neighs/atom = 640.50685
Ave special neighs/atom = 0
Neighbor list builds = 200
Dangerous builds not checked
OMP_NUM_THREADS environment is not set. Defaulting to 1 thread. (src/comm.cpp:98)
  using 1 OpenMP thread(s) per MPI task
Reading restart file ...
  restart file = 2 Aug 2023, LAMMPS = 2 Aug 2023
  restoring atom style full from restart
  triclinic box = (0.87691184 0.2673559 -0.011415924) to (16.737488 14.716444 17.475616) with tilt (-6.4428995 0.91810762 -0.039342292)
  2 by 2 by 2 MPI processor grid
  pair style reaxff stores no restart info
  365 atoms
Finding 1-2 1-3 1-4 neighbors ...
  special bond factors lj:    0        0        0       
  special bond factors coul:  0        0        0       
     0 = max # of 1-2 neighbors
     0 = max # of 1-3 neighbors
     0 = max # of 1-4 neighbors
     1 = max # of special neighbors
  special bonds CPU = 0.000 seconds
  read_restart CPU = 0.002 seconds
*****Positive-deform 2 starts.*****
Resetting global fix info from restart file:
  fix style: nvt, fix ID: 4
All restart file global fix info was re-assigned
Neighbor list info ...
  update: every = 10 steps, delay = 0 steps, check = no
  max neighbors/atom: 2000, page size: 100000
  master list distance cutoff = 12
  ghost atom cutoff = 12
  binsize = 6, bins = 4 3 3
  2 neighbor lists, perpetual/occasional/extra = 2 0 0
  (1) pair reaxff, perpetual
      attributes: half, newton off, ghost
      pair build: half/bin/newtoff/ghost
      stencil: full/ghost/bin/3d
      bin: standard
  (2) fix qeq/reaxff, perpetual, copy from (1)
      attributes: half, newton off
      pair build: copy
      stencil: none
      bin: none
Setting up Verlet run ...
  Unit style    : real
  Current step  : 0
  Time step     : 0.5
Per MPI rank memory allocation (min/avg/max) = 122 | 123.6 | 124.7 Mbytes
   Step          Temp          PotEng         Press        f_avgp[1]        Volume    
         0   289.66258     -42620.971      4815.5916      0              4007.5182    
       100   317.21906     -42639.52       16828.983      3724.5812      4009.522     
       200   289.57095     -42618.724      7300.6729      1953.7577      4011.5258    
       300   304.33597     -42660.976      10713.222      5662.3462      4013.5295    
       400   269.22442     -42638.984     -1450.6988      2654.925       4015.5333    
       500   295.71938     -42652.162      4447.7803      1756.1637      4017.537     
       600   297.68513     -42619.963      1904.7748      454.2776       4019.5408    
       700   298.98671     -42621.973     -282.99201      1590.7353      4021.5445    
       800   300.97622     -42638.131     -3276.5237     -2912.9158      4023.5483    
       900   275.81351     -42626.992     -341.56191     -1541.0464      4025.5521    
      1000   290.92616     -42635.196     -1143.9391      3998.2439      4027.5558    
      1100   311.80173     -42620.076      5638.1964      3514.2296      4029.5596    
      1200   324.8602      -42627.833      2713.844       5697.8939      4031.5633    
      1300   312.48157     -42634.995      7603.427       693.50859      4033.5671    
      1400   300.222       -42640.021     -11413.02       1277.2979      4035.5709    
      1500   305.39683     -42649.048     -539.94335      1721.9232      4037.5746    
      1600   302.84928     -42644.633     -9353.916       1053.6676      4039.5784    
      1700   279.51354     -42612.257      8423.2066      461.16022      4041.5821    
      1800   320.72959     -42626.179     -6041.9853      3257.3079      4043.5859    
      1900   308.5169      -42617.716     -3467.1868      7913.3976      4045.5897    
      2000   310.10096     -42653.094      6406.0929      1374.998       4047.5934    
Loop time of 86.9756 on 8 procs for 2000 steps with 365 atoms

Performance: 0.993 ns/day, 24.160 hours/ns, 22.995 timesteps/s, 8.393 katom-step/s
99.0% CPU use with 8 MPI tasks x 1 OpenMP threads

MPI task timing breakdown:
Section |  min time  |  avg time  |  max time  |%varavg| %total
---------------------------------------------------------------
Pair    | 49.355     | 55.443     | 71.885     | 117.2 | 63.75
Bond    | 0.00058979 | 0.00067799 | 0.00081203 |   0.0 |  0.00
Neigh   | 4.437      | 4.991      | 6.4433     |  35.3 |  5.74
Comm    | 0.49821    | 16.937     | 23.023     | 212.0 | 19.47
Output  | 0.0039077  | 0.0045693  | 0.0050499  |   0.6 |  0.01
Modify  | 8.1068     | 9.5667     | 10.126     |  25.6 | 11.00
Other   |            | 0.03248    |            |       |  0.04

Nlocal:         45.625 ave          52 max          40 min
Histogram: 2 0 1 0 1 2 0 0 0 2
Nghost:        3142.62 ave        3185 max        3097 min
Histogram: 1 1 2 0 0 0 1 0 1 2
Neighs:        28672.6 ave       32558 max       25235 min
Histogram: 2 0 1 0 1 2 0 0 0 2

Total # of neighbors = 229381
Ave neighs/atom = 628.4411
Ave special neighs/atom = 0
Neighbor list builds = 200
Dangerous builds not checked
OMP_NUM_THREADS environment is not set. Defaulting to 1 thread. (src/comm.cpp:98)
  using 1 OpenMP thread(s) per MPI task
Reading restart file ...
  restart file = 2 Aug 2023, LAMMPS = 2 Aug 2023
  restoring atom style full from restart
  triclinic box = (0.87691184 0.2673559 -0.011415924) to (16.737488 14.716444 17.475616) with tilt (-6.4428995 0.91810762 -0.039342292)
  2 by 2 by 2 MPI processor grid
  pair style reaxff stores no restart info
  365 atoms
Finding 1-2 1-3 1-4 neighbors ...
  special bond factors lj:    0        0        0       
  special bond factors coul:  0        0        0       
     0 = max # of 1-2 neighbors
     0 = max # of 1-3 neighbors
     0 = max # of 1-4 neighbors
     1 = max # of special neighbors
  special bonds CPU = 0.000 seconds
  read_restart CPU = 0.003 seconds
*****Negative-deform 3 starts.*****
Resetting global fix info from restart file:
  fix style: nvt, fix ID: 4
All restart file global fix info was re-assigned
Neighbor list info ...
  update: every = 10 steps, delay = 0 steps, check = no
  max neighbors/atom: 2000, page size: 100000
  master list distance cutoff = 12
  ghost atom cutoff = 12
  binsize = 6, bins = 4 3 3
  2 neighbor lists, perpetual/occasional/extra = 2 0 0
  (1) pair reaxff, perpetual
      attributes: half, newton off, ghost
      pair build: half/bin/newtoff/ghost
      stencil: full/ghost/bin/3d
      bin: standard
  (2) fix qeq/reaxff, perpetual, copy from (1)
      attributes: half, newton off
      pair build: copy
      stencil: none
      bin: none
Setting up Verlet run ...
  Unit style    : real
  Current step  : 0
  Time step     : 0.5
Per MPI rank memory allocation (min/avg/max) = 122 | 123.6 | 124.6 Mbytes
   Step          Temp          PotEng         Press        f_avgp[1]        Volume    
         0   289.66258     -42620.971      4815.5916      0              4007.5182    
       100   317.21906     -42639.52       16845.82       3726.1105      4005.5145    
       200   290.13046     -42618.641      6816.1327      1797.3839      4003.5107    
       300   304.47732     -42662.172      11426.044      7367.0257      4001.507     
       400   273.32002     -42642.803     -5394.2257      2205.004       3999.5032    
       500   302.70711     -42659.137     -4485.0963      1672.7051      3997.4994    
       600   296.12877     -42624.507      8228.6377      3421.5231      3995.4957    
       700   309.1116      -42638.376      632.22631      3758.9572      3993.4919    
       800   285.82915     -42626.894      12860.852     -322.42519      3991.4882    
       900   277.522       -42625.586      3794.9091      3436.0494      3989.4844    
      1000   305.76333     -42637.386      4511.8423      3869.3589      3987.4806    
      1100   318.76757     -42619.977      10668.634      4375.2984      3985.4769    
      1200   314.19726     -42614.797     -2104.1458      7888.8635      3983.4731    
      1300   310.26447     -42632.953      12102.004      6320.4087      3981.4694    
      1400   283.99821     -42618.039      2692.3144      5.783699       3979.4656    
      1500   305.58509     -42650.392     -5531.3537      2386.3752      3977.4618    
      1600   287.81428     -42639.445      505.94962      3969.5522      3975.4581    
      1700   283.87619     -42646.863      4683.358      -2084.2649      3973.4543    
      1800   285.97698     -42662.375     -6948.4809      3864.357       3971.4506    
      1900   286.17911     -42652.122     -7779.5304      6652.8196      3969.4468    
      2000   295.37128     -42628.749     -833.59861      9770.5377      3967.4431    
Loop time of 88.0498 on 8 procs for 2000 steps with 365 atoms

Performance: 0.981 ns/day, 24.458 hours/ns, 22.714 timesteps/s, 8.291 katom-step/s
99.0% CPU use with 8 MPI tasks x 1 OpenMP threads

MPI task timing breakdown:
Section |  min time  |  avg time  |  max time  |%varavg| %total
---------------------------------------------------------------
Pair    | 50.165     | 56.203     | 72.801     | 117.5 | 63.83
Bond    | 0.00056167 | 0.0006158  | 0.00072877 |   0.0 |  0.00
Neigh   | 4.4853     | 5.053      | 6.5226     |  35.9 |  5.74
Comm    | 0.50118    | 17.095     | 23.127     | 213.0 | 19.42
Output  | 0.0039285  | 0.004634   | 0.0051897  |   0.6 |  0.01
Modify  | 8.1801     | 9.6609     | 10.238     |  26.2 | 10.97
Other   |            | 0.03213    |            |       |  0.04

Nlocal:         45.625 ave          55 max          39 min
Histogram: 1 1 2 1 0 1 0 1 0 1
Nghost:        3182.38 ave        3219 max        3130 min
Histogram: 1 0 2 0 0 1 0 1 0 3
Neighs:        29226.1 ave       35028 max       25429 min
Histogram: 1 1 2 1 0 1 0 1 0 1

Total # of neighbors = 233809
Ave neighs/atom = 640.5726
Ave special neighs/atom = 0
Neighbor list builds = 200
Dangerous builds not checked
OMP_NUM_THREADS environment is not set. Defaulting to 1 thread. (src/comm.cpp:98)
  using 1 OpenMP thread(s) per MPI task
Reading restart file ...
  restart file = 2 Aug 2023, LAMMPS = 2 Aug 2023
  restoring atom style full from restart
  triclinic box = (0.87691184 0.2673559 -0.011415924) to (16.737488 14.716444 17.475616) with tilt (-6.4428995 0.91810762 -0.039342292)
  2 by 2 by 2 MPI processor grid
  pair style reaxff stores no restart info
  365 atoms
Finding 1-2 1-3 1-4 neighbors ...
  special bond factors lj:    0        0        0       
  special bond factors coul:  0        0        0       
     0 = max # of 1-2 neighbors
     0 = max # of 1-3 neighbors
     0 = max # of 1-4 neighbors
     1 = max # of special neighbors
  special bonds CPU = 0.000 seconds
  read_restart CPU = 0.002 seconds
*****Positive-deform 3 starts.*****
Resetting global fix info from restart file:
  fix style: nvt, fix ID: 4
All restart file global fix info was re-assigned
Neighbor list info ...
  update: every = 10 steps, delay = 0 steps, check = no
  max neighbors/atom: 2000, page size: 100000
  master list distance cutoff = 12
  ghost atom cutoff = 12
  binsize = 6, bins = 4 3 3
  2 neighbor lists, perpetual/occasional/extra = 2 0 0
  (1) pair reaxff, perpetual
      attributes: half, newton off, ghost
      pair build: half/bin/newtoff/ghost
      stencil: full/ghost/bin/3d
      bin: standard
  (2) fix qeq/reaxff, perpetual, copy from (1)
      attributes: half, newton off
      pair build: copy
      stencil: none
      bin: none
Setting up Verlet run ...
  Unit style    : real
  Current step  : 0
  Time step     : 0.5
Per MPI rank memory allocation (min/avg/max) = 122 | 123.6 | 124.6 Mbytes
   Step          Temp          PotEng         Press        f_avgp[1]        Volume    
         0   289.66258     -42620.971      4815.5916      0              4007.5182    
       100   317.21906     -42639.52       16828.983      3724.5812      4009.522     
       200   289.2259      -42618.092      5580.251       1545.8422      4011.5258    
       300   303.49272     -42660.254      12154.652      4728.3285      4013.5295    
       400   267.25706     -42637.007     -8834.7359     -1846.6818      4015.5333    
       500   292.21404     -42649.714      4228.4843      1776.3495      4017.537     
       600   311.632       -42635.406      4290.999       2305.89        4019.5408    
       700   309.7204      -42634.267      19599.263      2898.8574      4021.5445    
       800   302.23527     -42640.229      5127.4733     -1100.3978      4023.5483    
       900   277.06918     -42632.932      4372.6333     -532.1635       4025.5521    
      1000   278.99781     -42640.005     -8328.1765      2017.1565      4027.5558    
      1100   294.37935     -42620.515      3941.7963     -775.36524      4029.5596    
      1200   318.35074     -42629.803     -5992.6878      1365.8081      4031.5633    
      1300   311.89861     -42638.814      9840.9831      6408.0333      4033.5671    
      1400   303.49928     -42650.785     -2238.8868      9032.9406      4035.5709    
      1500   300.24276     -42651.971     -9934.5633      4372.8038      4037.5746    
      1600   311.9339      -42663.867     -12708.387      638.82876      4039.5784    
      1700   280.52623     -42625.204      4722.9878     -812.24745      4041.5821    
      1800   295.2736      -42628.079     -4958.2458      1720.6907      4043.5859    
      1900   308.27439     -42637.6       -2208.6435      5156.9371      4045.5897    
      2000   304.13506     -42640.307      4085.2257      6356.8828      4047.5934    
Loop time of 87.0345 on 8 procs for 2000 steps with 365 atoms

Performance: 0.993 ns/day, 24.176 hours/ns, 22.979 timesteps/s, 8.387 katom-step/s
99.0% CPU use with 8 MPI tasks x 1 OpenMP threads

MPI task timing breakdown:
Section |  min time  |  avg time  |  max time  |%varavg| %total
---------------------------------------------------------------
Pair    | 49.242     | 55.091     | 71.801     | 118.2 | 63.30
Bond    | 0.00057213 | 0.00066194 | 0.00087686 |   0.0 |  0.00
Neigh   | 4.446      | 5.0065     | 6.4247     |  35.3 |  5.75
Comm    | 0.50821    | 17.217     | 23.059     | 211.4 | 19.78
Output  | 0.0038951  | 0.0045463  | 0.0050902  |   0.6 |  0.01
Modify  | 8.2516     | 9.6827     | 10.252     |  25.5 | 11.13
Other   |            | 0.03195    |            |       |  0.04

Nlocal:         45.625 ave          55 max          40 min
Histogram: 1 2 1 0 1 1 1 0 0 1
Nghost:        3148.62 ave        3190 max        3106 min
Histogram: 2 0 0 2 0 0 1 2 0 1
Neighs:          28704 ave       34343 max       25299 min
Histogram: 1 3 0 0 1 2 0 0 0 1

Total # of neighbors = 229632
Ave neighs/atom = 629.12877
Ave special neighs/atom = 0
Neighbor list builds = 200
Dangerous builds not checked
OMP_NUM_THREADS environment is not set. Defaulting to 1 thread. (src/comm.cpp:98)
  using 1 OpenMP thread(s) per MPI task
Reading restart file ...
  restart file = 2 Aug 2023, LAMMPS = 2 Aug 2023
  restoring atom style full from restart
  triclinic box = (0.87691184 0.2673559 -0.011415924) to (16.737488 14.716444 17.475616) with tilt (-6.4428995 0.91810762 -0.039342292)
  2 by 2 by 2 MPI processor grid
  pair style reaxff stores no restart info
  365 atoms
Finding 1-2 1-3 1-4 neighbors ...
  special bond factors lj:    0        0        0       
  special bond factors coul:  0        0        0       
     0 = max # of 1-2 neighbors
     0 = max # of 1-3 neighbors
     0 = max # of 1-4 neighbors
     1 = max # of special neighbors
  special bonds CPU = 0.000 seconds
  read_restart CPU = 0.003 seconds
*****Negative-deform 4 starts.*****
Resetting global fix info from restart file:
  fix style: nvt, fix ID: 4
All restart file global fix info was re-assigned
Neighbor list info ...
  update: every = 10 steps, delay = 0 steps, check = no
  max neighbors/atom: 2000, page size: 100000
  master list distance cutoff = 12
  ghost atom cutoff = 12
  binsize = 6, bins = 4 3 3
  2 neighbor lists, perpetual/occasional/extra = 2 0 0
  (1) pair reaxff, perpetual
      attributes: half, newton off, ghost
      pair build: half/bin/newtoff/ghost
      stencil: full/ghost/bin/3d
      bin: standard
  (2) fix qeq/reaxff, perpetual, copy from (1)
      attributes: half, newton off
      pair build: copy
      stencil: none
      bin: none
Setting up Verlet run ...
  Unit style    : real
  Current step  : 0
  Time step     : 0.5
Per MPI rank memory allocation (min/avg/max) = 122 | 123.6 | 124.7 Mbytes
   Step          Temp          PotEng         Press        f_avgp[1]        Volume    
         0   289.66258     -42620.971      4815.5916      0              4007.5182    
       100   317.21906     -42639.52       16837.398      3725.3455      4007.5182    
       200   289.83822     -42618.337      6016.8057      1749.639       4007.5182    
       300   302.00746     -42658.827      11902.785      4850.4905      4007.5182    
       400   273.61878     -42642.807     -5001.412      -337.95198      4007.5182    
       500   302.49645     -42657.461      1586.8376      295.25321      4007.5182    
       600   306.20279     -42632.42      -5563.986       2421.8814      4007.5182    
       700   297.18332     -42623.628      5208.721       927.68713      4007.5182    
       800   291.62407     -42630.845     -5751.0671     -2481.7628      4007.5182    
       900   292.1871      -42640.683     -686.83232      2198.2028      4007.5182    
      1000   288.6396      -42622.225      1447.7985      1440.3487      4007.5182    
      1100   323.09076     -42629.307      14008.291      3819.7547      4007.5182    
      1200   308.62382     -42617.742      5770.0047      3226.0961      4007.5182    
      1300   297.84827     -42628.204     -5267.2904      2297.6119      4007.5182    
      1400   286.20923     -42630.415     -8322.0552      3123.0163      4007.5182    
      1500   295.67954     -42639.269      1140.509       2930.3783      4007.5182    
      1600   301.52496     -42638.139      2312.8193     -1460.0407      4007.5182    
      1700   312.93741     -42634.536     -1682.2794     -1701.7829      4007.5182    
      1800   308.03844     -42602.475      7278.6088      5000.4564      4007.5182    
      1900   310.81099     -42615.333      17314.945      7017.0789      4007.5182    
      2000   294.79126     -42639.565     -2662.3837      4826.9589      4007.5182    
Loop time of 88.2764 on 8 procs for 2000 steps with 365 atoms

Performance: 0.979 ns/day, 24.521 hours/ns, 22.656 timesteps/s, 8.269 katom-step/s
99.1% CPU use with 8 MPI tasks x 1 OpenMP threads

MPI task timing breakdown:
Section |  min time  |  avg time  |  max time  |%varavg| %total
---------------------------------------------------------------
Pair    | 50.208     | 56.503     | 73.107     | 117.7 | 64.01
Bond    | 0.0005671  | 0.00064558 | 0.00073906 |   0.0 |  0.00
Neigh   | 4.4771     | 5.0397     | 6.4503     |  35.1 |  5.71
Comm    | 0.49405    | 17.094     | 23.384     | 213.9 | 19.36
Output  | 0.0038559  | 0.0044915  | 0.0050433  |   0.6 |  0.01
Modify  | 8.184      | 9.6023     | 10.172     |  25.6 | 10.88
Other   |            | 0.03218    |            |       |  0.04

Nlocal:         45.625 ave          52 max          39 min
Histogram: 1 1 1 0 0 2 1 0 0 2
Nghost:        3160.62 ave        3207 max        3101 min
Histogram: 1 0 1 1 1 0 1 0 1 2
Neighs:        28979.2 ave       32918 max       25206 min
Histogram: 1 1 1 0 2 0 1 0 0 2

Total # of neighbors = 231834
Ave neighs/atom = 635.16164
Ave special neighs/atom = 0
Neighbor list builds = 200
Dangerous builds not checked
OMP_NUM_THREADS environment is not set. Defaulting to 1 thread. (src/comm.cpp:98)
  using 1 OpenMP thread(s) per MPI task
Reading restart file ...
  restart file = 2 Aug 2023, LAMMPS = 2 Aug 2023
  restoring atom style full from restart
  triclinic box = (0.87691184 0.2673559 -0.011415924) to (16.737488 14.716444 17.475616) with tilt (-6.4428995 0.91810762 -0.039342292)
  2 by 2 by 2 MPI processor grid
  pair style reaxff stores no restart info
  365 atoms
Finding 1-2 1-3 1-4 neighbors ...
  special bond factors lj:    0        0        0       
  special bond factors coul:  0        0        0       
     0 = max # of 1-2 neighbors
     0 = max # of 1-3 neighbors
     0 = max # of 1-4 neighbors
     1 = max # of special neighbors
  special bonds CPU = 0.000 seconds
  read_restart CPU = 0.003 seconds
*****Positive-deform 4 starts.*****
Resetting global fix info from restart file:
  fix style: nvt, fix ID: 4
All restart file global fix info was re-assigned
Neighbor list info ...
  update: every = 10 steps, delay = 0 steps, check = no
  max neighbors/atom: 2000, page size: 100000
  master list distance cutoff = 12
  ghost atom cutoff = 12
  binsize = 6, bins = 4 3 3
  2 neighbor lists, perpetual/occasional/extra = 2 0 0
  (1) pair reaxff, perpetual
      attributes: half, newton off, ghost
      pair build: half/bin/newtoff/ghost
      stencil: full/ghost/bin/3d
      bin: standard
  (2) fix qeq/reaxff, perpetual, copy from (1)
      attributes: half, newton off
      pair build: copy
      stencil: none
      bin: none
Setting up Verlet run ...
  Unit style    : real
  Current step  : 0
  Time step     : 0.5
Per MPI rank memory allocation (min/avg/max) = 122 | 123.6 | 124.7 Mbytes
   Step          Temp          PotEng         Press        f_avgp[1]        Volume    
         0   289.66258     -42620.971      4815.5916      0              4007.5182    
       100   317.21906     -42639.52       16837.398      3725.3455      4007.5182    
       200   289.4694      -42618.324      6987.0973      1947.8327      4007.5182    
       300   301.05406     -42658.49       12005.442      5505.3783      4007.5182    
       400   272.76407     -42643.151     -1660.0939      1526.0149      4007.5182    
       500   300.34791     -42658.279      133.1143       390.8734       4007.5182    
       600   302.50009     -42628.433     -6299.3578      2242.7624      4007.5182    
       700   323.34811     -42649.184      5166.5317      4265.8492      4007.5182    
       800   291.11708     -42629.389      12309.929      530.85778      4007.5182    
       900   279.03185     -42625.312      7259.2266      2781.7455      4007.5182    
      1000   292.98402     -42628.271     -2637.0244      2699.795       4007.5182    
      1100   319.3592      -42626.067      3506.8569     -2001.4428      4007.5182    
      1200   315.32464     -42610.413     -4852.6081      2911.5776      4007.5182    
      1300   313.34067     -42630.387      10443.387      10156.324      4007.5182    
      1400   303.73498     -42642.627      4506.0409      103.27669      4007.5182    
      1500   297.1493      -42641.683     -4069.0207     -550.82334      4007.5182    
      1600   305.47304     -42654.762      5933.7245      340.47905      4007.5182    
      1700   304.36745     -42658.715     -502.82898      463.89668      4007.5182    
      1800   286.30072     -42647.001     -11752.488      7882.0976      4007.5182    
      1900   317.77638     -42674.634      1000.9827      1841.2141      4007.5182    
      2000   289.24101     -42635.987     -11732.196     -3400.3651      4007.5182    
Loop time of 88.2578 on 8 procs for 2000 steps with 365 atoms

Performance: 0.979 ns/day, 24.516 hours/ns, 22.661 timesteps/s, 8.271 katom-step/s
99.1% CPU use with 8 MPI tasks x 1 OpenMP threads

MPI task timing breakdown:
Section |  min time  |  avg time  |  max time  |%varavg| %total
---------------------------------------------------------------
Pair    | 50.794     | 56.739     | 72.768     | 114.5 | 64.29
Bond    | 0.00051067 | 0.00063577 | 0.000718   |   0.0 |  0.00
Neigh   | 4.4545     | 5.0799     | 6.732      |  39.6 |  5.76
Comm    | 0.4984     | 16.521     | 22.463     | 212.1 | 18.72
Output  | 0.0038806  | 0.0045158  | 0.0050289  |   0.6 |  0.01
Modify  | 8.2229     | 9.8815     | 10.511     |  28.6 | 11.20
Other   |            | 0.03198    |            |       |  0.04

Nlocal:         45.625 ave          53 max          39 min
Histogram: 1 1 1 0 0 2 0 2 0 1
Nghost:        3170.12 ave        3239 max        3094 min
Histogram: 1 0 1 1 1 0 2 0 1 1
Neighs:        28951.2 ave       33449 max       24847 min
Histogram: 1 1 1 0 2 0 0 2 0 1

Total # of neighbors = 231610
Ave neighs/atom = 634.54795
Ave special neighs/atom = 0
Neighbor list builds = 200
Dangerous builds not checked
OMP_NUM_THREADS environment is not set. Defaulting to 1 thread. (src/comm.cpp:98)
  using 1 OpenMP thread(s) per MPI task
Reading restart file ...
  restart file = 2 Aug 2023, LAMMPS = 2 Aug 2023
  restoring atom style full from restart
  triclinic box = (0.87691184 0.2673559 -0.011415924) to (16.737488 14.716444 17.475616) with tilt (-6.4428995 0.91810762 -0.039342292)
  2 by 2 by 2 MPI processor grid
  pair style reaxff stores no restart info
  365 atoms
Finding 1-2 1-3 1-4 neighbors ...
  special bond factors lj:    0        0        0       
  special bond factors coul:  0        0        0       
     0 = max # of 1-2 neighbors
     0 = max # of 1-3 neighbors
     0 = max # of 1-4 neighbors
     1 = max # of special neighbors
  special bonds CPU = 0.000 seconds
  read_restart CPU = 0.003 seconds
*****Negative-deform 5 starts.*****
Resetting global fix info from restart file:
  fix style: nvt, fix ID: 4
All restart file global fix info was re-assigned
Neighbor list info ...
  update: every = 10 steps, delay = 0 steps, check = no
  max neighbors/atom: 2000, page size: 100000
  master list distance cutoff = 12
  ghost atom cutoff = 12
  binsize = 6, bins = 4 3 3
  2 neighbor lists, perpetual/occasional/extra = 2 0 0
  (1) pair reaxff, perpetual
      attributes: half, newton off, ghost
      pair build: half/bin/newtoff/ghost
      stencil: full/ghost/bin/3d
      bin: standard
  (2) fix qeq/reaxff, perpetual, copy from (1)
      attributes: half, newton off
      pair build: copy
      stencil: none
      bin: none
Setting up Verlet run ...
  Unit style    : real
  Current step  : 0
  Time step     : 0.5
Per MPI rank memory allocation (min/avg/max) = 122 | 123.6 | 124.7 Mbytes
   Step          Temp          PotEng         Press        f_avgp[1]        Volume    
         0   289.66258     -42620.971      4815.5916      0              4007.5182    
       100   317.21906     -42639.52       16837.398      3725.3455      4007.5182    
       200   289.648       -42618.063      5856.0139      1920.0834      4007.5182    
       300   303.00099     -42660.212      12528.216      5768.3828      4007.5182    
       400   272.26186     -42642.576     -1973.6561     -726.25655      4007.5182    
       500   298.63981     -42655.162     -4381.2795      1539.9154      4007.5182    
       600   301.14605     -42628.897      8447.5619      3172.722       4007.5182    
       700   325.80995     -42656.215      4589.5881      3694.5931      4007.5182    
       800   296.97909     -42637.374      1334.6935     -3540.8401      4007.5182    
       900   279.77335     -42633.453      233.92288      4711.1445      4007.5182    
      1000   281.64699     -42630.208     -19536.528     -416.45529      4007.5182    
      1100   302.94346     -42615.257     -469.33801      2052.8935      4007.5182    
      1200   326.14668     -42629.653      8426.9116      3788.7175      4007.5182    
      1300   314.87024     -42635.655     -4811.6057      1928.3139      4007.5182    
      1400   294.03995     -42634.055     -9337.291      -3385.9565      4007.5182    
      1500   291.33906     -42636.478     -2547.3112      1246.4904      4007.5182    
      1600   293.15987     -42634.57      -2519.8914      2169.5175      4007.5182    
      1700   303.13648     -42647.699     -589.02269      3922.0073      4007.5182    
      1800   290.17982     -42635.988     -5399.2299      4761.8231      4007.5182    
      1900   303.8673      -42663.285      8546.1516     -293.25472      4007.5182    
      2000   278.43197     -42665.943     -12598.813     -3683.014       4007.5182    
Loop time of 87.6618 on 8 procs for 2000 steps with 365 atoms

Performance: 0.986 ns/day, 24.351 hours/ns, 22.815 timesteps/s, 8.327 katom-step/s
99.1% CPU use with 8 MPI tasks x 1 OpenMP threads

MPI task timing breakdown:
Section |  min time  |  avg time  |  max time  |%varavg| %total
---------------------------------------------------------------
Pair    | 49.775     | 56.012     | 72.488     | 117.7 | 63.90
Bond    | 0.0005699  | 0.00066519 | 0.00076288 |   0.0 |  0.00
Neigh   | 4.4577     | 5.0265     | 6.443      |  35.0 |  5.73
Comm    | 0.49693    | 16.965     | 23.198     | 213.8 | 19.35
Output  | 0.0038812  | 0.0045262  | 0.0050566  |   0.6 |  0.01
Modify  | 8.1956     | 9.6207     | 10.197     |  25.5 | 10.97
Other   |            | 0.03215    |            |       |  0.04

Nlocal:         45.625 ave          51 max          38 min
Histogram: 1 0 1 0 1 0 2 0 1 2
Nghost:           3164 ave        3219 max        3117 min
Histogram: 3 0 1 0 0 0 0 2 1 1
Neighs:        28969.2 ave       32221 max       24184 min
Histogram: 1 0 1 0 0 2 1 0 1 2

Total # of neighbors = 231754
Ave neighs/atom = 634.94247
Ave special neighs/atom = 0
Neighbor list builds = 200
Dangerous builds not checked
OMP_NUM_THREADS environment is not set. Defaulting to 1 thread. (src/comm.cpp:98)
  using 1 OpenMP thread(s) per MPI task
Reading restart file ...
  restart file = 2 Aug 2023, LAMMPS = 2 Aug 2023
  restoring atom style full from restart
  triclinic box = (0.87691184 0.2673559 -0.011415924) to (16.737488 14.716444 17.475616) with tilt (-6.4428995 0.91810762 -0.039342292)
  2 by 2 by 2 MPI processor grid
  pair style reaxff stores no restart info
  365 atoms
Finding 1-2 1-3 1-4 neighbors ...
  special bond factors lj:    0        0        0       
  special bond factors coul:  0        0        0       
     0 = max # of 1-2 neighbors
     0 = max # of 1-3 neighbors
     0 = max # of 1-4 neighbors
     1 = max # of special neighbors
  special bonds CPU = 0.000 seconds
  read_restart CPU = 0.002 seconds
*****Positive-deform 5 starts.*****
Resetting global fix info from restart file:
  fix style: nvt, fix ID: 4
All restart file global fix info was re-assigned
Neighbor list info ...
  update: every = 10 steps, delay = 0 steps, check = no
  max neighbors/atom: 2000, page size: 100000
  master list distance cutoff = 12
  ghost atom cutoff = 12
  binsize = 6, bins = 4 3 3
  2 neighbor lists, perpetual/occasional/extra = 2 0 0
  (1) pair reaxff, perpetual
      attributes: half, newton off, ghost
      pair build: half/bin/newtoff/ghost
      stencil: full/ghost/bin/3d
      bin: standard
  (2) fix qeq/reaxff, perpetual, copy from (1)
      attributes: half, newton off
      pair build: copy
      stencil: none
      bin: none
Setting up Verlet run ...
  Unit style    : real
  Current step  : 0
  Time step     : 0.5
Per MPI rank memory allocation (min/avg/max) = 122 | 123.6 | 124.7 Mbytes
   Step          Temp          PotEng         Press        f_avgp[1]        Volume    
         0   289.66258     -42620.971      4815.5916      0              4007.5182    
       100   317.21906     -42639.52       16837.398      3725.3455      4007.5182    
       200   289.52401     -42618.199      6642.0503      1763.0841      4007.5182    
       300   302.41825     -42659.677      11236.352      4997.4866      4007.5182    
       400   268.89138     -42637.812     -7691.79       -1308.0189      4007.5182    
       500   297.89229     -42652.684      4694.3323      3104.5072      4007.5182    
       600   299.76492     -42622.89      -2280.1548      3075.0888      4007.5182    
       700   318.79665     -42644.541     -4527.3886      2461.0954      4007.5182    
       800   296.62408     -42637.015      3323.5161      164.97751      4007.5182    
       900   288.63354     -42644.664      2445.6337      2761.9693      4007.5182    
      1000   279.48099     -42627.991     -828.57565      2883.6508      4007.5182    
      1100   310.43142     -42622.097     -8725.8059      1378.4659      4007.5182    
      1200   298.4564      -42603.562      3626.0213      3464.2778      4007.5182    
      1300   301.56579     -42624.973     -4828.2208      1581.4503      4007.5182    
      1400   291.46585     -42624.59       12097.136      7031.6352      4007.5182    
      1500   292.52758     -42636.993     -2621.4017      3248.9924      4007.5182    
      1600   265.6493      -42642.565      11038.713      504.06461      4007.5182    
      1700   288.94967     -42666.063     -4832.6949     -1792.3332      4007.5182    
      1800   283.08228     -42631.75      -2368.9176      3965.6736      4007.5182    
      1900   300.92308     -42632.975      12682.738      8444.2819      4007.5182    
      2000   306.31657     -42637.303      4903.0265      1435.6659      4007.5182    
Loop time of 87.7942 on 8 procs for 2000 steps with 365 atoms

Performance: 0.984 ns/day, 24.387 hours/ns, 22.781 timesteps/s, 8.315 katom-step/s
99.1% CPU use with 8 MPI tasks x 1 OpenMP threads

MPI task timing breakdown:
Section |  min time  |  avg time  |  max time  |%varavg| %total
---------------------------------------------------------------
Pair    | 50.046     | 56.097     | 72.66      | 116.9 | 63.90
Bond    | 0.00058484 | 0.00062633 | 0.00068054 |   0.0 |  0.00
Neigh   | 4.4775     | 5.0328     | 6.4212     |  34.5 |  5.73
Comm    | 0.50122    | 17.058     | 23.105     | 211.9 | 19.43
Output  | 0.0038396  | 0.0045173  | 0.0049926  |   0.6 |  0.01
Modify  | 8.1728     | 9.5687     | 10.131     |  25.2 | 10.90
Other   |            | 0.03247    |            |       |  0.04

Nlocal:         45.625 ave          55 max          40 min
Histogram: 2 0 3 0 0 0 1 1 0 1
Nghost:           3158 ave        3207 max        3105 min
Histogram: 1 1 2 0 0 0 0 1 1 2
Neighs:        28962.9 ave       34658 max       25497 min
Histogram: 2 1 2 0 0 1 0 1 0 1

Total # of neighbors = 231703
Ave neighs/atom = 634.80274
Ave special neighs/atom = 0
Neighbor list builds = 200
Dangerous builds not checked
OMP_NUM_THREADS environment is not set. Defaulting to 1 thread. (src/comm.cpp:98)
  using 1 OpenMP thread(s) per MPI task
Reading restart file ...
  restart file = 2 Aug 2023, LAMMPS = 2 Aug 2023
  restoring atom style full from restart
  triclinic box = (0.87691184 0.2673559 -0.011415924) to (16.737488 14.716444 17.475616) with tilt (-6.4428995 0.91810762 -0.039342292)
  2 by 2 by 2 MPI processor grid
  pair style reaxff stores no restart info
  365 atoms
Finding 1-2 1-3 1-4 neighbors ...
  special bond factors lj:    0        0        0       
  special bond factors coul:  0        0        0       
     0 = max # of 1-2 neighbors
     0 = max # of 1-3 neighbors
     0 = max # of 1-4 neighbors
     1 = max # of special neighbors
  special bonds CPU = 0.000 seconds
  read_restart CPU = 0.003 seconds
*****Negative-deform 6 starts.*****
Resetting global fix info from restart file:
  fix style: nvt, fix ID: 4
All restart file global fix info was re-assigned
Neighbor list info ...
  update: every = 10 steps, delay = 0 steps, check = no
  max neighbors/atom: 2000, page size: 100000
  master list distance cutoff = 12
  ghost atom cutoff = 12
  binsize = 6, bins = 4 3 3
  2 neighbor lists, perpetual/occasional/extra = 2 0 0
  (1) pair reaxff, perpetual
      attributes: half, newton off, ghost
      pair build: half/bin/newtoff/ghost
      stencil: full/ghost/bin/3d
      bin: standard
  (2) fix qeq/reaxff, perpetual, copy from (1)
      attributes: half, newton off
      pair build: copy
      stencil: none
      bin: none
Setting up Verlet run ...
  Unit style    : real
  Current step  : 0
  Time step     : 0.5
Per MPI rank memory allocation (min/avg/max) = 122 | 123.6 | 124.7 Mbytes
   Step          Temp          PotEng         Press        f_avgp[1]        Volume    
         0   289.66258     -42620.971      4815.5916      0              4007.5182    
       100   317.21906     -42639.52       16837.398      3725.3455      4007.5182    
       200   289.43059     -42618.091      6013.3667      1669.6923      4007.5182    
       300   302.66975     -42660.844      10347.401      4808.9044      4007.5182    
       400   267.85215     -42637.788     -4698.2461      1909.8188      4007.5182    
       500   300.33955     -42657.78      -4953.4241      1564.4191      4007.5182    
       600   305.54785     -42632.591     -4353.12        2605.4103      4007.5182    
       700   310.35747     -42638.895      6403.2223      1290.3497      4007.5182    
       800   294.07079     -42634.427      516.37249      621.80142      4007.5182    
       900   294.77451     -42648.958     -4796.6729      5055.8214      4007.5182    
      1000   279.65988     -42644.093     -9388.5478      2891.5887      4007.5182    
      1100   274.7024      -42637.83      -13752.259      731.26808      4007.5182    
      1200   312.43516     -42648.4        314.05672     -3234.1532      4007.5182    
      1300   310.4958      -42630.212      3394.7857      2517.608       4007.5182    
      1400   314.67218     -42628.314      992.48067      6789.4793      4007.5182    
      1500   290.93016     -42629.026     -3645.5105      4205.4126      4007.5182    
      1600   293.3123      -42653.132     -7443.8881      859.90376      4007.5182    
      1700   288.96938     -42641.489     -1902.9019      2306.0132      4007.5182    
      1800   305.73447     -42644.75       4024.0911      2954.947       4007.5182    
      1900   307.95068     -42635.131      15853.558      5631.2541      4007.5182    
      2000   313.10111     -42607.693     -2048.5949      4093.9921      4007.5182    
Loop time of 86.3771 on 8 procs for 2000 steps with 365 atoms

Performance: 1.000 ns/day, 23.994 hours/ns, 23.154 timesteps/s, 8.451 katom-step/s
99.1% CPU use with 8 MPI tasks x 1 OpenMP threads

MPI task timing breakdown:
Section |  min time  |  avg time  |  max time  |%varavg| %total
---------------------------------------------------------------
Pair    | 48.792     | 55.612     | 70.551     |  95.7 | 64.38
Bond    | 0.00059675 | 0.00066222 | 0.00076032 |   0.0 |  0.00
Neigh   | 4.4744     | 5.0667     | 6.595      |  31.1 |  5.87
Comm    | 1.7231     | 16.66      | 23.477     | 174.8 | 19.29
Output  | 0.0039828  | 0.0046814  | 0.0051922  |   0.6 |  0.01
Modify  | 7.4654     | 8.9994     | 9.5969     |  23.5 | 10.42
Other   |            | 0.03336    |            |       |  0.04

Nlocal:         45.625 ave          54 max          41 min
Histogram: 2 1 0 3 0 0 1 0 0 1
Nghost:        3159.88 ave        3231 max        3075 min
Histogram: 1 1 0 0 1 2 0 1 0 2
Neighs:        28986.6 ave       34103 max       26399 min
Histogram: 2 1 1 2 0 0 1 0 0 1

Total # of neighbors = 231893
Ave neighs/atom = 635.32329
Ave special neighs/atom = 0
Neighbor list builds = 200
Dangerous builds not checked
OMP_NUM_THREADS environment is not set. Defaulting to 1 thread. (src/comm.cpp:98)
  using 1 OpenMP thread(s) per MPI task
Reading restart file ...
  restart file = 2 Aug 2023, LAMMPS = 2 Aug 2023
  restoring atom style full from restart
  triclinic box = (0.87691184 0.2673559 -0.011415924) to (16.737488 14.716444 17.475616) with tilt (-6.4428995 0.91810762 -0.039342292)
  2 by 2 by 2 MPI processor grid
  pair style reaxff stores no restart info
  365 atoms
Finding 1-2 1-3 1-4 neighbors ...
  special bond factors lj:    0        0        0       
  special bond factors coul:  0        0        0       
     0 = max # of 1-2 neighbors
     0 = max # of 1-3 neighbors
     0 = max # of 1-4 neighbors
     1 = max # of special neighbors
  special bonds CPU = 0.000 seconds
  read_restart CPU = 0.002 seconds
*****Positive-deform 6 starts.*****
Resetting global fix info from restart file:
  fix style: nvt, fix ID: 4
All restart file global fix info was re-assigned
Neighbor list info ...
  update: every = 10 steps, delay = 0 steps, check = no
  max neighbors/atom: 2000, page size: 100000
  master list distance cutoff = 12
  ghost atom cutoff = 12
  binsize = 6, bins = 4 3 3
  2 neighbor lists, perpetual/occasional/extra = 2 0 0
  (1) pair reaxff, perpetual
      attributes: half, newton off, ghost
      pair build: half/bin/newtoff/ghost
      stencil: full/ghost/bin/3d
      bin: standard
  (2) fix qeq/reaxff, perpetual, copy from (1)
      attributes: half, newton off
      pair build: copy
      stencil: none
      bin: none
Setting up Verlet run ...
  Unit style    : real
  Current step  : 0
  Time step     : 0.5
Per MPI rank memory allocation (min/avg/max) = 122 | 123.6 | 124.7 Mbytes
   Step          Temp          PotEng         Press        f_avgp[1]        Volume    
         0   289.66258     -42620.971      4815.5916      0              4007.5182    
       100   317.21906     -42639.52       16837.398      3725.3455      4007.5182    
       200   289.47815     -42618.192      6770.3958      1941.8629      4007.5182    
       300   299.80735     -42655.939      12410.795      5941.1213      4007.5182    
       400   269.07708     -42637.474      788.93575      2357.4732      4007.5182    
       500   291.3994      -42647.121     -2582.7004      672.93022      4007.5182    
       600   288.17942     -42612.093     -3458.5511      943.50628      4007.5182    
       700   300.33366     -42624.814      7517.5629      1348.2637      4007.5182    
       800   295.79835     -42630.61      -4023.5397     -2692.5679      4007.5182    
       900   284.96123     -42629.699      454.89472     -42.557395      4007.5182    
      1000   294.77377     -42638.946      4334.6467      3435.5232      4007.5182    
      1100   306.89117     -42632.354      7285.1346      1986.4547      4007.5182    
      1200   319.3674      -42626.738      1523.7448      3350.7973      4007.5182    
      1300   322.40821     -42626.791      8839.3645      9445.2298      4007.5182    
      1400   287.03349     -42627.26      -4587.339       1026.0104      4007.5182    
      1500   296.09279     -42643.128     -6707.5217      1283.2894      4007.5182    
      1600   284.06719     -42618.994     -3705.5616     -2026.7128      4007.5182    
      1700   311.77999     -42628.597     -7505.3001      1654.0295      4007.5182    
      1800   322.03112     -42613.053     -764.35493      5152.5093      4007.5182    
      1900   301.01703     -42610.495      5115.5364      10683.724      4007.5182    
      2000   306.39093     -42653.632     -4287.3636      4961.9299      4007.5182    
Loop time of 70.6414 on 8 procs for 2000 steps with 365 atoms

Performance: 1.223 ns/day, 19.623 hours/ns, 28.312 timesteps/s, 10.334 katom-step/s
98.8% CPU use with 8 MPI tasks x 1 OpenMP threads

MPI task timing breakdown:
Section |  min time  |  avg time  |  max time  |%varavg| %total
---------------------------------------------------------------
Pair    | 46.552     | 51.058     | 57.543     |  47.2 | 72.28
Bond    | 0.00059159 | 0.0006828  | 0.00084138 |   0.0 |  0.00
Neigh   | 4.4338     | 4.7221     | 5.312      |  15.0 |  6.68
Comm    | 1.3948     | 7.8817     | 12.388     | 120.2 | 11.16
Output  | 0.0034686  | 0.0042933  | 0.0047818  |   0.7 |  0.01
Modify  | 6.3468     | 6.9374     | 7.228      |  12.4 |  9.82
Other   |            | 0.03695    |            |       |  0.05

Nlocal:         45.625 ave          55 max          41 min
Histogram: 3 0 2 1 0 0 0 1 0 1
Nghost:        3156.25 ave        3203 max        3100 min
Histogram: 1 0 1 1 1 1 0 0 1 2
Neighs:        28957.9 ave       34638 max       26122 min
Histogram: 2 1 2 1 0 0 0 1 0 1

Total # of neighbors = 231663
Ave neighs/atom = 634.69315
Ave special neighs/atom = 0
Neighbor list builds = 200
Dangerous builds not checked
Total wall time: 0:18:48
