LAMMPS (2 Aug 2023 - Update 2)
  using 6 OpenMP thread(s) per MPI task

# variable T index 300 400 500  #
# label T_loop

# Initialization
units           real
dimension       3
boundary        p p p
atom_style      full
timestep        0.5   # fs

variable       Tl equal 300.0   # low temperature
variable       Th equal 2100.0  # high temperature
variable       Td equal 50.0  # damping time
variable       P equal 1.0  # pressure
variable       Ph equal 1.0  # pressure
variable       Pd equal 10*${Td}  # pressure
variable       Pd equal 10*50  

variable       nevery equal 10
variable       nrepeat equal 10
variable       nthermo equal ${nevery}*${nrepeat}
variable       nthermo equal 10*${nrepeat}
variable       nthermo equal 10*10
variable       nrun equal ${nthermo}  # number of steps
variable       nrun equal 100  

variable       nequil equal 50*${nrun}  # 50
variable       nequil equal 50*100  
variable       nheat equal (${Th}-${Tl})*${nrun}   # 1800
variable       nheat equal (2100-${Tl})*${nrun}   
variable       nheat equal (2100-300)*${nrun}   
variable       nheat equal (2100-300)*100   
# variable       nheat equal 500   # 1800
variable FF string "SiOCHN_2018.ff C H O Si"          # force field args for pair_coeff
# pair_coeff * * CHONSSi.ff C H O Si
# pair_coeff * * CHOSiNa.ff C H O Si
# pair_coeff * * SiOCHN_2018.ff C H O Si
# pair_coeff * * PDMSDecomp.ff C H O Si
# pair_coeff * * CHONSi.ff C H O Si
# pair_coeff * * CHOFe.ff O Si

# Read the initial sctructure
# box tilt large
variable structure string 333-HD-100C-14

read_data       ${structure}.data
read_data       333-HD-100C-14.data
Reading data file ...
  triclinic box = (0 0 0) to (15.724 13.9031 17.2465) with tilt (-7.584 0.1778 0.4371)
WARNING: Triclinic box skew is large. LAMMPS will run inefficiently. (src/domain.cpp:220)
  1 by 1 by 2 MPI processor grid
  reading atoms ...
  366 atoms
Finding 1-2 1-3 1-4 neighbors ...
  special bond factors lj:    0        0        0       
  special bond factors coul:  0        0        0       
     0 = max # of 1-2 neighbors
     0 = max # of 1-3 neighbors
     0 = max # of 1-4 neighbors
     1 = max # of special neighbors
  special bonds CPU = 0.000 seconds
  read_data CPU = 0.101 seconds

# Assign the force field
pair_style reaxff NULL safezone 3.0 mincap 150
# pair_coeff * * CHONSSi.ff O Si
# pair_coeff * * CHOSiNa.ff O Si
# pair_coeff * * SiOCHN_2018.ff C H O Si
# pair_coeff * * PDMSDecomp.ff Si O
pair_coeff * * CHONSi.ff C H O Si
# pair_coeff * * CHOFe.ff O Si

fix myqeq all qeq/reaxff 1 0.0 10.0 1.0e-6 reaxff maxiter 400

neighbor        2 bin
neigh_modify    every 10 delay 0 check yes

# Energy minimization
print "##### Minimization starts.##### "
##### Minimization starts.##### 
# fix min1 all nve
minimize 1.0e-6 1.0e-6 100 1000

CITE-CITE-CITE-CITE-CITE-CITE-CITE-CITE-CITE-CITE-CITE-CITE-CITE

Your simulation uses code contributions which should be cited:

- pair reaxff command: doi:10.1016/j.parco.2011.08.005

@Article{Aktulga12,
 author = {H. M. Aktulga and J. C. Fogarty and S. A. Pandit and A. Y. Grama},
 title = {Parallel Reactive Molecular Dynamics: {N}umerical Methods and Algorithmic Techniques},
 journal = {Parallel Computing},
 year =    2012,
 volume =  38,
 number =  {4--5},
 pages =   {245--259}
}

- fix qeq/reaxff command: doi:10.1016/j.parco.2011.08.005

@Article{Aktulga12,
 author = {H. M. Aktulga and J. C. Fogarty and S. A. Pandit and A. Y. Grama},
 title = {Parallel Reactive Molecular Dynamics: {N}umerical Methods and Algorithmic Techniques},
 journal = {Parallel Computing},
 year =    2012,
 volume =  38,
 pages =   {245--259}
}

CITE-CITE-CITE-CITE-CITE-CITE-CITE-CITE-CITE-CITE-CITE-CITE-CITE

Switching to 'neigh_modify every 1 delay 0 check yes' setting during minimization
WARNING: Fix qeq/reaxff group is not charge neutral, net charge = -29.52 (src/REAXFF/fix_qeq_reaxff.cpp:392)
Neighbor list info ...
  update: every = 1 steps, delay = 0 steps, check = yes
  max neighbors/atom: 2000, page size: 100000
  master list distance cutoff = 12
  ghost atom cutoff = 12
  binsize = 6, bins = 4 3 3
  2 neighbor lists, perpetual/occasional/extra = 2 0 0
  (1) pair reaxff, perpetual
      attributes: half, newton off, ghost
      pair build: half/bin/newtoff/ghost
      stencil: full/ghost/bin/3d
      bin: standard
  (2) fix qeq/reaxff, perpetual, copy from (1)
      attributes: half, newton off
      pair build: copy
      stencil: none
      bin: none
Per MPI rank memory allocation (min/avg/max) = 209.4 | 211.5 | 213.5 Mbytes
   Step          Temp          E_pair         E_mol          TotEng         Press     
         0   0             -43579.409      0             -43579.409      39442.068    
        34   0             -44450.237      0             -44450.237     -6807.9521    
Loop time of 27.8684 on 12 procs for 34 steps with 366 atoms

39.2% CPU use with 2 MPI tasks x 6 OpenMP threads

Minimization stats:
  Stopping criterion = energy tolerance
  Energy initial, next-to-last, final = 
     -43579.4088464193  -44450.2217650428  -44450.2368230519
  Force two-norm initial, final = 1077.9481 173.11244
  Force max component initial, final = 155.70774 59.970981
  Final line search alpha, max atom move = 0.0014093669 0.084521112
  Iterations, force evaluations = 34 93

MPI task timing breakdown:
Section |  min time  |  avg time  |  max time  |%varavg| %total
---------------------------------------------------------------
Pair    | 15.416     | 15.459     | 15.502     |   1.1 | 55.47
Bond    | 3.3569e-05 | 4.0898e-05 | 4.8227e-05 |   0.0 |  0.00
Neigh   | 0          | 0          | 0          |   0.0 |  0.00
Comm    | 3.1009     | 3.1719     | 3.243      |   4.0 | 11.38
Output  | 0          | 0          | 0          |   0.0 |  0.00
Modify  | 9.0729     | 9.073      | 9.073      |   0.0 | 32.56
Other   |            | 0.1641     |            |       |  0.59

Nlocal:            183 ave         186 max         180 min
Histogram: 1 0 0 0 0 0 0 0 0 1
Nghost:         5142.5 ave        5194 max        5091 min
Histogram: 1 0 0 0 0 0 0 0 0 1
Neighs:         114890 ave      116199 max      113581 min
Histogram: 1 0 0 0 0 0 0 0 0 1

Total # of neighbors = 229780
Ave neighs/atom = 627.81421
Ave special neighs/atom = 0
Neighbor list builds = 0
Dangerous builds = 0
# unfix min1
# Save the optimized structure
write_data ${structure}_opt.data
write_data 333-HD-100C-14_opt.data
System init for write_data ...

# Print system info
thermo          ${nthermo}
thermo          100
thermo_style    custom step temp press density vol pe etotal

reset_timestep 0

# equilibration at low T
print "##### Equilibration starts.##### "
##### Equilibration starts.##### 
velocity        all create ${Tl} 12345
velocity        all create 300 12345
fix             equil1 all npt temp ${Tl} ${Tl} ${Td} tri ${Ph} ${Ph} ${Pd}
fix             equil1 all npt temp 300 ${Tl} ${Td} tri ${Ph} ${Ph} ${Pd}
fix             equil1 all npt temp 300 300 ${Td} tri ${Ph} ${Ph} ${Pd}
fix             equil1 all npt temp 300 300 50 tri ${Ph} ${Ph} ${Pd}
fix             equil1 all npt temp 300 300 50 tri 1 ${Ph} ${Pd}
fix             equil1 all npt temp 300 300 50 tri 1 1 ${Pd}
fix             equil1 all npt temp 300 300 50 tri 1 1 500
# 1 ps = 1e3 fs / 0.5 fs = 2e3 steps = 20 nruns
# Save trajectory
dump dump1 all custom ${nthermo} dump/dump_eq.lammpstrj id type x y z q
dump dump1 all custom 100 dump/dump_eq.lammpstrj id type x y z q
run             ${nequil}
run             5000
Per MPI rank memory allocation (min/avg/max) = 208.3 | 210.4 | 212.4 Mbytes
   Step          Temp          Press         Density         Volume         PotEng         TotEng    
         0   300           -2850.8458      1.8952586      3770.2978     -44450.237     -44123.838    
       100   201.9554       7233.375       1.9038761      3753.2324     -44312.983     -44093.256    
       200   274.14649     -238.55977      1.8994141      3762.0492     -44330.568     -44032.297    
       300   316.77908      10261.53       1.9250603      3711.9302     -44323.69      -43979.036    
       400   334.66646     -5599.7224      1.9083464      3744.4405     -44325.398     -43961.282    
       500   331.31638     -9349.6126      1.9105692      3740.084      -44342.803     -43982.333    
       600   282.52347      5546.4184      1.9109405      3739.3573     -44329.223     -44021.839    
       700   283.47884     -4722.7262      1.8857154      3789.3785     -44338.789     -44030.365    
       800   285.88434      3055.6336      1.9016095      3757.706      -44322.584     -44011.543    
       900   318.92884      1609.2943      1.9010274      3758.8567     -44336.439     -43989.446    
      1000   313.79666     -1379.0599      1.9197162      3722.2635     -44339.638     -43998.228    
      1100   276.58893      303.79778      1.9206067      3720.5376     -44326.357     -44025.429    
      1200   287.77362      1679.403       1.9361881      3690.5967     -44342.976     -44029.88     
      1300   301.06297     -5422.6555      1.9238758      3714.2157     -44359.535     -44031.98     
      1400   316.78665     -8642.7684      1.8963763      3768.0757     -44370.418     -44025.755    
      1500   318.28775      2060.6048      1.9211962      3719.396      -44367.278     -44020.982    
      1600   299.43912      6142.0085      1.9156487      3730.1669     -44340.696     -44014.907    
      1700   304.81582      8608.0668      1.9145712      3732.2663     -44345.203     -44013.565    
      1800   292.80675      3343.1513      1.9143768      3732.6452     -44364.428     -44045.855    
      1900   297.35608     -1284.9795      1.9137419      3733.8836     -44388.28      -44064.758    
      2000   283.36531      6722.1357      1.9167343      3728.0542     -44373.95      -44065.65     
      2100   309.62338      7032.2813      1.9182755      3725.0591     -44374.967     -44038.098    
      2200   314.25587     -3124.8699      1.918374       3724.8678     -44370.294     -44028.385    
      2300   320.46149      4438.6376      1.911712       3737.8482     -44377.898     -44029.237    
      2400   292.59642     -5334.7271      1.92211        3717.6277     -44358.946     -44040.603    
      2500   274.1994      -4392.8543      1.928579       3705.1578     -44370.585     -44072.258    
      2600   298.38943      12396.45       1.9387738      3685.6746     -44397.791     -44073.145    
      2700   294.21315     -10224.014      1.9148548      3731.7134     -44381.919     -44061.816    
      2800   321.48981     -12038.742      1.9308044      3700.8873     -44397.447     -44047.667    
      2900   299.35024      1060.8377      1.9466951      3670.6773     -44364.955     -44039.263    
      3000   311.3855       4441.9278      1.9371227      3688.816      -44361.387     -44022.601    
      3100   311.8017       2618.0955      1.9313686      3699.8062     -44348.839     -44009.6      
      3200   303.22151     -5606.7609      1.9311312      3700.2611     -44357.519     -44027.615    
      3300   304.01775     -6933.4225      1.9134857      3734.3835     -44390.442     -44059.672    
      3400   300.26374      1359.1653      1.9296487      3703.1037     -44397.394     -44070.709    
      3500   305.71835      3726.6663      1.9386005      3686.0042     -44401.498     -44068.878    
      3600   304.1128      -2770.5707      1.9259544      3710.207      -44370.99      -44040.116    
      3700   323.48901      7347.5464      1.9228389      3716.2186     -44361.938     -44009.983    
      3800   309.64447      2015.3525      1.9073929      3746.3122     -44358.018     -44021.126    
      3900   313.93157     -3891.6456      1.9096904      3741.8052     -44377.118     -44035.562    
      4000   298.80345     -919.86273      1.9248104      3712.4121     -44370.735     -44045.638    
      4100   293.73656     -10339.781      1.9165884      3728.3381     -44382.695     -44063.111    
      4200   281.41306     -636.26588      1.9235628      3714.82       -44392.278     -44086.102    
      4300   274.42135     -5149.2451      1.9214134      3718.9756     -44394.109     -44095.54     
      4400   298.65476     -238.64166      1.9187575      3724.1233     -44384.239     -44059.304    
      4500   317.09278     -3759.5773      1.918217       3725.1727     -44388.785     -44043.79     
      4600   305.63934     -1799.1474      1.9118954      3737.4898     -44369.382     -44036.848    
      4700   314.51374      8471.8396      1.9260287      3710.0638     -44364.962     -44022.772    
      4800   314.09346     -1042.5752      1.9040088      3752.9709     -44340.14      -43998.408    
      4900   323.38484      8471.2026      1.9113359      3738.5839     -44359.446     -44007.605    
      5000   305.14319      5629.2901      1.9094829      3742.2117     -44376.961     -44044.966    
Loop time of 1395.76 on 12 procs for 5000 steps with 366 atoms

Performance: 0.155 ns/day, 155.084 hours/ns, 3.582 timesteps/s, 1.311 katom-step/s
39.8% CPU use with 2 MPI tasks x 6 OpenMP threads

MPI task timing breakdown:
Section |  min time  |  avg time  |  max time  |%varavg| %total
---------------------------------------------------------------
Pair    | 840.25     | 844.74     | 849.24     |  15.5 | 60.52
Bond    | 0.001287   | 0.001299   | 0.0013111  |   0.0 |  0.00
Neigh   | 8.4007     | 8.5183     | 8.6359     |   4.0 |  0.61
Comm    | 291.29     | 295.19     | 299.08     |  22.7 | 21.15
Output  | 0.13296    | 0.14416    | 0.15535    |   2.9 |  0.01
Modify  | 241.66     | 242.52     | 243.38     |   5.5 | 17.38
Other   |            | 4.643      |            |       |  0.33

Nlocal:            183 ave         186 max         180 min
Histogram: 1 0 0 0 0 0 0 0 0 1
Nghost:         5199.5 ave        5265 max        5134 min
Histogram: 1 0 0 0 0 0 0 0 0 1
Neighs:         115815 ave      117147 max      114483 min
Histogram: 1 0 0 0 0 0 0 0 0 1

Total # of neighbors = 231630
Ave neighs/atom = 632.86885
Ave special neighs/atom = 0
Neighbor list builds = 57
Dangerous builds = 0
undump dump1
reset_timestep  0

# Heat to high T
print "##### Heat starts.##### "
##### Heat starts.##### 
# out put bonds and species information
fix bondinfo all reaxff/bonds ${nthermo} bonds/bonds.reaxff
fix bondinfo all reaxff/bonds 100 bonds/bonds.reaxff
# fix speciesinfo all reaxff/species ${nevery} ${nrepeat} ${nthermo} bonds/species.out

# compute MSD and RDF
compute msd1 all msd
fix myMSD all ave/time ${nthermo} 1 ${nthermo} c_msd1[1] c_msd1[2] c_msd1[3] c_msd1[4] c_thermo_temp     file msd.out     title2 "# TimeStep MSD_X MSD_Y MSD_Z MSD_Total Temperture"
fix myMSD all ave/time 100 1 ${nthermo} c_msd1[1] c_msd1[2] c_msd1[3] c_msd1[4] c_thermo_temp     file msd.out     title2 "# TimeStep MSD_X MSD_Y MSD_Z MSD_Total Temperture"
fix myMSD all ave/time 100 1 100 c_msd1[1] c_msd1[2] c_msd1[3] c_msd1[4] c_thermo_temp     file msd.out     title2 "# TimeStep MSD_X MSD_Y MSD_Z MSD_Total Temperture"
# C-C C-Si Si-O C-H Si-Si
compute rdf1 all rdf 150 1 1 1 4 3 4 1 2 4 4 cutoff 5.0
fix myRDF all ave/time ${nthermo} 1 ${nthermo} c_rdf1[*]     file rdf.out mode vector     title3 "# Row r g1(r) coor1(r) ..."
fix myRDF all ave/time 100 1 ${nthermo} c_rdf1[*]     file rdf.out mode vector     title3 "# Row r g1(r) coor1(r) ..."
fix myRDF all ave/time 100 1 100 c_rdf1[*]     file rdf.out mode vector     title3 "# Row r g1(r) coor1(r) ..."

unfix           equil1
fix             heat1 all nvt temp ${Tl} ${Th} ${Td}
fix             heat1 all nvt temp 300 ${Th} ${Td}
fix             heat1 all nvt temp 300 2100 ${Td}
fix             heat1 all nvt temp 300 2100 50
thermo_style    custom step temp press pe etotal
dump dump2 all custom ${nthermo} dump/dump_heat.lammpstrj   id   type   x   y   z   q
dump dump2 all custom 100 dump/dump_heat.lammpstrj   id   type   x   y   z   q

run             ${nheat}
run             180000
WARNING: Compute rdf cutoff less than neighbor cutoff - forcing a needless neighbor list build (src/compute_rdf.cpp:179)
Neighbor list info ...
  update: every = 10 steps, delay = 0 steps, check = yes
  max neighbors/atom: 2000, page size: 100000
  master list distance cutoff = 12
  ghost atom cutoff = 12
  binsize = 6, bins = 4 3 3
  3 neighbor lists, perpetual/occasional/extra = 2 1 0
  (1) pair reaxff, perpetual
      attributes: half, newton off, ghost
      pair build: half/bin/newtoff/ghost
      stencil: full/ghost/bin/3d
      bin: standard
  (2) compute rdf, occasional
      attributes: half, newton on, cut 7
      pair build: half/bin/newton/tri
      stencil: half/bin/3d/tri
      bin: standard
  (3) fix qeq/reaxff, perpetual, copy from (1)
      attributes: half, newton off
      pair build: copy
      stencil: none
      bin: none
Per MPI rank memory allocation (min/avg/max) = 216.3 | 218.3 | 220.2 Mbytes
   Step          Temp          Press          PotEng         TotEng    
         0   305.14319      5629.1546     -44376.961     -44044.966    
       100   300.25172      804.17591     -44374.288     -44047.615    
       200   283.06659     -11114.94      -44371.056     -44063.08     
       300   277.23483     -508.98697     -44382.57      -44080.94     
       400   320.15527     -7119.4018     -44416.535     -44068.207    
       500   313.50818      4139.4604     -44377.49      -44036.394    
       600   321.4513      -10178.279     -44379.317     -44029.58     
       700   291.47254     -10585.902     -44346.88      -44029.759    
       800   303.83865     -11577.687     -44363.384     -44032.809    
       900   301.44532     -2767.3745     -44391.141     -44063.169    
      1000   279.90662     -5725.1479     -44391.444     -44086.906    
      1100   295.28122      3938.4456     -44392.831     -44071.567    
      1200   313.8966      -1394.7137     -44384.254     -44042.736    
      1300   315.03085     -2455.3185     -44376.088     -44033.336    
      1400   295.23942     -7774.6509     -44347.483     -44026.263    
      1500   329.06932     -5418.4433     -44363.795     -44005.769    
      1600   351.44715     -3154.4946     -44365.044     -43982.671    
      1700   344.01819     -849.79475     -44349.137     -43974.847    
      1800   315.12458      4069.3463     -44352.869     -44010.015    
      1900   295.81062      2021.2069     -44355.219     -44033.378    
      2000   312.95376     -3752.472      -44372.721     -44032.229    
      2100   322.52524     -556.69172     -44359.129     -44008.223    
      2200   341.72482      2657.2484     -44359.831     -43988.035    
      2300   330.59815     -2931.1835     -44357.4       -43997.711    
      2400   306.34455      267.72787     -44375.788     -44042.487    
      2500   316.3337      -829.8062      -44395.207     -44051.037    
      2600   318.5575      -7873.5069     -44373.922     -44027.333    
      2700   317.65622      2742.6546     -44350.015     -44004.407    
      2800   335.22558     -3361.2451     -44364.803     -44000.079    
      2900   313.93198     -2558.0775     -44341.5       -43999.944    
      3000   337.8257      -2756.0365     -44353.565     -43986.012    
      3100   341.57152     -17862.077     -44326.827     -43955.198    
      3200   324.37384     -6143.1691     -44315.632     -43962.714    
      3300   336.3952      -2784.1983     -44366.614     -44000.617    
      3400   331.72911      601.99222     -44370.668     -44009.748    
      3500   324.37281     -11059.802     -44353.041     -44000.125    
      3600   351.10725     -13325.235     -44361.669     -43979.666    
      3700   335.87685     -6752.453      -44329.712     -43964.279    
      3800   364.67061      1262.5079     -44345.343     -43948.583    
      3900   343.02541      115.12663     -44332.676     -43959.466    
      4000   319.03276     -7474.3589     -44339.662     -43992.556    
      4100   316.97752     -7957.2299     -44349.104     -44004.234    
      4200   335.47259     -5418.9844     -44355.599     -43990.607    
      4300   349.11868      6285.1466     -44328.946     -43949.106    
      4400   351.57553     -5259.0034     -44319.392     -43936.879    
      4500   359.10937     -5836.0564     -44339.494     -43948.785    
      4600   334.92798      3370.7314     -44325.232     -43960.831    
      4700   328.45858      1223.3491     -44320.716     -43963.355    
      4800   351.18241     -590.71698     -44336.6       -43954.515    
      4900   353.14678     -8116.0907     -44312.474     -43928.252    
      5000   359.65968     -5154.9331     -44311.058     -43919.75     
      5100   356.57188     -503.17255     -44322.127     -43934.179    
      5200   341.00806     -3850.3851     -44340.803     -43969.787    
      5300   348.65546      9214.7442     -44353.314     -43973.979    
      5400   354.96182      801.3569      -44341.192     -43954.995    
      5500   342.52606     -3826.5047     -44310.227     -43937.56     
      5600   381.64958     -1984.6006     -44347.234     -43932.001    
      5700   355.89855     -5687.8686     -44327.83      -43940.614    
      5800   353.89551      8436.0993     -44336.203     -43951.166    
      5900   355.9261      -7864.9182     -44346.852     -43959.606    
      6000   351.05273     -9071.1919     -44333.784     -43951.84     
      6100   369.23999      4210.4268     -44317.661     -43915.929    
      6200   369.58742     -4162.618      -44303.723     -43901.613    
      6300   381.25031     -2352.8107     -44316.226     -43901.427    
      6400   325.8764       2219.9921     -44290.532     -43935.98     
      6500   334.49263      1850.4039     -44320.772     -43956.845    
      6600   370.6025      -2383.5355     -44337.099     -43933.885    
      6700   384.96917     -2069.8045     -44324.486     -43905.641    
      6800   366.87163      6369.3082     -44298.167     -43899.012    
      6900   378.67872      8376.2542     -44311.983     -43899.983    
      7000   367.42304     -218.72391     -44318.039     -43918.284    
      7100   355.41222     -12201.838     -44330.655     -43943.968    
      7200   365.22091     -4802.2579     -44341.081     -43943.722    
      7300   375.51709     -9498.0734     -44310.754     -43902.193    
      7400   355.30813      1193.8017     -44273.617     -43887.043    
      7500   374.42882      7909.4392     -44282.564     -43875.187    
      7600   361.40657      806.3609      -44260.727     -43867.518    
      7700   361.3051       3852.1147     -44273.972     -43880.874    
      7800   351.84091      8763.636      -44298.931     -43916.13     
      7900   366.24951     -1615.5361     -44316.759     -43918.281    
      8000   376.22243      1398.8109     -44291.664     -43882.335    
      8100   403.50996      2417.8906     -44296.256     -43857.239    
      8200   382.67756      1924.2145     -44274.33      -43857.979    
      8300   387.71405     -13170.126     -44283.752     -43861.921    
      8400   381.78891     -6312.6735     -44287.187     -43871.802    
      8500   386.31481     -1091.2422     -44313.642     -43893.334    
      8600   382.4702       8388.7504     -44294.482     -43878.356    
      8700   404.92989      5063.0333     -44282.866     -43842.304    
      8800   400.24378      453.15119     -44274.542     -43839.079    
      8900   395.49203     -33.434946     -44281.025     -43850.731    
      9000   373.35213     -3095.5776     -44276.443     -43870.238    
      9100   391.71018     -2750.636      -44324.387     -43898.208    
      9200   383.04298      1149.7194     -44290.114     -43873.365    
      9300   370.49774     -10491.495     -44242.849     -43839.749    
      9400   369.87403     -2917.7769     -44222.573     -43820.151    
      9500   403.05755     -9380.2959     -44237.49      -43798.965    
      9600   377.79346      1242.9284     -44200.018     -43788.98     
      9700   406.33036      7832.0425     -44245.632     -43803.546    
      9800   394.94978      3854.1157     -44288.498     -43858.794    
      9900   375.21515     -9051.3023     -44265.974     -43857.741    
     10000   385.67458     -7887.6733     -44245.172     -43825.56     
     10100   425.9202      -6537.5393     -44262.848     -43799.449    
     10200   388.31502     -2000.537      -44234.202     -43811.717    
     10300   401.29863      2824.177      -44257.26      -43820.649    
     10400   383.98457      6576.2817     -44227.88      -43810.106    
     10500   436.13272      3939.5029     -44232.581     -43758.071    
     10600   435.01891      6591.5218     -44239.014     -43765.715    
     10700   401.24277      4.3380196     -44241.348     -43804.797    
     10800   399.07195      12820.695     -44254.132     -43819.944    
     10900   406.59204     -1733.1135     -44261.896     -43819.526    
     11000   420.95986     -11004.78      -44239.619     -43781.617    
     11100   417.96686      8598.791      -44204.728     -43749.982    
     11200   415.01058      543.98715     -44219.891     -43768.361    
     11300   419.40834      432.42797     -44238.735     -43782.421    
     11400   415.66219     -9236.8257     -44243.764     -43791.525    
     11500   359.21224     -6145.2563     -44227.302     -43836.481    
     11600   366.90103     -5245.3614     -44256.161     -43856.974    
     11700   411.4447      -1228.8033     -44273.811     -43826.161    
     11800   415.75986     -7310.958      -44250.39      -43798.045    
     11900   412.60189      16024.788     -44220.705     -43771.796    
     12000   415.19073      8546.7341     -44213.008     -43761.283    
     12100   439.02617     -5293.4254     -44230.559     -43752.9      
     12200   424.38704     -288.40081     -44177.876     -43716.145    
     12300   441.47365      2149.8503     -44174.559     -43694.238    
     12400   448.793       -9597.0772     -44223.313     -43735.028    
     12500   418.94298     -275.40184     -44229.572     -43773.764    
     12600   384.81108      11399.085     -44198.751     -43780.078    
     12700   429.32589     -9871.9348     -44230.069     -43762.964    
     12800   461.85836      1620.5713     -44224.504     -43722.004    
     12900   426.0362       4797.2351     -44177.682     -43714.156    
     13000   446.40812      1214.2297     -44210.609     -43724.918    
     13100   411.94452      11024.061     -44212.168     -43763.975    
     13200   398.58909     -105.2863      -44240.561     -43806.897    
     13300   429.68089     -514.56108     -44253.224     -43785.733    
     13400   436.22308     -11519.242     -44223.322     -43748.713    
     13500   466.77346      7409.3808     -44239.702     -43731.854    
     13600   428.66632     -992.011       -44196.903     -43730.516    
     13700   440.64206      1755.1839     -44204.202     -43724.786    
     13800   432.24032      8739.3589     -44196.06      -43725.784    
     13900   431.77302      10682.147     -44194.521     -43724.753    
     14000   464.08531      14157.588     -44222.332     -43717.409    
     14100   441.19992      9261.1356     -44217.39      -43737.367    
     14200   406.37773      4679.1834     -44214.995     -43772.858    
     14300   405.43612     -8814.0834     -44212.076     -43770.963    
     14400   426.30832      13068.902     -44177.965     -43714.144    
     14500   465.52905      6007.2084     -44213.661     -43707.167    
     14600   448.9145       920.93607     -44221.394     -43732.977    
     14700   433.96928     -1466.8631     -44225.818     -43753.661    
     14800   418.27456      10394.466     -44201.526     -43746.445    
     14900   458.41323      2185.9604     -44196.188     -43697.437    
     15000   464.45587      11987.444     -44194.997     -43689.672    
     15100   410.25646      4300.5531     -44176.236     -43729.879    
     15200   427.45633     -4090.3053     -44229.072     -43764.002    
     15300   402.39733     -18171.744     -44172.166     -43734.36     
     15400   457.22452      2368.4395     -44176.922     -43679.464    
     15500   434.56142     -5358.4907     -44156.23      -43683.429    
     15600   444.26144     -1334.285      -44190.28      -43706.926    
     15700   424.32915     -4461.7068     -44196.959     -43735.29     
     15800   464.49053      11569.449     -44213.707     -43708.344    
     15900   479.08454     -394.51269     -44196.356     -43675.114    
     16000   443.57596      10511.752     -44163.005     -43680.396    
     16100   474.47652      11589.581     -44202.527     -43686.299    
     16200   415.4565       4764.7744     -44184.067     -43732.052    
     16300   427.60654      6257.354      -44206.574     -43741.34     
     16400   439.91533      2652.393      -44196.387     -43717.761    
     16500   457.08241     -12480.27      -44170.464     -43673.16     
     16600   503.63819     -5762.4876     -44201.907     -43653.951    
     16700   491.05248      6907.0806     -44189.607     -43655.344    
     16800   472.13829     -9694.2617     -44197.589     -43683.904    
     16900   431.17335      13294.899     -44199.812     -43730.697    
     17000   451.75834      2488.7461     -44211.227     -43719.716    
     17100   475.42023     -11248.544     -44191.718     -43674.463    
     17200   495.53287      5838.3528     -44196.53      -43657.392    
     17300   455.91262      3665.1572     -44161.916     -43665.885    
     17400   465.29424      4501.453      -44190.988     -43684.75     
     17500   455.47887      7589.3284     -44192.893     -43697.334    
     17600   474.30263     -5154.9433     -44184.118     -43668.078    
     17700   456.7586       8736.3418     -44117.624     -43620.673    
     17800   491.36503     -6438.9299     -44150.562     -43615.959    
     17900   508.00423     -2614.6103     -44194.898     -43642.191    
     18000   458.81298      928.39674     -44173.95      -43674.763    
     18100   505.64432      1486.7095     -44232.717     -43682.578    
     18200   453.19689     -1432.5947     -44190.775     -43697.699    
     18300   464.25455      4729.8028     -44170.358     -43665.251    
     18400   497.54329     -1556.9252     -44164.763     -43623.438    
     18500   480.81345      4121.0084     -44127.931     -43604.808    
     18600   510.07038      2137.8522     -44166.027     -43611.072    
     18700   458.18246      2059.0028     -44163.815     -43665.315    
     18800   461.24386      1205.0437     -44178.043     -43676.212    
     18900   521.4174       5675.0342     -44217.73      -43650.431    
     19000   532.05502      6088.7669     -44192.051     -43613.177    
     19100   492.91482      15002.865     -44138.237     -43601.948    
     19200   504.73677      3822.773      -44152.953     -43603.801    
     19300   498.49826      5748.6431     -44150.415     -43608.051    
     19400   498.33219      8296.739      -44162.285     -43620.101    
     19500   497.49383      8134.364      -44170.332     -43629.061    
     19600   486.0043       5667.9265     -44168.804     -43640.033    
     19700   468.5038       344.46173     -44116.071     -43606.341    
     19800   513.71678      4086.0148     -44125.136     -43566.215    
     19900   488.95942      14789.349     -44093.344     -43561.359    
     20000   505.84618      8969.3594     -44147.191     -43596.832    
     20100   477.06034      2137.0827     -44157.135     -43638.095    
     20200   494.55355     -6203.8775     -44168.045     -43629.973    
     20300   479.80556     -624.66033     -44135.468     -43613.442    
     20400   486.32348      10821.352     -44114.161     -43585.043    
     20500   521.87109      3680.5068     -44137.033     -43569.239    
     20600   522.74199      6108.8452     -44138.378     -43569.637    
     20700   507.05652     -3679.3716     -44125.31      -43573.635    
     20800   495.96021      7968.0137     -44117.649     -43578.047    
     20900   496.62353      26805.609     -44106.711     -43566.387    
     21000   559.94041      17648.532     -44146.909     -43537.696    
     21100   532.3444      -6351.3328     -44119.264     -43540.076    
     21200   501.67231      9518.5531     -44126.232     -43580.415    
     21300   460.93217      8929.1595     -44115.791     -43614.298    
     21400   476.74838     -841.81083     -44115.807     -43597.107    
     21500   520.64094      14149.465     -44097.295     -43530.839    
     21600   526.86722      4483.3032     -44097.125     -43523.896    
     21700   497.06921      9989.3518     -44097.261     -43556.452    
     21800   510.49364      5619.1252     -44133.15      -43577.735    
     21900   508.39286     -3487.3672     -44143.818     -43590.689    
     22000   532.78753     -474.2425      -44135.719     -43556.049    
     22100   542.64097     -897.64362     -44100.454     -43510.062    
     22200   528.3476       1117.8478     -44079.418     -43504.578    
     22300   539.31503     -4712.4846     -44091.231     -43504.459    
     22400   484.15833      7333.6595     -44079.229     -43552.467    
     22500   474.78503      10986.731     -44107.113     -43590.549    
     22600   532.96551      9694.5168     -44157.902     -43578.038    
     22700   511.42053      9802.8199     -44086.324     -43529.9      
     22800   512.48665      4443.2089     -44056.84      -43499.256    
     22900   546.84106     -1056.3631     -44087.405     -43492.444    
     23000   509.71249      8649.9478     -44051.2       -43496.635    
     23100   557.95236     -2139.7765     -44078.245     -43471.195    
     23200   535.99445     -15135.538     -44046.533     -43463.373    
     23300   551.98654      21209.995     -44112.738     -43512.179    
     23400   517.03916     -3931.0818     -44107.51      -43544.973    
     23500   543.20343     -7585.2725     -44128.832     -43537.829    
     23600   554.7924       13047.474     -44089.116     -43485.504    
     23700   529.74228      5268.7288     -44013.729     -43437.371    
     23800   560.23632      17838.355     -44062.506     -43452.971    
     23900   531.40559      12564.735     -44072.261     -43494.094    
     24000   538.85969     -956.92026     -44099.546     -43513.269    
     24100   514.75991      5149.4447     -44083.16      -43523.103    
     24200   535.66222      4551.7711     -44087.169     -43504.37     
     24300   578.00294      7198.8773     -44068.591     -43439.726    
     24400   550.39677     -3375.6991     -44035.463     -43436.634    
     24500   541.60591     -4184.2673     -44068.057     -43478.793    
     24600   540.81041      5283.4532     -44107.182     -43518.783    
     24700   545.23543      11924.042     -44111.84      -43518.626    
     24800   515.48871      5299.1919     -44065.018     -43504.169    
     24900   545.78582      8138.266      -44054.307     -43460.495    
     25000   561.59627      11264.939     -44042.725     -43431.71     
     25100   538.7519       13378.179     -44018.108     -43431.948    
     25200   519.33895      1574.0773     -44053.179     -43488.141    
     25300   521.12143      18233.469     -44088.694     -43521.717    
     25400   538.5684       8888.3389     -44090.989     -43505.029    
     25500   507.04967      3742.3122     -44034.823     -43483.156    
     25600   585.32357     -931.01162     -44084.951     -43448.121    
     25700   557.03354      23032.879     -44042.795     -43436.745    
     25800   575.49271      11916.805     -44059.142     -43433.008    
     25900   549.20476     -3783.4009     -44026.261     -43428.729    
     26000   556.58075      4050.5226     -44022.377     -43416.82     
     26100   552.26819      1209.3855     -44012.419     -43411.554    
     26200   545.45313     -11661.093     -44021.302     -43427.851    
     26300   554.75619      8808.1636     -44048.479     -43444.907    
     26400   548.8714       10062.813     -44090.57      -43493.401    
     26500   571.75076      14915.605     -44121.86      -43499.798    
     26600   552.12619      13716.113     -44053.329     -43452.618    
     26700   593.90592      5410.0943     -44053.35      -43407.183    
     26800   537.83137      7174.5064     -43993.676     -43408.517    
     26900   589.45812     -4830.8643     -44048.836     -43407.508    
     27000   547.40447      394.91307     -44033.16      -43437.587    
     27100   546.79064      12600.362     -44058.172     -43463.266    
     27200   541.20683      9545.9582     -44018.96      -43430.129    
     27300   593.00732      13158.153     -44014.357     -43369.168    
     27400   578.77957      3176.8111     -43994.98      -43365.27     
     27500   571.72241     -872.06791     -44013.988     -43391.957    
     27600   568.81113      7740.3365     -44058.208     -43439.344    
     27700   527.39503     -12288.906     -44059.866     -43486.063    
     27800   594.28864     -2915.389      -44112.14      -43465.556    
     27900   549.64417      13578.943     -44038.501     -43440.491    
     28000   573.20087     -1138.6872     -44023.592     -43399.952    
     28100   616.35618     -7211.6205     -44025.218     -43354.625    
     28200   568.13859      1591.5514     -43962.669     -43344.537    
     28300   603.35265      9665.9014     -44025.263     -43368.818    
     28400   565.89933      10006.245     -44058.918     -43443.222    
     28500   548.36172      11208.334     -44051.843     -43455.228    
     28600   569.77602     -3798.4797     -44033.504     -43413.591    
     28700   582.84306      8145.7324     -44008.567     -43374.436    
     28800   588.84169     -851.0464      -43990.1       -43349.443    
     28900   580.40153      2447.4171     -43974.883     -43343.408    
     29000   604.75787      3571.319      -44011.74      -43353.767    
     29100   570.37838     -6899.2843     -44011.651     -43391.081    
     29200   590.57408      5156.5474     -44050.339     -43407.797    
     29300   574.79592      5814.5942     -44010.23      -43384.855    
     29400   624.45087      2502.2549     -43997.059     -43317.66     
     29500   649.08121      5122.5206     -44022.155     -43315.957    
     29600   597.20348     -9218.5794     -44000.815     -43351.06     
     29700   603.55134     -799.51175     -44021.253     -43364.592    
     29800   568.92699     -1141.3295     -43964.242     -43345.252    
     29900   624.39512      8133.3186     -43957.441     -43278.102    
     30000   640.18399      8685.8702     -43971.409     -43274.892    
     30100   599.6284       4304.4224     -43996.937     -43344.544    
     30200   572.71253      7825.3198     -43987.364     -43364.256    
     30300   596.50401      4844.6029     -43988.962     -43339.969    
     30400   615.73179      10456.066     -43965.316     -43295.402    
     30500   673.8827       24842.325     -43994.288     -43261.107    
     30600   661.82597      11633.01      -43993.763     -43273.699    
     30700   588.2572       7505.7368     -43969.895     -43329.874    
     30800   581.26409      6630.6741     -43990.778     -43358.365    
     30900   604.17982      4122.3358     -43996.115     -43338.77     
     31000   598.66472      5060.1436     -43931.333     -43279.988    
     31100   605.04097      10009.156     -43929.094     -43270.812    
     31200   655.87141      13225.954     -43993.388     -43279.803    
     31300   617.7356       15603.354     -43967.13      -43295.037    
     31400   617.81985     -1654.0106     -43981.788     -43309.603    
     31500   610.93599      5053.2729     -43959.653     -43294.957    
     31600   638.8463      -3057.3672     -43979.31      -43284.248    
     31700   616.98528      15526.511     -43969.777     -43298.5      
     31800   609.76664      14907.304     -43960.465     -43297.041    
     31900   617.28099      18079.495     -43917.095     -43245.496    
     32000   649.69175      12845.492     -43927.609     -43220.747    
     32100   628.845        12534.409     -43924.275     -43240.094    
     32200   602.41475      7058.0217     -43955.057     -43299.632    
     32300   601.65742      21815.08      -43977.748     -43323.147    
     32400   607.72964      11741.511     -43963.572     -43302.364    
     32500   655.38565      18489.797     -43986.315     -43273.258    
     32600   651.29259      26228.409     -43982.137     -43273.533    
     32700   645.98654      5139.7197     -43965.455     -43262.624    
     32800   617.05655      1426.2261     -43915.492     -43244.137    
     32900   655.32871      5455.2568     -43911.655     -43198.661    
     33000   665.71501      6350.7792     -43866.11      -43141.815    
     33100   640.08225      2990.2411     -43862.037     -43165.63     
     33200   608.80128      3166.3585     -43894.002     -43231.629    
     33300   632.76708      4004.6296     -43928.654     -43240.206    
     33400   615.7512       13487.133     -43913.786     -43243.852    
     33500   589.52391      22945.3       -43865.123     -43223.723    
     33600   672.93954      14513.651     -43886.018     -43153.862    
     33700   646.02972      5906.4994     -43855.057     -43152.18     
     33800   643.44764      15716.696     -43892.687     -43192.619    
     33900   636.12382      5057.5062     -43940.276     -43248.176    
     34000   640.48227      10932.482     -43943.587     -43246.745    
     34100   652.73435      5858.3158     -43934.081     -43223.908    
     34200   647.70529      9277.8455     -43932.334     -43227.634    
     34300   635.9074       8625.6679     -43903.774     -43211.91     
     34400   688.07413      24455.63      -43907.333     -43158.711    
     34500   688.1327       7213.553      -43909.506     -43160.82     
     34600   631.29257      15824.916     -43916.735     -43229.892    
     34700   615.16373      12809.97      -43927.615     -43258.319    
     34800   648.92617      14190.172     -43948.762     -43242.733    
     34900   632.39068      2208.5378     -43905.341     -43217.302    
     35000   632.42603      15092.323     -43887.249     -43199.172    
     35100   633.64044      11793.583     -43879.42      -43190.022    
     35200   635.42219      7799.3116     -43877.263     -43185.926    
     35300   609.86691     -5382.6689     -43859.264     -43195.732    
     35400   629.23861     -4578.5462     -43905.613     -43221.005    
     35500   612.80994      9188.2649     -43912.51      -43245.775    
     35600   628.83026     -13257.571     -43904.37      -43220.206    
     35700   673.95021      27205.222     -43881.879     -43148.624    
     35800   678.26848      2722.8745     -43860.729     -43122.776    
     35900   692.76204      11503.418     -43895.416     -43141.694    
     36000   653.57917      20855.13      -43893.915     -43182.824    
     36100   620.10358      21484.485     -43934.312     -43259.642    
     36200   660.44684     -2942.1572     -43982.43      -43263.867    
     36300   623.71503      4424.8289     -43907.935     -43229.335    
     36400   666.52963      20067.076     -43928.783     -43203.602    
     36500   684.19668      10626.514     -43923.952     -43179.549    
     36600   662.79144      20923.104     -43892.771     -43171.656    
     36700   668.5143       10996.933     -43891.028     -43163.687    
     36800   677.93011      16442.521     -43863.868     -43126.283    
     36900   755.11371      15191.457     -43935.05      -43113.49     
     37000   620.76945     -6670.9046     -43853.563     -43178.168    
     37100   662.13952      16020.905     -43909.663     -43189.258    
     37200   648.26752      9064.6559     -43876.548     -43171.235    
     37300   701.87767     -4130.0014     -43875.682     -43112.042    
     37400   744.14224      10417.2       -43860.37      -43050.747    
     37500   680.7196       7094.1786     -43849.281     -43108.661    
     37600   697.61305      4517.0746     -43913.881     -43154.881    
     37700   644.46687      17523.273     -43882.224     -43181.047    
     37800   676.46556      26530.385     -43907.585     -43171.593    
     37900   746.76974      21458.938     -43900.892     -43088.409    
     38000   716.19368     -7490.2607     -43844.459     -43065.244    
     38100   723.94652      17444.828     -43893.116     -43105.465    
     38200   668.64639      7547.8977     -43878.682     -43151.198    
     38300   676.06226     -4577.2166     -43879.978     -43144.425    
     38400   659.11328      10534.513     -43837.184     -43120.072    
     38500   695.05177      6371.7422     -43860.964     -43104.751    
     38600   700.8636       16228.548     -43855.097     -43092.56     
     38700   677.17594      28779.873     -43824.637     -43087.872    
     38800   686.55948      16376.378     -43780.314     -43033.34     
     38900   729.07632      20610.273     -43794.206     -43000.974    
     39000   743.6481       1023.2644     -43864.269     -43055.183    
     39100   667.74488      13415.202     -43845.546     -43119.042    
     39200   696.48935      5870.3687     -43864.974     -43107.196    
     39300   675.80625      7061.7987     -43844.997     -43109.723    
     39400   700.60979      12447.542     -43846.069     -43083.809    
     39500   759.61064      9011.4076     -43858.362     -43031.909    
     39600   692.70624      3314.5184     -43817.451     -43063.789    
     39700   689.11856      2533.5078     -43873.078     -43123.32     
     39800   683.86432      7990.1443     -43863.169     -43119.127    
     39900   646.3467       9758.405      -43790.487     -43087.265    
     40000   729.38962     -1372.7666     -43865.21      -43071.638    
     40100   684.92142      7138.1761     -43829.784     -43084.592    
     40200   669.31585      22156.496     -43822.646     -43094.434    
     40300   736.15857      11736.732     -43900.14      -43099.202    
     40400   693.22849      17351.258     -43852.804     -43098.574    
     40500   714.4657       12130.63      -43843.401     -43066.066    
     40600   737.23301      9819.8636     -43824.072     -43021.966    
     40700   725.89427      18042.606     -43826.69      -43036.921    
     40800   687.20379      5470.3646     -43856.126     -43108.451    
     40900   655.97351      14120.195     -43856.161     -43142.464    
     41000   715.25036      7704.3005     -43897.564     -43119.374    
     41100   750.83999      5892.0114     -43832.821     -43015.911    
     41200   737.73481     -4926.0708     -43805.622     -43002.969    
     41300   729.83857      9955.2073     -43818.695     -43024.634    
     41400   697.04251      12305.361     -43841.292     -43082.913    
     41500   687.1207       18468.478     -43857.981     -43110.397    
     41600   716.48966     -6376.0938     -43854.902     -43075.364    
     41700   751.09326      9252.579      -43788.886     -42971.7      
     41800   756.51851      4735.244      -43806.595     -42983.506    
     41900   709.71173     -7485.4088     -43808.117     -43035.954    
     42000   670.57203      9530.0852     -43790.756     -43061.177    
     42100   702.08119      10752.091     -43807.039     -43043.178    
     42200   795.26234      21611.235     -43824.086     -42958.844    
     42300   755.12354      18505.146     -43788.776     -42967.205    
     42400   745.87424      32728.812     -43818.905     -43007.397    
     42500   744.07052      12580.923     -43845.481     -43035.936    
     42600   719.65441      15487.855     -43833.91      -43050.929    
     42700   689.73254      5487.2183     -43797.407     -43046.981    
     42800   701.6143      -15067.693     -43791.703     -43028.35     
     42900   771.13705      5305.1047     -43849.608     -43010.614    
     43000   678.51662      15892.251     -43794.579     -43056.356    
     43100   713.05702      25625.185     -43861.409     -43085.606    
     43200   700.29387      11746.248     -43815.89      -43053.973    
     43300   764.04976      12087.327     -43818.332     -42987.05     
     43400   762.51416      26183.541     -43785.754     -42956.142    
     43500   785.39584      24751.016     -43837.636     -42983.129    
     43600   720.43413      5635.5979     -43834.776     -43050.947    
     43700   647.26487      3733.4517     -43835.269     -43131.048    
     43800   686.34684      2896.8196     -43858.069     -43111.326    
     43900   719.62632      10701.375     -43815.776     -43032.825    
     44000   711.0587       6395.6862     -43765.41      -42991.781    
     44100   723.77245      9471.6972     -43730.028     -42942.567    
     44200   774.57693      8467.8214     -43777.015     -42934.279    
     44300   740.75485      2250.0639     -43800.208     -42994.27     
     44400   743.08721      6808.8701     -43850.514     -43042.038    
     44500   752.93126      7554.1242     -43850.16      -43030.974    
     44600   779.69812     -1724.99       -43828.632     -42980.324    
     44700   776.08311      18082.455     -43751.63      -42907.255    
     44800   782.86289      13602.158     -43678.572     -42826.821    
     44900   803.62889      8740.4409     -43759.002     -42884.657    
     45000   723.5791       15137.979     -43728.83      -42941.579    
     45100   729.34032      15686.999     -43777.45      -42983.931    
     45200   718.95931      2151.7742     -43775.156     -42992.931    
     45300   780.18642      4356.6568     -43821.991     -42973.152    
     45400   803.3823       30614.211     -43756.034     -42881.957    
     45500   807.37753      7478.9489     -43741.307     -42862.884    
     45600   796.8139       22561.152     -43771.343     -42904.413    
     45700   770.76996      16086.358     -43805.024     -42966.429    
     45800   749.10272      10914.209     -43800.602     -42985.582    
     45900   768.74735      18194.942     -43804.916     -42968.522    
     46000   754.17307      8264.739      -43771.185     -42950.648    
     46100   748.09558      10200.791     -43736.765     -42922.84     
     46200   751.62758      11199.211     -43693.385     -42875.617    
     46300   804.37953      15545.767     -43695.473     -42820.312    
     46400   791.35596      21034.252     -43696.548     -42835.556    
     46500   748.48859      4351.2202     -43749.459     -42935.107    
     46600   753.48565      9385.3306     -43774.419     -42954.63     
     46700   749.10221     -12488.038     -43733.569     -42918.549    
     46800   810.29211      18198.756     -43741.055     -42859.461    
     46900   809.58991      16474.467     -43754.121     -42873.291    
     47000   712.97752      7173.4429     -43744.399     -42968.682    
     47100   721.11996     -8278.3472     -43780.914     -42996.339    
     47200   749.65269      31015.632     -43772.32      -42956.701    
     47300   771.34815      28505.285     -43756.542     -42917.318    
     47400   796.46335      5513.2355     -43760.934     -42894.385    
     47500   802.25224     -595.90626     -43745.581     -42872.734    
     47600   819.15886      12143.529     -43734.193     -42842.951    
     47700   784.56131      21217.363     -43692.407     -42838.808    
     47800   825.87694      7637.2957     -43783.829     -42885.279    
     47900   743.55896      18490.841     -43753.298     -42944.309    
     48000   759.1879       27788.57      -43768.809     -42942.816    
     48100   772.37261      4338.3011     -43729.562     -42889.224    
     48200   799.09361      19936.045     -43669.589     -42800.178    
     48300   785.6423       12667.528     -43681.271     -42826.495    
     48400   795.83018      147.13235     -43747.531     -42881.672    
     48500   758.45363      18854.512     -43748.289     -42923.095    
     48600   779.60413      2875.0706     -43755.988     -42907.782    
     48700   841.94895      20602.105     -43706.028     -42789.991    
     48800   839.47342     -2172.5296     -43719.385     -42806.042    
     48900   730.86342      1802.2323     -43647.832     -42852.655    
     49000   769.46267      16569.281     -43719.026     -42881.854    
     49100   766.66562     -1926.0556     -43730.429     -42896.3      
     49200   770.50558      16378.75      -43725.64      -42887.333    
     49300   732.54358      19088.491     -43632.393     -42835.389    
     49400   852.45342      10065.05      -43714.588     -42787.122    
     49500   779.28347     -887.80874     -43675.318     -42827.461    
     49600   773.4561       8568.1025     -43734.307     -42892.79     
     49700   758.86935      13054.482     -43730.754     -42905.108    
     49800   818.04565     -567.02609     -43668.23      -42778.2      
     49900   834.14029      1244.9721     -43687.941     -42780.4      
     50000   792.78774     -8318.5407     -43698.702     -42836.152    
     50100   767.41691      11429.896     -43712.733     -42877.787    
     50200   790.66637      20755.15      -43747.902     -42887.661    
     50300   808.29902      2655.7031     -43697.658     -42818.232    
     50400   891.57813      15012.14      -43724.804     -42754.77     
     50500   869.98773      4921.4068     -43742.125     -42795.582    
     50600   852.67112     -7516.1115     -43796.465     -42868.762    
     50700   790.5196       16560.572     -43730.206     -42870.124    
     50800   859.61389     -574.56698     -43760.709     -42825.453    
     50900   781.19885      26200.537     -43641.234     -42791.293    
     51000   831.63536      16918.055     -43687.615     -42782.799    
     51100   835.88351     -5289.7726     -43704.554     -42795.116    
     51200   773.32773      10421.753     -43650.695     -42809.318    
     51300   837.19893      10912.988     -43695.736     -42784.867    
     51400   842.38393      9862.5712     -43661.563     -42745.053    
     51500   840.13417      19060.812     -43555.848     -42641.786    
     51600   867.82857      12777.409     -43610.434     -42666.24     
     51700   806.0116       26368.444     -43621.915     -42744.978    
     51800   804.9968       16368.438     -43644.277     -42768.444    
     51900   833.05129      27250.346     -43687.926     -42781.57     
     52000   854.02007      12490.822     -43746.413     -42817.243    
     52100   779.49003      19170.432     -43718.47      -42870.388    
     52200   816.25893      22155.348     -43728.72      -42840.633    
     52300   856.58385      8887.5868     -43686.801     -42754.841    
     52400   851.5826       7718.5888     -43669.141     -42742.623    
     52500   826.9909       258.30091     -43685.811     -42786.049    
     52600   767.88667      13503.72      -43725.242     -42889.785    
     52700   817.08342      3642.2039     -43777.573     -42888.59     
     52800   833.06589      2321.4942     -43743.372     -42837        
     52900   792.00706      17310.263     -43643.839     -42782.139    
     53000   815.6056       20045.15      -43633.398     -42746.023    
     53100   909.44372      25295.172     -43701.279     -42711.808    
     53200   822.66357      11525.123     -43608.114     -42713.059    
     53300   819.70334      5467.473      -43688.386     -42796.552    
     53400   821.87032     -7996.312      -43732.672     -42838.48     
     53500   798.17362      7083.8654     -43673.814     -42805.405    
     53600   856.81069      11137.668     -43663.126     -42730.92     
     53700   872.25679     -17654.547     -43656.819     -42707.807    
     53800   864.51948      14859.081     -43659.134     -42718.541    
     53900   875.02922      14813.223     -43688.474     -42736.446    
     54000   824.9918      -303.77423     -43662.361     -42764.774    
     54100   769.71394      7019.3486     -43634.442     -42796.996    
     54200   858.03131      16996.679     -43702.147     -42768.612    
     54300   895.82953      9687.0148     -43637.03      -42662.372    
     54400   914.16817      8797.5227     -43646.142     -42651.531    
     54500   844.47718      24479.339     -43625.24      -42706.452    
     54600   826.60846      8589.7712     -43635.045     -42735.699    
     54700   806.75255      14647.465     -43615.963     -42738.22     
     54800   876.05194      16496.912     -43690.902     -42737.761    
     54900   892.3331       17645.448     -43698.489     -42727.634    
     55000   824.51389      15696.672     -43621.755     -42724.688    
     55100   857.91538     -1871.0247     -43674.869     -42741.461    
     55200   880.09745      8751.2324     -43723.358     -42765.816    
     55300   830.5527       28550.644     -43634.542     -42730.904    
     55400   894.54721      30673.992     -43617.969     -42644.705    
     55500   926.30081      4086.0003     -43637.974     -42630.163    
     55600   908.73795      10285.404     -43680.199     -42691.497    
     55700   823.72614      20118.511     -43627.79      -42731.58     
     55800   841.52695      21557.124     -43648.346     -42732.768    
     55900   852.0337       15680.386     -43637.363     -42710.354    
     56000   865.81801      13843.885     -43589.126     -42647.12     
     56100   883.42075      12991.956     -43541.637     -42580.479    
     56200   890.34377      15907.813     -43614.914     -42646.224    
     56300   893.34049      19626.267     -43721.534     -42749.583    
     56400   811.51652      12030.031     -43614.573     -42731.647    
     56500   845.61056     -5352.0594     -43588.05      -42668.029    
     56600   895.85171      8002.097      -43605.378     -42630.695    
     56700   925.32405      2957.5679     -43643.682     -42636.934    
     56800   823.9738       8258.9436     -43611.129     -42714.649    
     56900   881.33867      37266.945     -43717.487     -42758.595    
     57000   887.26483      19064.151     -43691.296     -42725.955    
     57100   890.27186      29907.21      -43597.632     -42629.02     
     57200   938.55163      9208.7615     -43599.743     -42578.603    
     57300   915.57528      19137.98      -43609.826     -42613.684    
     57400   918.97289      3375.1539     -43667.779     -42667.941    
     57500   818.16891      10503.982     -43585.683     -42695.518    
     57600   839.6488       25952.776     -43591.992     -42678.457    
     57700   924.54908      33682.754     -43567.362     -42561.457    
     57800   941.75931      23396.861     -43580.082     -42555.451    
     57900   869.49102      1198.2682     -43582.476     -42636.473    
     58000   875.03188      6697.4302     -43611.364     -42659.333    
     58100   852.648        5248.0833     -43580.648     -42652.971    
     58200   941.9609       23082.807     -43659.039     -42634.19     
     58300   905.81663      11768.704     -43541.968     -42556.443    
     58400   932.32659      8716.8819     -43507.817     -42493.45     
     58500   899.3263       13178.368     -43531.427     -42552.964    
     58600   892.14927      2989.9961     -43611.527     -42640.873    
     58700   848.8277      -4899.4194     -43579.442     -42655.921    
     58800   877.80956     -4967.6404     -43593.894     -42638.841    
     58900   923.40696     -2294.4217     -43630.933     -42626.271    
     59000   881.47065      398.37609     -43562.166     -42603.13     
     59100   895.28513      6578.3153     -43561.517     -42587.451    
     59200   933.98953      38392.277     -43634.426     -42618.249    
     59300   828.40589      5829.2399     -43574.64      -42673.338    
     59400   799.73731      22028.878     -43557.541     -42687.431    
     59500   900.41218      16411.779     -43569.251     -42589.607    
     59600   962.0964       16752.645     -43587.493     -42540.736    
     59700   904.28244     -2789.4973     -43562.398     -42578.543    
     59800   886.28677      9836.6702     -43576.119     -42611.843    
     59900   814.07426      13581.207     -43582.951     -42697.242    
     60000   820.0637       20334.585     -43648.242     -42756.016    
     60100   935.22978      28967.665     -43683.31      -42665.784    
     60200   904.00995      6323.2192     -43567.553     -42583.994    
     60300   884.21934      16896.407     -43528.651     -42566.624    
     60400   954.58016      10853.867     -43583.877     -42545.298    
     60500   894.73537      14486.451     -43551.431     -42577.963    
     60600   818.92492      11032.158     -43547.592     -42656.605    
     60700   875.87934      13839.556     -43613.914     -42660.962    
     60800   1006.7499      10594.222     -43647.573     -42552.234    
     60900   856.0837       10306.244     -43426.61      -42495.194    
     61000   991.25776      24961.067     -43580.457     -42501.973    
     61100   894.64303      13608.917     -43549.906     -42576.538    
     61200   926.30573      14490.12      -43612.23      -42604.413    
     61300   898.31432      17531.581     -43594.93      -42617.568    
     61400   893.16541      19089.365     -43560.706     -42588.946    
     61500   926.44968     -675.66931     -43512.336     -42504.363    
     61600   1011.8675      11066.108     -43509.436     -42408.529    
     61700   988.4582      -750.89858     -43542.552     -42467.113    
     61800   885.11531     -1941.0371     -43515.717     -42552.716    
     61900   894.11467      3050.1457     -43569.73      -42596.937    
     62000   936.93203     -5624.0844     -43620.442     -42601.064    
     62100   962.34089      15494.902     -43615.981     -42568.959    
     62200   936.64166      7618.8028     -43498.385     -42479.323    
     62300   974.52239      9454.0452     -43498.91      -42438.634    
     62400   967.92285      20943.415     -43554.538     -42501.442    
     62500   929.59575      11182.64      -43598.746     -42587.35     
     62600   930.21388      21319.433     -43589.214     -42577.145    
     62700   938.25164      8260.2235     -43554.958     -42534.145    
     62800   939.28061     -6457.6695     -43530.129     -42508.196    
     62900   966.30854     -295.34646     -43524.432     -42473.093    
     63000   958.66755      26921.229     -43506.828     -42463.802    
     63100   913.68587     -6097.8397     -43525.661     -42531.574    
     63200   878.1091       12476.276     -43552.556     -42597.177    
     63300   905.997        11880.994     -43586.017     -42600.297    
     63400   934.51968      32408.055     -43520.93      -42504.176    
     63500   988.71518      19214.822     -43503.931     -42428.213    
     63600   938.41289      20215.747     -43497.437     -42476.448    
     63700   920.12139      19091.313     -43547.508     -42546.42     
     63800   889.28758      3250.4198     -43547.949     -42580.408    
     63900   906.34159      8461.0967     -43530.28      -42544.185    
     64000   986.0876       15548.466     -43537.045     -42464.186    
     64100   942.37932      23084.63      -43393.296     -42367.992    
     64200   1008.6274      15063.268     -43371.683     -42274.301    
     64300   1023.0461      1369.2813     -43471.528     -42358.458    
     64400   977.57633      11780.486     -43503.628     -42440.029    
     64500   973.15939      19109.592     -43586.616     -42527.822    
     64600   926.43024      22347.798     -43575.319     -42567.366    
     64700   909.26404      23240.44      -43535.194     -42545.919    
     64800   971.50809      17891.261     -43498.132     -42441.135    
     64900   960.39106      8520.4081     -43459.539     -42414.638    
     65000   931.28563      25781.079     -43465.273     -42452.038    
     65100   971.57728      20825.065     -43533.14      -42476.068    
     65200   939.79631     -7251.7834     -43534.489     -42511.995    
     65300   947.18696      19828.663     -43529.991     -42499.455    
     65400   988.77378      27389.814     -43476.694     -42400.912    
     65500   1017.0198      12311.494     -43462.627     -42356.114    
     65600   941.50412      19975.01      -43533.023     -42508.67     
     65700   941.80416      15951.664     -43582.598     -42557.919    
     65800   914.41644      12144.205     -43526.095     -42531.214    
     65900   994.72613      20796.55      -43528.395     -42446.137    
     66000   1000.9776      25794.528     -43505.976     -42416.916    
     66100   958.89924      16076.368     -43495.878     -42452.599    
     66200   908.51011     -8890.1962     -43539.824     -42551.368    
     66300   913.94828      8684.3588     -43538.945     -42544.573    
     66400   934.63572      4500.637      -43505.352     -42488.472    
     66500   984.03036      10056.513     -43524.179     -42453.558    
     66600   1010.5805      9053.7566     -43546.966     -42447.459    
     66700   981.81882      16098.843     -43534.418     -42466.204    
     66800   900.15411      3369.9052     -43512.372     -42533.009    
     66900   922.49521     -1678.6704     -43571.046     -42567.375    
     67000   921.15056      11416.408     -43500.702     -42498.494    
     67100   1006.81        17003.431     -43508.876     -42413.471    
     67200   997.37455      20225.698     -43484.566     -42399.427    
     67300   1006.7688      20943.315     -43514.843     -42419.483    
     67400   966.23405     -6278.6137     -43570.125     -42518.866    
     67500   921.80365      21358.301     -43580.711     -42577.792    
     67600   893.28318      20946.511     -43518.77      -42546.882    
     67700   954.55455      29388.9       -43505.86      -42467.308    
     67800   1012.8768      4512.3808     -43495.986     -42393.981    
     67900   1052.606       22851.508     -43531.311     -42386.08     
     68000   925.10557      22709.261     -43457.669     -42451.158    
     68100   1006.3237      25621.718     -43554.501     -42459.625    
     68200   1026.8743      21655.738     -43476.536     -42359.301    
     68300   1049.7615      6391.8302     -43463.615     -42321.479    
     68400   953.10014      22554.041     -43443.537     -42406.568    
     68500   974.65023      17896.928     -43518.87      -42458.455    
     68600   1006.1325      20639.325     -43529.453     -42434.785    
     68700   1005.0335      33494.796     -43483.155     -42389.683    
     68800   1021.7041      10631.32      -43392.527     -42280.917    
     68900   1121.584       4343.115      -43445.152     -42224.873    
     69000   1042.1494      20219.749     -43466.641     -42332.787    
     69100   1032.0948      18864.38      -43506.869     -42383.954    
     69200   1012.2954      24581.487     -43534.402     -42433.029    
     69300   972.4182       4138.5684     -43504.012     -42446.025    
     69400   1001.7075      22225.314     -43500.458     -42410.604    
     69500   1079.167       13835.68      -43481.585     -42307.456    
     69600   1043.2806      6605.2289     -43405.473     -42270.388    
     69700   1028.295       33280.335     -43445.623     -42326.843    
     69800   1010.7647      6682.4559     -43512.704     -42412.996    
     69900   954.52218      17714.3       -43466.479     -42427.963    
     70000   990.68129     -4140.0133     -43450.557     -42372.7      
     70100   979.98262      3305.7201     -43385.375     -42319.158    
     70200   1023.2307      25745.19      -43396.525     -42283.254    
     70300   992.33039      18672.388     -43391.733     -42312.082    
     70400   957.87766      20540.478     -43471.724     -42429.557    
     70500   951.49804      14097.275     -43484.178     -42448.952    
     70600   997.1805       22585.039     -43474.143     -42389.215    
     70700   1041.6451      5067.5333     -43425.042     -42291.736    
     70800   1099.6829      13341.605     -43487.123     -42290.673    
     70900   1005.3138      15262.378     -43438         -42344.223    
     71000   1012.5325      9684.0495     -43484.336     -42382.705    
     71100   1003.9462      12427.306     -43511.927     -42419.638    
     71200   924.3131       18283.487     -43461.326     -42455.677    
     71300   994.48925      37804.689     -43454.408     -42372.408    
     71400   1062.8225      18207.328     -43461.292     -42304.945    
     71500   986.89131      26247.719     -43394.154     -42320.421    
     71600   1035.9231     -9279.6106     -43471.344     -42344.265    
     71700   975.91664      8851.6521     -43484.034     -42422.241    
     71800   993.54616      20471.789     -43504.442     -42423.468    
     71900   1022.5109      7518.3857     -43430.838     -42318.351    
     72000   1074.6952      9515.3377     -43446.9       -42277.637    
     72100   1029.6536      40910.747     -43432.954     -42312.695    
     72200   1038.5646      34379.657     -43493.729     -42363.775    
     72300   1002.7712      7819.5674     -43494.755     -42403.744    
     72400   923.5511       11081.977     -43514.818     -42509.999    
     72500   957.73209      17235.516     -43584.785     -42542.776    
     72600   996.29857      19158.006     -43512.703     -42428.735    
     72700   1014.4853      10835.429     -43449.377     -42345.621    
     72800   1087.1362      20586.7       -43466.961     -42284.161    
     72900   1025.6013     -465.612       -43383.808     -42267.958    
     73000   1066.7046      13650.028     -43433.633     -42273.063    
     73100   1046.1689      26908.799     -43438.935     -42300.708    
     73200   1024.5179      8893.7567     -43494.842     -42380.171    
     73300   1024.762       22840.732     -43536.64      -42421.704    
     73400   1037.0861      16435.999     -43493.676     -42365.331    
     73500   1072.1536      21893.794     -43412.454     -42245.955    
     73600   1064.0031      11566.234     -43390.594     -42232.963    
     73700   1071.5302      27835.953     -43429.009     -42263.189    
     73800   1033.1295      1410.373      -43445.609     -42321.569    
     73900   956.22541      18224.549     -43443.318     -42402.949    
     74000   1034.3443      28136.323     -43507.137     -42381.775    
     74100   1075.5191      38207.4       -43423.556     -42253.396    
     74200   1099.0706      37226.786     -43425.102     -42229.318    
     74300   1043.9936      13524.28      -43411.004     -42275.144    
     74400   998.69127      22046.455     -43385.497     -42298.925    
     74500   1036.8725      22649.434     -43420.54      -42292.427    
     74600   1058.1329      382.61752     -43438.06      -42286.816    
     74700   1008.4319      15612.998     -43374.972     -42277.803    
     74800   979.40826      4663.1517     -43338.629     -42273.037    
     74900   1011.6649      35173.995     -43314.346     -42213.659    
     75000   1094.3011      35269.561     -43382.899     -42192.304    
     75100   1028.3878      14872.694     -43431.047     -42312.166    
     75200   1056.8264      15042.769     -43485.771     -42335.948    
     75300   1082.3803      2071.8347     -43484.826     -42307.201    
     75400   963.44676      22341.09      -43308.469     -42260.243    
     75500   1101.8003      31326.236     -43392.775     -42194.021    
     75600   1072.5675      21931.565     -43358.133     -42191.185    
     75700   1084.7152      12879.075     -43408.837     -42228.672    
     75800   1102.4284      32131.131     -43467.721     -42268.283    
     75900   1037.8445      12250.327     -43446.268     -42317.097    
     76000   1059.2325      4187.7294     -43461.013     -42308.573    
     76100   1090.5868      8743.1507     -43379.33      -42192.776    
     76200   1102.2153      11423.777     -43342.573     -42143.367    
     76300   1164.8233      6564.3004     -43437.471     -42170.148    
     76400   1068.945      -3584.0193     -43455.054     -42292.046    
     76500   1078.9293     -917.60364     -43493.198     -42319.327    
     76600   1028.8477      8037.8751     -43406.446     -42287.064    
     76700   1091.3295      2106.6963     -43393.35      -42205.988    
     76800   1061.1354      14680.469     -43323.334     -42168.824    
     76900   1094.303       19452.089     -43338.331     -42147.734    
     77000   1170.9169      32985.212     -43455.698     -42181.745    
     77100   1015.2487     -4430.059      -43390.789     -42286.203    
     77200   999.58873      20664.377     -43403.577     -42316.029    
     77300   1077.2718      10913.3       -43443.633     -42271.566    
     77400   1143.715       18781.937     -43412.016     -42167.659    
     77500   1072.8228      17659.686     -43307.054     -42139.828    
     77600   1022.8795      14285.216     -43279.394     -42166.505    
     77700   1077.501       26013.256     -43458.638     -42286.322    
     77800   984.48757     -3242.1279     -43441.625     -42370.507    
     77900   1078.0496      25647.589     -43467.686     -42294.772    
     78000   990.58908      27386.954     -43308.232     -42230.476    
     78100   1070.1225      26092.387     -43330.472     -42166.183    
     78200   1080.5447      21933.733     -43297.194     -42121.566    
     78300   1099.014       18423.015     -43312.898     -42117.175    
     78400   1069.5058      11440.472     -43406.499     -42242.882    
     78500   1044.9623      27873.966     -43438.051     -42301.136    
     78600   1051.4656      24932.22      -43374.13      -42230.14     
     78700   1074.6184      18148.043     -43330.655     -42161.475    
     78800   1118.6083      33864.175     -43360.997     -42143.956    
     78900   1038.7694      21034.49      -43317.473     -42187.296    
     79000   1046.1495      22088.17      -43445.801     -42307.595    
     79100   987.80408      20561.437     -43456.878     -42382.151    
     79200   1019.0652      13782.341     -43396.384     -42287.646    
     79300   1064.3905      16252.567     -43356.258     -42198.206    
     79400   1186.5811      13462.589     -43430.792     -42139.797    
     79500   1113.8268      18090.669     -43355.319     -42143.48     
     79600   1105.0914     -702.14037     -43406.09      -42203.755    
     79700   1052.4631      16956.642     -43425.375     -42280.3      
     79800   1065.4316      31932.316     -43439.985     -42280.8      
     79900   1116.9157      14905.661     -43368.831     -42153.632    
     80000   1081.835       31293.849     -43277.233     -42100.201    
     80100   1033.9835      21123.112     -43217.332     -42092.362    
     80200   1106.9871      8371.3136     -43358.961     -42154.564    
     80300   1035.1601      15668.535     -43388.718     -42262.468    
     80400   1131.7569      8607.173      -43449.562     -42218.215    
     80500   1118.6539      35872.45      -43376.963     -42159.872    
     80600   1067.193       11796.814     -43291.707     -42130.605    
     80700   1076.269       16722.694     -43306.239     -42135.263    
     80800   1043.4014      8604.738      -43380.136     -42244.92     
     80900   1035.7682      15730.226     -43383.506     -42256.595    
     81000   1073.1765      21905.035     -43314.386     -42146.775    
     81100   1067.1744      32992.91      -43261.29      -42100.209    
     81200   1119.6373      25870.098     -43327.653     -42109.493    
     81300   1069.3139      14630.938     -43314.435     -42151.026    
     81400   1082.8631      20129.551     -43443.112     -42264.962    
     81500   1051.5284      24241.787     -43421.045     -42276.987    
     81600   1097.7163      30256.487     -43351.26      -42156.949    
     81700   1161.4956      22785.723     -43366.158     -42102.455    
     81800   1112.462       36135.864     -43317.957     -42107.603    
     81900   1108.2356      11022.746     -43296.787     -42091.031    
     82000   1176.579       33780.81      -43288.233     -42008.12     
     82100   1167.3745      10259.869     -43271.97      -42001.871    
     82200   1141.0722      19917.328     -43378.988     -42137.507    
     82300   1084.9191      19597.419     -43347.796     -42167.408    
     82400   1124.3959      12412.337     -43325.997     -42102.659    
     82500   1176.2378      3339.6702     -43326.543     -42046.801    
     82600   1125.9805      10212.986     -43269.342     -42044.28     
     82700   1155.0249      41911.009     -43347.289     -42090.627    
     82800   1045.9318      19070.865     -43373.753     -42235.784    
     82900   1142.2614     -1521.6159     -43428.55      -42185.774    
     83000   1156.6532      12382.402     -43347.695     -42089.261    
     83100   1170.8567      29319.114     -43303.794     -42029.907    
     83200   1141.6658      33069.004     -43301.018     -42058.891    
     83300   1109.2948      11149.626     -43332.651     -42125.743    
     83400   1118.7202      23107.386     -43451.334     -42234.171    
     83500   1071.5661     -4955.4986     -43407.058     -42241.199    
     83600   1126.8171      28701.983     -43336.151     -42110.179    
     83700   1196.5618      26324.113     -43367.908     -42066.054    
     83800   1131.0891      15514.898     -43274.269     -42043.649    
     83900   1153.6431      17483.106     -43277.483     -42022.325    
     84000   1160.0795      16065.035     -43307.875     -42045.714    
     84100   1162.9956      14701.905     -43414.667     -42149.332    
     84200   1051.5411      8360.0308     -43344.226     -42200.154    
     84300   1115.8473      14606.14      -43325.161     -42111.124    
     84400   1144.1358      14039.478     -43288.824     -42044.009    
     84500   1109.7575      15766.057     -43247.942     -42040.531    
     84600   1197.71        9815.5143     -43329.091     -42025.988    
     84700   1144.8133      28274.949     -43284.368     -42038.816    
     84800   1094.4249      32042.069     -43303.669     -42112.939    
     84900   1110.2917      7946.2405     -43375.666     -42167.673    
     85000   1147.9841      35523.385     -43325.664     -42076.662    
     85100   1225.245       32154.373     -43324.003     -41990.942    
     85200   1186.4269      22648.558     -43305.293     -42014.465    
     85300   1113.2316      11394.351     -43295.294     -42084.103    
     85400   1128.5992      21295.666     -43320.805     -42092.894    
     85500   1070.3119      15577.127     -43193.074     -42028.579    
     85600   1177.2099      16818.369     -43165.595     -41884.796    
     85700   1165.3988      13343.98      -43173.509     -41905.56     
     85800   1177.5262      13428.732     -43281.851     -42000.707    
     85900   1147.9892      24015.695     -43311.766     -42062.759    
     86000   1122.0587      22814.94      -43297.492     -42076.697    
     86100   1092.7322      18838.653     -43293.436     -42104.548    
     86200   1138.8648      10119.794     -43299.542     -42060.462    
     86300   1154.9872      11599.866     -43210.979     -41954.358    
     86400   1251.3661      31298.091     -43263.201     -41901.72     
     86500   1187.9467      21828.024     -43272.397     -41979.916    
     86600   1130.0371      7912.3033     -43281.347     -42051.872    
     86700   1108.8657     -3695.7587     -43254.037     -42047.595    
     86800   1167.9152      3763.8162     -43279.146     -42008.459    
     86900   1177.7659      5360.696      -43274.293     -41992.888    
     87000   1189.7088      11903.9       -43281.192     -41986.794    
     87100   1214.6867      11142.744     -43323.64      -42002.066    
     87200   1135.3406     -5275.6653     -43240.304     -42005.058    
     87300   1212.4144      24254.265     -43313.195     -41994.094    
     87400   1170.6827      4323.3538     -43270.142     -41996.444    
     87500   1206.2964      20640.568     -43270.514     -41958.069    
[...]
    127600   1568.6819      2456.1452     -42753.467     -41046.748    
    127700   1736.8735      31623.97      -42716.507     -40826.796    
    127800   1692.7773      22444.442     -42713.692     -40871.958    
    127900   1658.0396      24516.099     -42819.054     -41015.114    
    128000   1550.8156      13754.099     -42790.482     -41103.201    
    128100   1568.0668      49802.29      -42802.895     -41096.845    
    128200   1609.2225      14042.39      -42820.064     -41069.237    
    128300   1584.5648      5406.9706     -42751.24      -41027.24     
    128400   1590.8117      14861.063     -42758.734     -41027.938    
    128500   1639.3309      29441.42      -42911.358     -41127.773    
    128600   1524.7516      10506.53      -42850.514     -41191.591    
    128700   1592.6934      11935.519     -42852.941     -41120.098    
    128800   1691.8519      31683.665     -42775.548     -40934.821    
    128900   1679.2979      28832.757     -42753.725     -40926.656    
    129000   1524.6819      12603.576     -42684.081     -41025.233    
    129100   1647.5727      14748.037     -42870.74      -41078.188    
    129200   1576.5652      8753.5575     -42815.729     -41100.433    
    129300   1599.6972      27435.799     -42843.428     -41102.965    
    129400   1603.4107      27005.877     -42826.306     -41081.802    
    129500   1642.1968      30224.223     -42840.736     -41054.033    
    129600   1531.9557      12915.886     -42746.657     -41079.896    
    129700   1522.3242      6788.2402     -42798.464     -41142.182    
    129800   1531.3859      6466.4246     -42861.689     -41195.548    
    129900   1516.3872      14577.606     -42890.531     -41240.708    
    130000   1627.9329      19174.261     -42888.975     -41117.791    
    130100   1674.4649      33604.282     -42803.974     -40982.163    
    130200   1521.0257      5616.1858     -42667.319     -41012.45     
    130300   1641.7361      23426.761     -42873.129     -41086.927    
    130400   1542.167       16518.33      -42889.499     -41211.628    
    130500   1434.8353      20707.066     -42862.322     -41301.227    
    130600   1587.1764      20628.579     -42898.919     -41172.078    
    130700   1567.0408      17177.695     -42724.966     -41020.032    
    130800   1667.3         38724.637     -42749.875     -40935.86     
    130900   1640.7306      40152.41      -42717.122     -40932.014    
    131000   1572.6843      23692.827     -42794.319     -41083.245    
    131100   1509.0376      7801.9264     -42809.385     -41167.558    
    131200   1735.8534      36818.299     -42995.354     -41106.753    
    131300   1589.6568      1704.0941     -42860.886     -41131.346    
    131400   1595.283       31481.048     -42870.094     -41134.433    
    131500   1705.7779      18429.688     -42817.077     -40961.198    
    131600   1744.1637      21134.617     -42764.119     -40866.477    
    131700   1682.5789      14209.236     -42785.647     -40955.009    
    131800   1562.7766      45213.189     -42793.305     -41093.011    
    131900   1580.0297      31687.655     -42839.665     -41120.599    
    132000   1653.8921      41908.505     -42879.63      -41080.202    
    132100   1529.8101      23312.962     -42705.055     -41040.628    
    132200   1653.672       34883.234     -42770.086     -40970.898    
    132300   1621.0766      22710.738     -42726.012     -40962.288    
    132400   1701.2335      16429.458     -42872.092     -41021.157    
    132500   1530.3455      33391.335     -42767.222     -41102.212    
    132600   1622.8947      27562.383     -42873.976     -41108.274    
    132700   1626.738       24103.242     -42731.493     -40961.609    
    132800   1635.6975      23601.74      -42653.147     -40873.516    
    132900   1690.5268      19071.856     -42771.83      -40932.544    
    133000   1636.8893      30955.666     -42918.791     -41137.863    
    133100   1570.7129      29499.735     -42805.928     -41097        
    133200   1618.3479      9399.9749     -42763.321     -41002.566    
    133300   1694.0922      21822.805     -42743.602     -40900.437    
    133400   1710.0399      18253.367     -42674.863     -40814.347    
    133500   1693.4169      2065.0811     -42651.16      -40808.73     
    133600   1626.7086      26894.005     -42738.458     -40968.606    
    133700   1605.832       42502.147     -42798.886     -41051.747    
    133800   1592.2511      20920.866     -42799.6       -41067.238    
    133900   1582.0351      9510.8193     -42701.314     -40980.067    
    134000   1733.8581      23799.016     -42667.35      -40780.92     
    134100   1667.3023      38885.356     -42652.652     -40838.634    
    134200   1672.4143      19686.563     -42815.149     -40995.569    
    134300   1650.8737      14749.474     -42814.015     -41017.872    
    134400   1623.0676      30090.78      -42811.471     -41045.58     
    134500   1614.5755      26543.812     -42770.019     -41013.367    
    134600   1609.4076      24296         -42688.952     -40937.924    
    134700   1708.0388      34445.281     -42665.693     -40807.354    
    134800   1688.5443      24400.796     -42632.595     -40795.466    
    134900   1534.9711      13126.16      -42579.776     -40909.734    
    135000   1689.4971      8499.3413     -42837.016     -40998.851    
    135100   1625.5807      25478.442     -42787.498     -41018.873    
    135200   1682.138       35959.077     -42800.922     -40970.763    
    135300   1625.8537      23264.731     -42686.431     -40917.509    
    135400   1657.0712     -24981.414     -42733.485     -40930.599    
    135500   1653.1689      36300.626     -42755.574     -40956.933    
    135600   1700.5665      40543.389     -42801.465     -40951.256    
    135700   1638.989       31361.881     -42740.637     -40957.424    
    135800   1677.7342      32627.653     -42756.754     -40931.386    
    135900   1604.8402      31809.012     -42632.056     -40885.997    
    136000   1774.9128      9998.0891     -42782.491     -40851.394    
    136100   1673.9533      18185.064     -42714.768     -40893.515    
    136200   1541.873       34789.988     -42639.471     -40961.92     
    136300   1714.6344      21345.836     -42784.671     -40919.157    
    136400   1731.9588      25479.135     -42715.13      -40830.766    
    136500   1775.4059      19030.985     -42673.901     -40742.267    
    136600   1796.1643     -1919.0035     -42794.813     -40840.594    
    136700   1624.9929      21144.876     -42779.095     -41011.11     
    136800   1574.941       31038.408     -42723.633     -41010.104    
    136900   1601.971       27417.962     -42645.605     -40902.668    
    137000   1621.3069      28839.612     -42577.976     -40814.001    
    137100   1739.6556      33699.269     -42728.279     -40835.541    
    137200   1676.106       17914.862     -42724.746     -40901.15     
    137300   1581.7384      25243.397     -42690.069     -40969.145    
    137400   1726.6021      5867.9428     -42792.916     -40914.38     
    137500   1785.5208      25068.854     -42676.871     -40734.232    
    137600   1692.9115      25276.584     -42582.332     -40740.452    
    137700   1735.5414      7748.2658     -42776.587     -40888.325    
    137800   1665.9503      13272.638     -42746.872     -40934.325    
    137900   1650.7982      34092.371     -42714.564     -40918.503    
    138000   1680.6603      21676.165     -42638.327     -40809.776    
    138100   1754.5112      49470.532     -42632.874     -40723.974    
    138200   1623.1974      40283.496     -42585.098     -40819.066    
    138300   1546.9314      49922.441     -42669.263     -40986.209    
    138400   1656.1238      39362.623     -42801.203     -40999.347    
    138500   1628.597       40046.745     -42668.005     -40896.099    
    138600   1691.4566      24424.806     -42568.535     -40728.238    
    138700   1747.7497      19342.176     -42578.733     -40677.189    
    138800   1703.5949      2735.0602     -42590.522     -40737.018    
    138900   1725.1851      16964.574     -42691.94      -40814.946    
    139000   1727.8467      40724.291     -42757.848     -40877.959    
    139100   1649.5539      29551.499     -42689.354     -40894.646    
    139200   1674.9408      18022.005     -42695.757     -40873.429    
    139300   1723.0502      19540.103     -42696.015     -40821.344    
    139400   1743.6487      23887.123     -42644.991     -40747.908    
    139500   1796.3129      15876.537     -42602.087     -40647.706    
    139600   1769.0457      27863.791     -42507.116     -40582.402    
    139700   1720.4489      38585.694     -42595.6       -40723.759    
    139800   1589.0654      26668.572     -42598.912     -40870.016    
    139900   1762.4489      11129.547     -42802.846     -40885.309    
    140000   1687.2514      28250.047     -42762.695     -40926.973    
    140100   1676.691       22443.129     -42647.288     -40823.055    
    140200   1807.4634      19882.909     -42624.748     -40658.236    
    140300   1767.8297      17363.162     -42630.076     -40706.685    
    140400   1628.898       36408.852     -42624.804     -40852.57     
    140500   1638.4179      14470.735     -42672.017     -40889.425    
    140600   1698.3473      6566.6028     -42685.666     -40837.871    
    140700   1676.8645      21387.195     -42661.345     -40836.924    
    140800   1683.4254      26682.55      -42663.661     -40832.101    
    140900   1791.5822      9607.4908     -42754.233     -40804.999    
    141000   1646.8251      34557.338     -42578.581     -40786.842    
    141100   1675.6336      22513.51      -42592.246     -40769.163    
    141200   1694.3184      6197.6554     -42654.531     -40811.119    
    141300   1793.83        3539.0815     -42761.166     -40809.487    
    141400   1639.7696      10366.862     -42674.247     -40890.184    
    141500   1661.4531      32939.096     -42840.189     -41032.535    
    141600   1596.9677      69101.616     -42729.157     -40991.663    
    141700   1692.7028      28071.588     -42655.869     -40814.216    
    141800   1700.7291      23798.204     -42616.379     -40765.994    
    141900   1738.4496      27296.102     -42632.73      -40741.305    
    142000   1691.434       29327.537     -42592.64      -40752.367    
    142100   1676.6597      18133.434     -42640.158     -40815.96     
    142200   1691.9143      39472.412     -42716.312     -40875.517    
    142300   1687.4137      13012.984     -42755.819     -40919.92     
    142400   1688.5399     -9405.681      -42685.646     -40848.522    
    142500   1752.4601      27452.99      -42577.942     -40671.273    
    142600   1880.2735      22834.74      -42722.389     -40676.66     
    142700   1638.383       14953.769     -42589.708     -40807.154    
    142800   1668.932       35914.101     -42652.777     -40836.986    
    142900   1768.4845      7865.9542     -42739.58      -40815.477    
    143000   1862.2167     -3844.9345     -42784.724     -40758.64     
    143100   1782.5729      33411.807     -42653.49      -40714.058    
    143200   1876.7181      29486.761     -42654.143     -40612.282    
    143300   1822.1263      23863.163     -42405.397     -40422.932    
    143400   1923.7288      23439.835     -42428.858     -40335.85     
    143500   1748.4753      18675.994     -42443.732     -40541.398    
    143600   1771.8455      33767.357     -42591.734     -40663.974    
    143700   1728.3077      22380.708     -42652.377     -40771.985    
    143800   1640.6234      197.1543      -42591.668     -40806.677    
    143900   1772.6317      46885.363     -42621.161     -40692.546    
    144000   1847.6193      30419.557     -42488.977     -40478.775    
    144100   1875.0011      25822.724     -42509.686     -40469.693    
    144200   1786.4853      39639.243     -42555.774     -40612.085    
    144300   1812.0596      3956.416      -42650.957     -40679.444    
    144400   1733.8595      14802.958     -42574.677     -40688.245    
    144500   1759.997       21484.063     -42538.084     -40623.215    
    144600   1776.9008      19009.997     -42454.711     -40521.451    
    144700   1769.8572     -682.21728     -42366.133     -40440.536    
    144800   1756.0982      60311.852     -42446.665     -40536.038    
    144900   1649.6486      18445.687     -42510.546     -40715.735    
    145000   1709.1112      23921.757     -42593.131     -40733.625    
    145100   1680.5763      49503.875     -42551.896     -40723.437    
    145200   1856.9751      16203.406     -42632.977     -40612.597    
    145300   1932.4475      34251.293     -42575.461     -40472.966    
    145400   1684.1643      29145.942     -42430.261     -40597.897    
    145500   1776.2003      20826.21      -42673.711     -40741.213    
    145600   1732.9368      33384.523     -42626.484     -40741.056    
    145700   1777.9511      55836.623     -42615.999     -40681.596    
    145800   1764.91        31430.246     -42535.46      -40615.246    
    145900   1974.7714      50052.677     -42518.456     -40369.913    
    146000   1953.4114      29817.215     -42515.418     -40390.115    
    146100   1826.2669      15775.998     -42553.482     -40566.512    
    146200   1771.8151      18655.363     -42588.649     -40660.922    
    146300   1579.7541      14707.819     -42424.513     -40705.747    
    146400   1824.9162      18852.341     -42599.063     -40613.562    
    146500   1711.9143      51511.849     -42337.852     -40475.297    
    146600   1781.6746      28549.285     -42303.541     -40365.086    
    146700   1805.6761      26323.325     -42478.072     -40513.504    
    146800   1694.6197      34256.609     -42535.609     -40691.87     
    146900   1791.4912     -751.36587     -42615.083     -40665.948    
    147000   1758.5872      32244.559     -42550.755     -40637.419    
    147100   1730.507       30069.517     -42517.532     -40634.748    
    147200   1761.6961      19348.307     -42604.637     -40687.919    
    147300   1789.4234      36679.757     -42674.294     -40727.409    
    147400   1670.3318      3579.1962     -42547.139     -40729.826    
    147500   1922.9999      20451.155     -42750.31      -40658.094    
    147600   1769.517       8831.7399     -42554.437     -40629.21     
    147700   1922.5461      57353.613     -42667.024     -40575.302    
    147800   1785.9771      25274.348     -42555.059     -40611.924    
    147900   1770.5784      33156.773     -42634.033     -40707.651    
    148000   1835.7036      7741.5751     -42742.821     -40745.584    
    148100   1743.7525      42369.86      -42707.807     -40810.612    
    148200   1630.1017      31838.42      -42515.63      -40742.087    
    148300   1770.2604      25543.606     -42461.391     -40535.356    
    148400   1849.9004      39786.513     -42497.549     -40484.865    
    148500   1745.7599      22831.466     -42529.029     -40629.65     
    148600   1651.2429      18066.886     -42509.353     -40712.808    
    148700   1793.791       34123.584     -42628.997     -40677.361    
    148800   1771.0374      1525.4218     -42558.653     -40631.772    
    148900   1849.4851      678.06936     -42626.757     -40614.525    
    149000   1867.2293      26993.763     -42681.766     -40650.228    
    149100   1765.5382      21108.125     -42576.278     -40655.38     
    149200   1776.2176      61288.465     -42560.599     -40628.082    
    149300   1708.0333      26780.274     -42575.77      -40717.438    
    149400   1717.3715      12033.356     -42713.24      -40844.747    
    149500   1719.2724      22698.375     -42635.885     -40765.324    
    149600   1805.6804      35341.039     -42522.967     -40558.394    
    149700   1845.9557      10846.179     -42496.454     -40488.062    
    149800   1821.8089      25839.906     -42485.087     -40502.967    
    149900   1782.7935      30113.793     -42563.51      -40623.838    
    150000   1805.6584      44866.811     -42688.585     -40724.037    
    150100   1664.11        19553.486     -42529.423     -40718.878    
    150200   1773.2281      13059.347     -42576.584     -40647.32     
    150300   1911.5898      17507.417     -42616.453     -40536.652    
    150400   1815.6007      60299.492     -42465.744     -40490.378    
    150500   1964.0646      39321.317     -42600.964     -40464.07     
    150600   1857.4375      12479.095     -42499.917     -40479.033    
    150700   1765.0025      17700.827     -42453.535     -40533.22     
    150800   1758.1746      13973.388     -42499.835     -40586.949    
    150900   1832.5732      37902.777     -42611.593     -40617.761    
    151000   1790.3121      20423.205     -42632.599     -40684.747    
    151100   1686.5924      28694.673     -42503.388     -40668.383    
    151200   1988.7016      44097.341     -42632.423     -40468.724    
    151300   1809.8002      35094.402     -42346.719     -40377.664    
    151400   1827.0032      50665.814     -42457.116     -40469.344    
    151500   1789.7587      18060.643     -42530.303     -40583.054    
    151600   1757.2906      45221.63      -42526.492     -40614.567    
    151700   1803.961       43340.428     -42557.788     -40595.086    
    151800   1833.7614      35289.959     -42508.857     -40513.732    
    151900   1920.9239      14631.167     -42428.679     -40338.722    
    152000   2020.6986      88449.958     -42418.993     -40220.482    
    152100   1926.3402      19232.929     -42564.096     -40468.247    
    152200   1876.9403      39969.966     -42583.07      -40540.968    
    152300   1749.2236      40695.712     -42455.742     -40552.594    
    152400   1858.5745      15047.573     -42679.85      -40657.729    
    152500   1822.2125      30652.848     -42676.499     -40693.94     
    152600   1750.0318      39190.246     -42520.778     -40616.751    
    152700   1805.8113      73987.904     -42365.122     -40400.407    
    152800   1973.7284      24849.214     -42457.94      -40310.532    
    152900   1879.8748      26406.165     -42511.63      -40466.334    
    153000   1880.738       22593.349     -42577.464     -40531.229    
    153100   1773.3585      62632.83      -42506.746     -40577.339    
    153200   1781.0612      41175.131     -42561.464     -40623.677    
    153300   1818.0419      36889.7       -42558.95      -40580.928    
    153400   1887.3586      56994.121     -42444.753     -40391.315    
    153500   1974.0296      27132.038     -42455.965     -40308.229    
    153600   1851.6154      13811.406     -42400.249     -40385.699    
    153700   1928.8424      40062.594     -42643.604     -40545.032    
    153800   1896.5628      42322.301     -42658.132     -40594.68     
    153900   1846.5393      38202.339     -42603.838     -40594.812    
    154000   1893.1522      52388.544     -42595.754     -40536.013    
    154100   1859.4823      57919.402     -42509.188     -40486.08     
    154200   1776.306       22604.062     -42420.299     -40487.686    
    154300   1839.307       19117.202     -42503.83      -40502.672    
    154400   1860.7638      17125.007     -42574.016     -40549.513    
    154500   1908.1095      32389.783     -42677.723     -40601.708    
    154600   1787.4711      26859.446     -42555.911     -40611.15     
    154700   1797.4868      31567.095     -42450.381     -40494.723    
    154800   1944.7918      38688.273     -42499.156     -40383.231    
    154900   1965.95        38308.823     -42553.19      -40414.245    
    155000   1781.0527      19540.525     -42558.931     -40621.154    
    155100   1729.011       61778.147     -42552.156     -40671        
    155200   1905.8823      21615.745     -42648.167     -40574.575    
    155300   1865.3176      