ITEM: TIMESTEP
0
ITEM: NUMBER OF ATOMS
366
ITEM: BOX BOUNDS xy xz yz pp pp pp
-7.5839999999999996e+00 1.5901800000000000e+01 -7.5839999999999996e+00
0.0000000000000000e+00 1.4340199999999999e+01 1.7780000000000001e-01
0.0000000000000000e+00 1.7246500000000001e+01 4.3709999999999999e-01
ITEM: ATOMS id type q x y z
4 4 1.03773 2.60053 0.24391 7.73597
5 4 1.07687 1.11591 2.32672 5.69125
9 4 1.55768 0.08191 4.24535 1.61584
11 4 0.355087 -0.00214 5.01608 7.14271
27 4 0.729479 1.56171 6.798 3.00501
64 1 -0.130765 2.2661 2.69547 4.31639
69 1 -0.103701 -1.58803 5.37473 6.21751
70 1 -0.131172 1.30178 6.32814 6.97559
98 3 -0.706322 -0.18966 1.70448 4.87392
99 3 -0.732374 1.78689 1.34446 6.8237
102 3 -0.822484 -0.71731 3.50983 2.86071
103 3 -0.845432 1.05153 3.16778 0.88669
104 3 -0.776307 -0.90819 4.83704 0.45025
105 3 -0.658259 0.63399 3.63712 6.50944
124 3 -0.749101 0.96945 5.50181 2.15838
199 2 0.078855 2.2506 1.84746 3.62379
201 2 0.0638847 1.91528 3.57693 3.76709
210 2 0.0293014 -1.50768 6.77449 2.33743
214 2 0.071413 -2.37276 4.68963 6.55554
215 2 0.0786217 -1.47742 5.21084 5.13864
216 2 0.00697891 -1.9328 6.40279 6.37816
218 2 0.0272884 1.8927 6.18686 6.06832
219 2 0.0215121 1.98488 6.28053 7.8321
241 2 0.0199988 -0.01487 6.57789 4.88525
355 3 -0.678463 1.43748 0.60312 0.58841
363 2 0.0796122 -0.23383 0.97707 7.93015
19 4 1.32669 7.79633 0.29557 1.97713
23 4 1.11538 6.97447 2.41811 5.9953
29 4 0.665412 5.27645 3.98148 7.87793
42 4 1.66453 9.18132 2.37417 3.85236
76 1 -0.127255 5.50517 1.9487 5.0245
77 1 -0.132061 3.1632 6.30233 3.7593
79 1 -0.137635 3.94857 4.61021 6.77198
115 3 -0.873771 6.95058 1.37156 1.08203
118 3 -0.628771 7.48313 1.09012 6.77482
125 3 -0.727935 4.66602 2.55738 8.43656
126 3 -0.649025 6.68691 3.59871 7.10284
150 3 -0.801759 8.58476 1.03399 3.17702
151 3 -0.824223 8.14473 2.96245 4.96577
200 2 0.0130154 3.29192 2.85364 4.63388
235 2 0.101519 4.73093 1.5355 5.67792
236 2 0.083785 5.76846 1.18339 4.28756
237 2 -0.000868874 5.12578 2.81546 4.48784
238 2 0.0630178 3.89602 6.12543 2.96618
239 2 0.017172 3.09116 5.40184 4.37501
244 2 0.0786778 2.99554 4.34179 7.24277
245 2 0.0222526 3.97501 4.14916 5.78538
246 2 0.00558505 3.98142 5.69319 6.64541
277 2 0.109606 9.14506 4.767 5.87506
286 2 0.0363925 7.6738 6.43886 7.9416
287 2 0.032343 7.51681 6.76847 6.22271
288 2 0.031414 6.16561 7.11102 7.2921
303 4 1.0688 5.52841 4.76047 1.2162
304 4 0.302334 6.96379 6.47671 3.38357
305 1 -0.144968 4.58026 3.50959 2.16005
306 1 -0.106646 8.79357 6.53562 3.68659
308 1 -0.112407 6.14475 5.46245 4.69299
309 3 -0.741394 6.38408 3.88552 0.11522
310 3 -0.793216 4.34017 5.70481 0.56487
311 3 -0.603146 6.59869 5.75792 1.92421
312 2 0.0352563 5.20575 2.68311 2.50308
313 2 0.090488 3.83983 3.10766 1.45296
314 2 0.0211177 4.01428 3.92124 2.99411
316 2 0.0678035 9.20987 5.53593 3.81521
321 2 0.027776 5.58335 4.64193 4.24234
322 2 0.0118641 5.44637 6.07567 5.26493
323 2 0.0883834 6.86569 5.03653 5.38873
324 1 -0.104307 3.86566 0.19071 2.08932
325 2 0.052662 3.88519 0.82094 2.98266
326 2 0.0817632 4.35255 0.73028 1.27224
2 4 1.49286 14.2698 2.24866 3.78096
41 4 1.40028 12.9368 0.11056 1.77632
46 4 1.59025 11.8145 2.10513 5.60781
50 4 1.16248 10.4237 4.39111 1.75255
52 4 0.729939 10.6273 4.14523 7.7608
89 1 -0.159705 11.6159 5.26784 2.87443
90 1 -0.122153 9.91477 5.25134 6.48032
149 3 -0.792453 13.8035 1.04049 2.79736
153 3 -0.800325 11.7131 0.94477 1.0945
156 3 -0.874302 12.9938 2.76838 4.67615
157 3 -0.841392 10.5349 1.97087 4.63478
158 3 -0.693456 12.2226 0.62078 6.13969
165 3 -0.811659 9.43019 3.4516 2.66787
166 3 -0.799361 11.3276 3.50469 0.72949
168 3 -0.70156 9.45692 5.28966 0.79886
170 3 -0.77079 11.522 3.00944 6.93641
273 2 -0.00320005 11.4652 6.34937 2.93992
274 2 0.0463985 11.5301 4.86094 3.88896
275 2 0.00909263 10.7322 5.57892 5.82072
276 2 0.0128296 9.48967 6.14609 6.93792
344 1 -0.0937412 14.3006 1.39095 7.93132
345 2 0.0974744 14.2909 2.22136 7.21889
364 2 0.0856003 12.8152 5.06539 2.53608
3 4 1.60648 1.47993 2.43773 17.025
8 4 0.667949 1.80894 2.42791 11.6393
10 4 1.0998 -1.03019 6.82521 17.2079
65 1 -0.133305 0.05403 2.1911 11.1724
66 1 -0.107255 1.92799 3.64045 12.9916
68 1 -0.117713 -0.26598 4.80462 8.97432
81 1 -0.124362 1.69547 5.95729 14.9029
82 1 -0.143341 2.10557 6.67957 11.3451
100 3 -0.735405 0.28568 2.31307 15.9307
101 3 -0.694177 2.44177 0.96566 12.0992
106 3 -0.808804 -2.09594 6.75218 15.9696
117 3 -0.744445 2.71408 3.00101 10.3585
202 2 0.0475448 -0.05371 1.70063 10.2035
203 2 0.00519865 -0.42695 3.172 11.1172
204 2 0.0476585 -0.46276 1.59723 11.9366
206 2 0.0691035 1.56258 3.25427 13.9485
207 2 0.0109513 1.31195 4.49995 12.7159
211 2 0.0338548 -1.01862 4.04423 9.19838
212 2 0.0128343 -0.56543 5.74862 9.45563
213 2 0.0697999 0.68652 4.48627 9.42204
226 2 0.0270893 -0.75743 6.96173 12.9857
250 2 0.0992902 1.74318 5.2031 15.7003
251 2 0.087075 2.58263 5.82735 14.2803
252 2 0.0114508 0.80283 5.75328 14.3045
253 2 0.042451 2.20389 5.85144 10.6288
255 2 0.0245456 1.45966 6.34496 12.163
331 1 -0.131836 -1.24435 3.92635 14.1319
332 2 0.000800404 -0.48704 3.82665 13.3523
333 2 0.0911681 -1.08664 4.8615 14.6791
20 4 1.64788 6.80662 2.75361 17.0278
22 4 1.57531 3.90914 2.04236 9.76255
24 4 1.09731 8.16885 0.5263 13.3422
25 4 1.62985 4.21545 2.63472 15.3516
26 4 1.65888 6.43584 2.50937 11.5488
30 4 1.63766 5.47429 4.90638 13.4879
32 4 0.698284 3.77375 7.17005 11.994
45 4 1.59841 8.91776 2.33788 9.76578
54 4 1.74318 6.87554 7.2338 15.2028
80 1 -0.116255 5.46297 5.11205 9.31476
93 1 -0.112156 8.25639 6.27395 10.6668
116 3 -0.743013 3.11105 0.71223 9.23167
119 3 -0.853339 3.90018 1.47234 14.2594
120 3 -0.895659 5.45078 2.16509 16.3157
121 3 -0.887092 2.87927 2.84203 16.2666
122 3 -0.820931 5.02067 1.94245 10.9652
123 3 -0.782235 7.08559 1.34257 12.4396
127 3 -0.876562 4.66895 4.02005 14.6113
128 3 -0.879412 6.2458 3.87103 12.4676
131 3 -0.781817 4.41904 5.78225 12.62
154 3 -0.686043 8.90845 0.89222 9.02452
155 3 -0.847784 7.44108 2.82326 10.2863
160 3 -0.765282 9.24771 1.58125 13.9667
162 3 -0.879139 8.04844 2.65451 16.0182
174 3 -0.834736 6.45465 5.97822 14.2332
175 3 -0.7482 8.154 6.71562 16.0517
205 2 0.111473 2.9449 4.00773 13.1129
247 2 0.00598707 5.65619 6.14071 9.01159
248 2 0.101639 6.26439 4.81015 9.98836
249 2 0.0509305 4.5121 5.09121 9.86889
283 2 0.0990259 7.46188 5.7799 11.2379
284 2 0.0656145 8.85763 5.48571 10.1944
285 2 0.00775422 7.79483 6.87813 9.88067
7 4 1.08854 14.3304 2.49405 15.281
12 4 1.45101 12.2449 6.97107 15.1326
43 4 1.68932 11.8243 2.55875 17.2133
47 4 1.30851 12.6325 0.60729 13.5521
48 4 1.74335 9.42431 2.63919 15.1753
49 4 1.14717 11.2422 2.73683 11.6915
51 4 1.19409 9.44339 6.9799 17.0193
53 4 1.60991 10.4497 5.09114 13.539
88 1 -0.158208 12.5166 2.63544 10.3857
91 1 -0.147497 11.6333 5.1804 8.92501
152 3 -0.789577 13.2676 2.71095 16.4992
159 3 -0.733273 13.8982 1.13457 14.444
161 3 -0.866001 10.6672 2.21063 16.1273
163 3 -0.771019 9.84158 2.14595 11.093
164 3 -0.776185 11.8452 1.89441 12.951
167 3 -0.732344 10.8072 7.15923 16.1274
169 3 -0.743485 9.46984 3.42715 8.69548
171 3 -0.827582 9.64801 4.12951 14.5675
172 3 -0.840821 10.9195 4.26473 12.2098
173 3 -0.831669 11.8173 5.62621 14.2472
177 3 -0.707641 9.51308 6.36768 13.1628
270 2 0.0707664 12.1076 2.64683 9.37368
271 2 0.0434527 13.0095 1.66755 10.5308
272 2 0.00863124 13.26 3.42936 10.4838
278 2 0.00373859 11.2395 6.19709 8.8276
279 2 0.0219442 12.7009 5.22191 8.69575
280 2 0.0550357 11.5083 4.8896 9.9707
282 2 0.0333477 11.5552 7.02758 10.908
346 2 0.0313471 14.0872 1.80407 8.91466
359 2 0.101551 13.3218 3.99557 13.6537
1 4 0.901028 -5.41517 13.0871 1.67325
13 4 1.04357 -6.18415 11.7247 4.17856
14 4 0.730853 -2.18698 9.72973 7.66869
15 4 1.53436 -3.444 12.0437 5.93577
67 1 -0.156353 -1.83219 7.2944 1.4319
71 1 -0.139324 -2.90612 8.11671 8.15954
84 1 -0.168473 -1.57542 10.1279 3.38646
107 3 -0.626523 -6.29148 12.9137 3.04904
108 3 -0.683861 -5.38499 11.5752 1.04391
109 3 -0.826739 -4.79928 11.932 5.04473
110 3 -0.777735 -3.24219 10.6995 6.84009
111 3 -0.700708 -3.60732 13.3197 6.92508
135 3 -0.807446 -2.14489 12.3336 5.00658
208 2 0.0156965 -2.92252 7.33331 1.44774
209 2 0.0371756 -1.44607 8.31457 1.45703
221 2 0.0205836 -2.07137 7.51432 8.5493
222 2 0.00870602 -3.35429 7.57903 7.31871
223 2 0.00553809 -1.13486 8.54332 5.87356
260 2 0.0127989 -2.32121 10.3001 2.59956
261 2 0.0130036 -2.04992 9.53524 4.17697
327 1 -0.100763 -6.08956 12.2687 7.96975
328 2 0.0409873 -5.56149 11.4258 8.42012
337 1 -0.134089 -3.61569 9.47163 0.29138
338 2 0.0260275 -3.76164 9.29129 1.36214
339 2 0.00146718 -2.54404 9.60783 0.11652
358 2 0.0622891 -3.10337 12.7772 2.30532
360 2 0.0369165 -5.11615 9.83163 3.06361
21 4 1.41916 0.58895 13.5577 7.82375
33 4 1.56009 3.11982 9.2184 1.8726
34 4 1.14332 -0.99065 11.7575 4.00904
35 4 1.15698 1.50704 11.4767 0.32159
36 4 0.711002 2.92113 9.61037 7.58048
38 4 1.64258 1.81488 11.7041 5.66203
56 4 1.66877 4.20629 11.369 3.78858
72 1 -0.1291 -0.78512 9.30367 6.58066
78 1 -0.126078 0.30355 7.3689 4.20798
85 1 -0.151979 -0.0977 10.5984 0.21815
87 1 -0.118941 4.00911 8.29316 6.9001
132 3 -0.738661 1.89515 8.15973 2.10779
133 3 -0.870971 4.32142 8.40457 1.09322
134 3 -0.700158 -0.83767 12.7507 2.71406
136 3 -0.787665 2.57639 10.5024 1.06359
137 3 -0.641691 1.26804 12.9129 1.08249
139 3 -0.824446 -0.53943 12.6276 8.54498
141 3 -0.810042 0.4319 11.6932 4.80404
142 3 -0.774519 2.1259 10.2253 6.26369
143 3 -0.801903 1.67506 12.6966 6.95602
178 3 -0.874356 3.70359 9.8957 3.25144
179 3 -0.697571 4.66596 12.328 2.56169
180 3 -0.810742 3.01105 12.0983 4.63024
182 3 -0.748011 3.87932 10.7551 8.26409
217 2 0.0167086 0.86129 7.32521 6.9332
224 2 0.0333987 -0.003 8.85056 7.19248
225 2 0.0986246 -0.33311 10.1153 6.01855
240 2 0.0266282 3.54608 7.11887 4.3824
242 2 0.0360541 -0.58473 7.75898 3.70854
243 2 0.0573308 0.74589 8.1823 4.79619
259 2 0.0438154 -0.75369 9.54386 2.96263
262 2 0.0355788 -0.54445 10.6065 1.21653
267 2 0.00245119 4.36834 7.63138 7.69608
268 2 0.109568 4.86985 8.73673 6.38514
269 2 0.0260589 3.44062 7.69048 6.18715
320 2 0.100918 5.24556 8.24129 3.55705
44 4 1.05443 5.48979 13.5765 7.45265
58 4 0.327084 7.90179 8.86418 7.39759
60 4 1.59469 6.71022 11.2688 5.779
94 1 -0.117926 7.25326 7.14116 7.21447
95 1 -0.120135 9.7126 8.80507 7.00282
185 3 -0.737259 8.02211 11.9462 5.09016
186 3 -0.878708 5.49482 11.1131 4.72551
187 3 -0.736336 7.07757 9.78002 6.28344
188 3 -0.803163 6.24909 12.1895 7.03406
289 2 0.0320131 9.93883 8.2673 6.07274
290 2 0.00730603 10.1832 8.23577 7.8141
307 1 -0.078177 6.33369 8.2011 3.49801
315 2 0.024343 9.3448 7.06583 2.90955
317 2 0.0149995 8.95527 7.07438 4.62899
318 2 0.0600522 6.64519 8.84679 2.67558
319 2 0.0832312 6.72307 8.62599 4.43132
329 2 0.0964468 9.22284 11.9672 7.00669
330 2 0.0278533 8.79798 12.528 8.62178
334 1 -0.145502 9.46123 10.0003 3.5486
335 2 0.0321964 8.67025 9.7558 2.83716
336 2 0.0266537 9.37829 9.31563 4.39928
347 1 -0.14981 9.0345 8.09643 0.69591
349 2 0.0143555 9.86059 8.2825 1.38763
350 2 0.0353726 8.10483 8.06695 1.26794
351 1 -0.111587 6.82942 10.3244 0.78682
352 2 0.0548564 7.85043 10.4483 1.1591
353 2 0.086012 6.71462 9.35133 0.30359
354 2 0.0897305 6.13205 10.3688 1.62912
357 3 -0.653642 6.3388 13.0605 0.58115
366 2 0.0850041 10.3848 9.77882 6.9616
6 4 1.28031 -4.51327 14.2253 13.4506
16 4 0.704893 -2.06863 9.03339 13.4004
18 4 1.10433 -3.17429 11.5959 11.7851
37 4 1.61248 -0.99481 11.6757 9.78908
73 1 -0.11419 -1.1107 7.80965 12.3828
74 1 -0.0900053 -1.19963 9.91796 14.744
75 1 -0.118016 -4.67307 11.2329 10.8123
112 3 -0.719032 -3.34793 8.2572 14.1407
113 3 -0.693153 -2.60515 10.1871 12.3619
114 3 -0.635192 -3.47465 12.6006 13.0552
138 3 -0.77315 -1.7042 10.389 9.09961
140 3 -0.744562 -2.05748 12.3475 10.8236
220 2 0.0434908 -3.63135 8.20338 8.96647
228 2 0.0458146 -1.73517 7.41293 11.5699
229 2 0.0354319 -1.90436 10.6559 15.1445
232 2 0.072559 -5.40402 10.6841 11.4163
233 2 0.0463984 -4.38734 10.6132 9.95342
234 2 0.0712602 -5.1085 12.167 10.4529
297 4 0.64822 -4.3526 11.413 17.0154
298 1 -0.115512 -3.19915 12.7173 16.4255
299 3 -0.654619 -5.46791 11.0246 15.8717
300 2 0.0760649 -2.8145 12.51 15.4235
301 2 0.0197633 -2.34568 12.8246 17.1055
302 2 0.088344 -3.71071 13.6816 16.393
343 2 0.082033 -1.19071 12.5815 14.1263
356 3 -0.685109 -5.75044 13.1795 14.3381
361 2 0.0826787 -3.76966 9.02099 16.9944
365 2 0.125273 -4.1939 8.58634 11.7571
28 4 1.66235 4.43131 7.65025 17.2031
31 4 1.13392 1.62482 7.60657 15.6716
39 4 1.5952 2.7106 9.53446 13.6771
40 4 1.6654 1.63444 11.62 11.4909
59 4 1.6253 4.07732 11.8391 9.45001
62 4 1.68187 3.79152 11.9538 15.3584
83 1 -0.107114 4.87894 7.97369 10.7487
86 1 -0.124932 1.74704 9.08604 8.91394
129 3 -0.795499 2.98995 7.86748 16.5132
130 3 -0.738671 0.31138 7.61031 16.661
144 3 -0.818782 1.52946 8.88217 14.6191
145 3 -0.727526 3.63558 8.28526 13.2077
146 3 -0.892053 0.27695 11.2062 10.6923
147 3 -0.89336 2.05108 10.3137 12.3921
148 3 -0.699702 1.40958 12.9169 12.425
183 3 -0.75499 4.49701 13.246 8.73044
184 3 -0.854662 2.74935 11.9924 10.371
192 3 -0.828295 3.63357 10.5755 14.5097
193 3 -0.78605 5.10522 11.8224 16.2908
194 3 -0.684171 3.96928 13.2472 14.4146
195 3 -0.796819 2.39696 12.2465 16.1421
196 3 -0.819697 5.26069 11.3212 10.4357
198 3 -0.660133 5.56879 13.0622 12.3985
227 2 0.0674133 -0.24108 8.30671 11.9335
230 2 0.0831395 -0.3044 10.4355 14.3976
231 2 0.0861641 -0.90884 9.24196 15.5483
254 2 0.0223849 1.59509 7.5087 10.8484
256 2 -0.000188749 4.61922 7.69744 9.72326
258 2 0.125657 4.79151 9.06201 10.847
263 2 0.0921429 0.22464 9.99504 17.157
264 2 0.00630001 1.33285 8.08339 8.78949
265 2 0.101255 0.91761 9.78912 9.01928
266 2 0.0484033 2.29987 9.10607 9.86149
340 1 -0.0989449 -0.37468 13.1193 14.6201
341 2 0.0640767 -0.82083 13.8241 15.3288
342 2 0.0683599 0.2594 12.4108 15.1545
362 2 -0.00114406 -0.62178 11.5187 16.7812
17 4 1.45597 9.04498 11.847 14.928
55 4 0.715398 9.26509 7.3 11.813
57 4 1.18478 6.58816 12.1277 16.9124
61 4 1.61414 7.67236 9.61987 13.2319
63 4 1.11857 6.24522 11.7692 11.6596
92 1 -0.114131 10.8664 7.85598 11.1063
96 1 -0.102398 7.59942 9.60341 9.06621
97 1 -0.147823 7.8501 12.3658 11.0303
176 3 -0.866312 5.66522 7.75558 16.1622
181 3 -0.755529 7.70075 12.3131 15.7173
189 3 -0.856556 7.22346 8.61022 14.4094
190 3 -0.77299 8.43585 8.69251 12.1415
191 3 -0.849692 8.68306 10.7978 13.7365
197 3 -0.758499 6.38823 10.4192 12.6005
257 2 0.0593556 5.9288 7.70998 10.9236
281 2 0.00862438 10.6362 8.36634 10.1625
291 2 0.0738646 7.4282 10.6764 8.93826
292 2 0.0310018 8.44221 9.46573 9.75353
293 2 0.069902 6.70287 9.1932 9.54109
294 2 0.020884 7.65062 13.1147 10.2549
295 2 0.0169259 8.43362 11.5589 10.5917
296 2 0.085718 8.44618 12.8464 11.8125
348 2 0.0807874 9.16731 9.36817 17.2359
ITEM: TIMESTEP
1
ITEM: NUMBER OF ATOMS
366
ITEM: BOX BOUNDS xy xz yz pp pp pp
-7.5839999999999996e+00 1.5901800000000000e+01 -7.5839999999999996e+00
0.0000000000000000e+00 1.4340199999999999e+01 1.7780000000000001e-01
0.0000000000000000e+00 1.7246500000000001e+01 4.3709999999999999e-01
ITEM: ATOMS id type q x y z
4 4 1.05178 2.6114 0.223438 7.72579
5 4 1.08237 1.10047 2.31628 5.7088
9 4 1.54761 0.094408 4.2203 1.63903
11 4 0.36337 0.00579412 5.0026 7.13508
27 4 0.745642 1.56743 6.81074 2.98734
64 1 -0.127162 2.28622 2.70252 4.28948
69 1 -0.103763 -1.61 5.38002 6.20675
70 1 -0.132505 1.31586 6.3442 6.97485
98 3 -0.715389 -0.191024 1.70731 4.87743
99 3 -0.736659 1.79114 1.33733 6.827
102 3 -0.842073 -0.722001 3.50833 2.86405
103 3 -0.852725 1.05365 3.16317 0.883311
104 3 -0.757128 -0.908582 4.84046 0.450825
105 3 -0.665052 0.632841 3.64466 6.51206
124 3 -0.74562 0.973264 5.50975 2.16498
199 2 0.0760798 2.24712 1.84849 3.62889
201 2 0.0616411 1.91282 3.57418 3.77251
210 2 0.0333143 -1.50647 6.77301 2.33072
214 2 0.0718238 -2.36587 4.69023 6.55791
215 2 0.0795567 -1.47193 5.20971 5.14467
216 2 0.00734919 -1.92577 6.39813 6.3806
218 2 0.0274761 1.88604 6.18222 6.0706
219 2 0.0215596 1.97852 6.2769 7.83045
241 2 0.0202103 -0.00964221 6.57683 4.87957
355 3 -0.693715 1.44161 0.595993 0.589317
363 2 0.0786071 -0.266655 0.980611 7.92899
19 4 1.34346 7.79703 0.279464 1.98178
23 4 1.11798 7.0051 2.40912 6.02193
29 4 0.682622 5.26925 3.96984 7.89304
42 4 1.67783 9.20185 2.36415 3.82458
76 1 -0.118352 5.46368 1.93358 4.99572
77 1 -0.131562 3.17998 6.29951 3.769
79 1 -0.135849 3.92196 4.62295 6.75256
115 3 -0.88211 6.95135 1.36891 1.08276
118 3 -0.656135 7.48858 1.06919 6.78409
125 3 -0.763572 4.67152 2.56644 8.42559
126 3 -0.659532 6.68168 3.60682 7.10251
150 3 -0.814847 8.58053 1.03302 3.17483
151 3 -0.813187 8.14639 2.96309 4.95922
200 2 0.0142398 3.28518 2.85183 4.6389
235 2 0.102043 4.73575 1.53737 5.68028
236 2 0.0846905 5.77262 1.18533 4.29193
237 2 0.00156456 5.13094 2.81437 4.49269
238 2 0.0660354 3.88951 6.12724 2.96528
239 2 0.0174887 3.08485 5.406 4.37051
244 2 0.0779078 3.00102 4.3406 7.24384
245 2 0.0234701 3.98021 4.14839 5.7921
246 2 0.00585045 3.98651 5.6883 6.65011
277 2 0.107238 9.148 4.76207 5.88075
286 2 0.0357402 7.67462 6.44697 7.94071
287 2 0.0320004 7.51794 6.77561 6.22597
288 2 0.0319867 6.17129 7.11696 7.29289
303 4 1.06098 5.53697 4.78298 1.25356
304 4 0.318008 6.95161 6.46205 3.36431
305 1 -0.139388 4.56598 3.49248 2.17134
306 1 -0.107867 8.81321 6.53871 3.69632
308 1 -0.113692 6.13489 5.45383 4.70698
309 3 -0.705746 6.3785 3.88386 0.120248
310 3 -0.790874 4.34405 5.70981 0.565845
311 3 -0.618382 6.59943 5.76257 1.93557
312 2 0.0384752 5.20881 2.68919 2.49928
313 2 0.0932534 3.84415 3.11137 1.45322
314 2 0.0197129 4.01965 3.92531 2.98948
316 2 0.0693587 9.20241 5.53676 3.81209
321 2 0.0273905 5.58852 4.64794 4.23897
322 2 0.0123559 5.45096 6.07795 5.25935
323 2 0.0890455 6.8682 5.03935 5.38346
324 1 -0.101338 3.90956 0.164975 2.10051
325 2 0.0523457 3.87693 0.813718 2.98082
326 2 0.0816999 4.34413 0.725092 1.26955
2 4 1.49037 14.2968 2.25195 3.75894
41 4 1.41468 12.9479 0.0617156 1.79669
46 4 1.57599 11.7892 2.10081 5.62502
50 4 1.19486 10.4115 4.37055 1.74181
52 4 0.75678 10.6177 4.11929 7.76519
89 1 -0.152015 11.6642 5.27978 2.88998
90 1 -0.125219 9.91133 5.26633 6.46861
149 3 -0.791812 13.7993 1.03563 2.79204
153 3 -0.77314 11.721 0.940307 1.09769
156 3 -0.840597 12.996 2.76832 4.67784
157 3 -0.854761 10.5314 1.97517 4.63199
158 3 -0.701787 12.231 0.608806 6.14943
165 3 -0.835719 9.43553 3.45403 2.67024
166 3 -0.814635 11.3258 3.50973 0.734382
168 3 -0.722719 9.46181 5.29617 0.804486
170 3 -0.786316 11.5218 3.01764 6.94304
273 2 -0.00205561 11.46 6.34361 2.93435
274 2 0.0463896 11.5253 4.85887 3.88189
275 2 0.00985976 10.7308 5.57447 5.82645
276 2 0.0124163 9.49264 6.14018 6.94139
344 1 -0.0939886 14.3487 1.39024 7.93769
345 2 0.0961331 14.2815 2.21254 7.21573
364 2 0.0869541 12.7812 5.0667 2.53867
3 4 1.61083 1.47901 2.43317 17.0251
8 4 0.641365 1.78499 2.42063 11.6685
10 4 1.11995 -1.03471 6.83293 17.1659
65 1 -0.130006 -0.00112604 2.18611 11.1593
66 1 -0.102679 1.92778 3.68135 13.0318
68 1 -0.117859 -0.267165 4.80396 8.9976
81 1 -0.11948 1.69692 5.91073 14.8836
82 1 -0.143237 2.08426 6.67413 11.3352
100 3 -0.74345 0.278342 2.31603 15.9283
101 3 -0.680749 2.43997 0.957516 12.1088
106 3 -0.825645 -2.09975 6.75532 15.969
117 3 -0.694195 2.70824 3.01077 10.3568
202 2 0.0501807 -0.0466788 1.70156 10.2071
203 2 0.00606693 -0.420923 3.16989 11.1189
204 2 0.0476825 -0.456432 1.59882 11.9356
206 2 0.0687954 1.56413 3.24966 13.9432
207 2 0.011063 1.3132 4.49374 12.7129
211 2 0.0341763 -1.01586 4.04745 9.19023
212 2 0.0139299 -0.563863 5.74581 9.4474
213 2 0.070266 0.683836 4.48752 9.41501
226 2 0.0285104 -0.762202 6.96896 12.9875
250 2 0.0963076 1.74296 5.20912 15.7005
251 2 0.086426 2.58211 5.83398 14.2832
252 2 0.0127952 0.805002 5.76007 14.3084
253 2 0.0424127 2.20904 5.85605 10.6332
255 2 0.0255793 1.46716 6.34848 12.1623
331 1 -0.125864 -1.27862 3.94927 14.1107
332 2 0.000300493 -0.490735 3.82083 13.3574
333 2 0.0900919 -1.08587 4.85456 14.6824
20 4 1.66058 6.83518 2.70155 17.0076
22 4 1.54958 3.96994 2.0298 9.71606
24 4 1.1233 8.18434 0.52074 13.327
25 4 1.61702 4.21286 2.63109 15.3515
26 4 1.66552 6.39516 2.51196 11.5773
30 4 1.63194 5.47586 4.90878 13.4859
32 4 0.714089 3.77991 7.16733 12.0124
45 4 1.59818 8.92462 2.32775 9.69472
54 4 1.77 6.85858 7.24014 15.2072
80 1 -0.117717 5.46404 5.1349 9.34235
93 1 -0.109821 8.24622 6.26132 10.653
116 3 -0.733532 3.10264 0.700792 9.21947
119 3 -0.8491 3.8953 1.46462 14.2574
120 3 -0.89798 5.45521 2.16687 16.3191
121 3 -0.885195 2.87498 2.83953 16.2679
122 3 -0.837288 5.03096 1.945 10.9725
123 3 -0.781728 7.09 1.33615 12.4462
127 3 -0.872591 4.66751 4.02123 14.6073
128 3 -0.890697 6.24451 3.86794 12.4638
131 3 -0.787329 4.41743 5.7866 12.615
154 3 -0.720299 8.90083 0.882053 9.01707
155 3 -0.812654 7.44302 2.82053 10.2907
160 3 -0.780474 9.23896 1.57144 13.9678
162 3 -0.914043 8.04627 2.65042 16.0181
174 3 -0.8418 6.45314 5.98307 14.2335
175 3 -0.758993 8.153 6.72168 16.0536
205 2 0.112345 2.94536 4.00226 13.1092
247 2 0.00629712 5.65536 6.13421 9.00703
248 2 0.100361 6.26258 4.80523 9.98221
249 2 0.0498554 4.51558 5.08836 9.86397
283 2 0.0996353 7.46712 5.78435 11.2408
284 2 0.0681064 8.85967 5.49128 10.199
285 2 0.00838751 7.80002 6.88069 9.88661
7 4 1.10792 14.3374 2.47247 15.2897
12 4 1.46285 12.2276 6.95642 15.1428
43 4 1.67767 11.8127 2.57622 17.1969
47 4 1.33904 12.6306 0.590126 13.5544
48 4 1.74876 9.40893 2.62337 15.1744
49 4 1.15447 11.2599 2.73451 11.7426
51 4 1.21732 9.45202 6.95506 17.0022
53 4 1.59983 10.4466 5.11242 13.5291
88 1 -0.152636 12.5465 2.63126 10.3592
91 1 -0.146364 11.6436 5.19809 8.93546
152 3 -0.788599 13.2725 2.71321 16.4932
159 3 -0.746451 13.8946 1.13841 14.44
161 3 -0.871972 10.6669 2.21169 16.1263
163 3 -0.737397 9.84231 2.14887 11.0859
164 3 -0.79708 11.8515 1.88862 12.9515
167 3 -0.756841 10.8142 7.16219 16.1293
169 3 -0.779626 9.47441 3.43058 8.6951
171 3 -0.813247 9.64985 4.12747 14.5666
172 3 -0.839909 10.9214 4.26729 12.2057
173 3 -0.837473 11.8219 5.63116 14.248
177 3 -0.730408 9.51378 6.3739 13.1532
270 2 0.0700277 12.1031 2.64753 9.37892
271 2 0.0427801 13.0054 1.67013 10.5337
272 2 0.00923669 13.2537 3.42882 10.488
278 2 0.00414986 11.2381 6.19069 8.82498
279 2 0.0219365 12.6953 5.21652 8.69186
280 2 0.0573502 11.5053 4.88552 9.96481
282 2 0.0330093 11.5455 7.02636 10.911
346 2 0.0312656 14.0809 1.79518 8.91043
359 2 0.10016 13.3508 3.99078 13.6644
1 4 0.916295 -5.44105 13.1177 1.66507
13 4 1.05954 -6.19601 11.7409 4.20458
14 4 0.743939 -2.19043 9.74655 7.6728
15 4 1.51666 -3.44901 12.0481 5.94551
67 1 -0.150169 -1.84871 7.31522 1.46615
71 1 -0.13809 -2.91002 8.09483 8.16376
84 1 -0.163624 -1.58404 10.1037 3.37652
107 3 -0.637444 -6.2873 12.9128 3.04468
108 3 -0.68278 -5.37854 11.5781 1.04493
109 3 -0.828182 -4.80253 11.9298 5.04147
110 3 -0.779247 -3.24075 10.6914 6.84311
111 3 -0.712326 -3.62092 13.3355 6.9324
135 3 -0.803068 -2.14163 12.3319 5.00164
208 2 0.016769 -2.91865 7.33012 1.44249
209 2 0.0379589 -1.44449 8.30907 1.45204
221 2 0.0214358 -2.07307 7.52016 8.54639
222 2 0.00978343 -3.35209 7.58642 7.31862
223 2 0.0065562 -1.13788 8.54736 5.87828
260 2 0.0149679 -2.31726 10.3042 2.60444
261 2 0.0158666 -2.04739 9.54242 4.17698
327 1 -0.102446 -6.1069 12.2657 7.9743
328 2 0.0403996 -5.55527 11.4351 8.41684
337 1 -0.134111 -3.59328 9.43921 0.30525
338 2 0.027223 -3.76462 9.29666 1.35719
339 2 0.00186005 -2.55025 9.6117 0.114892
358 2 0.0651097 -3.11653 12.8098 2.30157
360 2 0.0403517 -5.14607 9.83893 3.07419
21 4 1.4503 0.591681 13.5831 7.82248
33 4 1.57473 3.07847 9.29047 1.94872
34 4 1.15387 -0.980379 11.7814 4.00373
35 4 1.16311 1.52011 11.4892 0.353406
36 4 0.728546 2.92326 9.63267 7.57314
38 4 1.62864 1.80603 11.7094 5.67679
56 4 1.67118 4.20777 11.3611 3.76687
72 1 -0.129196 -0.771295 9.29094 6.57254
78 1 -0.127989 0.294158 7.37503 4.2221
85 1 -0.147418 -0.1325 10.5796 0.216246
87 1 -0.119392 4.02064 8.27496 6.89462
132 3 -0.743464 1.89582 8.15645 2.1121
133 3 -0.783537 4.31708 8.399 1.09107
134 3 -0.715422 -0.83073 12.7638 2.71126
136 3 -0.815586 2.57468 10.4993 1.06418
137 3 -0.663174 1.25769 12.9231 1.08733
139 3 -0.843236 -0.53042 12.6362 8.5383
141 3 -0.816399 0.428838 11.6871 4.80349
142 3 -0.777917 2.12446 10.2208 6.26985
143 3 -0.812455 1.66683 12.7017 6.95977
178 3 -0.927628 3.70266 9.89619 3.24828
179 3 -0.721483 4.67316 12.3458 2.55891
180 3 -0.798607 3.01514 12.0946 4.62899
182 3 -0.750526 3.87589 10.747 8.26093
217 2 0.0169793 0.858149 7.31776 6.93396
224 2 0.0328656 -0.00860267 8.85419 7.19396
225 2 0.0987732 -0.33833 10.1197 6.02222
240 2 0.0264158 3.53959 7.1176 4.37756
242 2 0.0359057 -0.578598 7.75547 3.70634
243 2 0.0552158 0.748398 8.17863 4.79113
259 2 0.0416846 -0.752844 9.55131 2.96635
262 2 0.0329863 -0.539089 10.6092 1.2136
267 2 0.00301764 4.3632 7.63818 7.69577
268 2 0.109435 4.86498 8.74027 6.38827
269 2 0.0264034 3.43935 7.69711 6.19112
320 2 0.102124 5.24868 8.23547 3.55543
44 4 1.05947 5.48862 13.6036 7.4279
58 4 0.331783 7.8971 8.87378 7.3876
60 4 1.57305 6.70877 11.2746 5.77988
94 1 -0.118216 7.24744 7.11979 7.2126
95 1 -0.119215 9.75362 8.81359 7.00166
185 3 -0.748091 8.02889 11.9442 5.09074
186 3 -0.869836 5.49182 11.1125 4.72138
187 3 -0.731284 7.08457 9.77104 6.2877
188 3 -0.793731 6.25125 12.201 7.0386
289 2 0.0322963 9.92909 8.26996 6.07758
290 2 0.00715603 10.1735 8.23761 7.81198
307 1 -0.077569 6.32857 8.21856 3.50313
315 2 0.0259517 9.3371 7.06315 2.90929
317 2 0.0148017 8.94972 7.07232 4.62375
318 2 0.0589933 6.64658 8.83782 2.677
319 2 0.0824868 6.72392 8.62162 4.42913
329 2 0.0943456 9.22854 11.9736 7.0052
330 2 0.0299656 8.80448 12.5331 8.61868
334 1 -0.14092 9.49311 9.95986 3.5298
335 2 0.0321593 8.67321 9.76456 2.84039
336 2 0.0263529 9.37667 9.32347 4.39806
347 1 -0.143337 9.02926 8.12922 0.715162
349 2 0.015442 9.85991 8.27732 1.38287
350 2 0.0368192 8.10719 8.06147 1.26405
351 1 -0.106615 6.83642 10.3013 0.808119
352 2 0.0551198 7.8477 10.4522 1.15473
353 2 0.0880113 6.71326 9.35623 0.299787
354 2 0.0875759 6.13195 10.3725 1.62516
357 3 -0.674292 6.33207 13.066 0.586539
366 2 0.0832318 10.3612 9.76413 6.96286
6 4 1.29831 -4.50539 14.1891 13.4572
16 4 0.720534 -2.08301 9.04405 13.3951
18 4 1.10968 -3.18211 11.6118 11.85
37 4 1.58997 -0.951259 11.6791 9.74958
73 1 -0.11224 -1.09234 7.78914 12.3659
74 1 -0.0911516 -1.18753 9.93179 14.763
75 1 -0.111466 -4.71762 11.2214 10.7828
112 3 -0.719069 -3.342 8.2592 14.1366
113 3 -0.702838 -2.60334 10.1783 12.3637
114 3 -0.673143 -3.48783 12.6228 13.0584
138 3 -0.768613 -1.70576 10.3822 9.09204
140 3 -0.706535 -2.06065 12.3493 10.824
220 2 0.0442478 -3.62782 8.20997 8.96236
228 2 0.0466851 -1.73606 7.41806 11.5759
229 2 0.0330647 -1.90413 10.651 15.1401
232 2 0.0709209 -5.39891 10.6867 11.4182
233 2 0.0507662 -4.38437 10.6158 9.95798
234 2 0.0721712 -5.10412 12.1673 10.4564
297 4 0.656324 -4.37699 11.4069 17.0054
298 1 -0.113607 -3.17037 12.7469 16.412
299 3 -0.671251 -5.47752 11.0283 15.8677
300 2 0.0738425 -2.82085 12.5061 15.4269
301 2 0.0197939 -2.35183 12.82 17.1056
302 2 0.086081 -3.71391 13.6764 16.3942
343 2 0.080356 -1.18383 12.5868 14.1204
356 3 -0.699076 -5.74963 13.1833 14.3348
361 2 0.0818896 -3.77259 9.02706 16.9925
365 2 0.121743 -4.21461 8.57247 11.7506
28 4 1.6985 4.4499 7.6186 17.1031
31 4 1.15657 1.62162 7.60946 15.7291
39 4 1.58544 2.72844 9.57149 13.6441
40 4 1.67305 1.63607 11.6205 11.4907
59 4 1.61475 4.06227 11.8255 9.46826
62 4 1.67561 3.81098 11.9537 15.3347
83 1 -0.108535 4.89202 7.98189 10.7333
86 1 -0.124044 1.73422 9.07835 8.9338
129 3 -0.82384 2.99737 7.86407 16.5151
130 3 -0.765794 0.309131 7.6107 16.6616
144 3 -0.785752 1.52659 8.87912 14.616
145 3 -0.730719 3.63556 8.27527 13.2
146 3 -0.892604 0.284699 11.2067 10.6965
147 3 -0.913452 2.04932 10.3188 12.3868
148 3 -0.707382 1.39936 12.9347 12.4321
183 3 -0.736889 4.50573 13.251 8.72508
184 3 -0.872178 2.74488 11.9888 10.3737
192 3 -0.844329 3.63303 10.5797 14.5132
193 3 -0.794041 5.10837 11.8225 16.2942
194 3 -0.702439 3.97899 13.2608 14.4081
195 3 -0.775806 2.39275 12.243 16.1395
196 3 -0.838991 5.26523 11.3205 10.432
198 3 -0.690242 5.56814 13.0774 12.4051
227 2 0.0694435 -0.246743 8.30927 11.9383
230 2 0.0830077 -0.307523 10.4314 14.3926
231 2 0.0858758 -0.911416 9.23835 15.543
254 2 0.0230662 1.60237 7.50791 10.8522
256 2 0.000412207 4.61513 7.69584 9.73049
258 2 0.121993 4.78835 9.05815 10.8505
263 2 0.0937786 0.229975 9.99918 17.1577
264 2 0.00728009 1.33801 8.08742 8.7845
265 2 0.097455 0.922268 9.79007 9.01401
266 2 0.0477799 2.30165 9.10785 9.85456
340 1 -0.0995489 -0.390927 13.1193 14.6387
341 2 0.0616079 -0.816204 13.8244 15.3249
342 2 0.0689867 0.264808 12.4173 15.1474
362 2 0.000415326 -0.614566 11.5204 16.7832
17 4 1.46495 9.05946 11.8482 14.9201
55 4 0.735916 9.26631 7.29939 11.8395
57 4 1.20335 6.57731 12.1547 16.9005
61 4 1.62479 7.70336 9.57926 13.2671
63 4 1.13492 6.18886 11.8015 11.6464
92 1 -0.113168 10.8978 7.87148 11.1039
96 1 -0.0995355 7.59603 9.61177 9.08562
97 1 -0.137625 7.88514 12.3819 11.0136
176 3 -0.931508 5.66414 7.75214 16.1649
181 3 -0.759404 7.70262 12.3081 15.7204
189 3 -0.88755 7.22497 8.6072 14.4116
190 3 -0.786819 8.43625 8.68889 12.1364
191 3 -0.855343 8.68119 10.7987 13.7369
197 3 -0.728671 6.39486 10.4187 12.5995
257 2 0.0592498 5.92194 7.7076 10.928
281 2 0.00891286 10.6318 8.36261 10.1685
291 2 0.0761737 7.42897 10.6714 8.93326
292 2 0.0326061 8.44134 9.46269 9.74582
293 2 0.0721188 6.70657 9.19155 9.53374
294 2 0.0210656 7.64706 13.1114 10.2587
295 2 0.0216983 8.42808 11.5577 10.5953
296 2 0.0875516 8.44063 12.8433 11.8139
348 2 0.08069 9.16856 9.36282 17.2342
ITEM: TIMESTEP
2
ITEM: NUMBER OF ATOMS
366
ITEM: BOX BOUNDS xy xz yz pp pp pp
-7.5839999999999996e+00 1.5901800000000000e+01 -7.5839999999999996e+00
0.0000000000000000e+00 1.4340199999999999e+01 1.7780000000000001e-01
0.0000000000000000e+00 1.7246500000000001e+01 4.3709999999999999e-01
ITEM: ATOMS id type q x y z
4 4 1.0911 2.64242 0.237089 7.74945
5 4 1.09227 1.0851 2.30855 5.72426
9 4 1.54191 0.0993798 4.21181 1.65527
11 4 0.370063 0.012959 4.99055 7.12778
27 4 0.760201 1.56708 6.81267 2.97391
64 1 -0.123838 2.30066 2.7073 4.26924