LAMMPS (2 Aug 2023 - Update 2)
OMP_NUM_THREADS environment is not set. Defaulting to 1 thread. (src/comm.cpp:98)
  using 1 OpenMP thread(s) per MPI task
Reading data file ...
  triclinic box = (0 0 0) to (15.724 13.9031 17.2465) with tilt (-7.584 0.1778 0.4371)
WARNING: Triclinic box skew is large. LAMMPS will run inefficiently. (src/domain.cpp:220)
  2 by 2 by 2 MPI processor grid
  reading atoms ...
  366 atoms
Finding 1-2 1-3 1-4 neighbors ...
  special bond factors lj:    0        0        0       
  special bond factors coul:  0        0        0       
     0 = max # of 1-2 neighbors
     0 = max # of 1-3 neighbors
     0 = max # of 1-4 neighbors
     1 = max # of special neighbors
  special bonds CPU = 0.001 seconds
  read_data CPU = 0.006 seconds
*****Minimization starts.*****
Setting up cg style minimization ...
  Unit style    : real
  Current step  : 0
WARNING: No pairwise cutoff or binsize set. Atom sorting therefore disabled. (src/atom.cpp:2366)
WARNING: Communication cutoff is 0.0. No ghost atoms will be generated. Atoms may get lost. (src/comm_brick.cpp:210)
Per MPI rank memory allocation (min/avg/max) = 6.365 | 6.365 | 6.365 Mbytes
   Step          Temp          E_pair         E_mol          TotEng         Press     
         0   0              0              0              0              0            
         1   0              0              0              0              0            
Loop time of 6.4647e-05 on 8 procs for 1 steps with 366 atoms

57.6% CPU use with 8 MPI tasks x 1 OpenMP threads

Minimization stats:
  Stopping criterion = search direction is not downhill
  Energy initial, next-to-last, final = 
                     0                  0                  0
  Force two-norm initial, final = 0 0
  Force max component initial, final = 0 0
  Final line search alpha, max atom move = 0 0
  Iterations, force evaluations = 1 0

MPI task timing breakdown:
Section |  min time  |  avg time  |  max time  |%varavg| %total
---------------------------------------------------------------
Pair    | 0          | 0          | 0          |   0.0 |  0.00
Bond    | 1.816e-06  | 1.816e-06  | 1.816e-06  |   0.0 |  2.81
Neigh   | 0          | 0          | 0          |   0.0 |  0.00
Comm    | 3.423e-06  | 4.3391e-06 | 4.47e-06   |   0.0 |  6.71
Output  | 0          | 0          | 0          |   0.0 |  0.00
Modify  | 0          | 0          | 0          |   0.0 |  0.00
Other   |            | 5.849e-05  |            |       | 90.48

Nlocal:          45.75 ave          50 max          38 min
Histogram: 1 0 0 0 0 2 1 1 1 2
Nghost:              0 ave           0 max           0 min
Histogram: 8 0 0 0 0 0 0 0 0 0
Neighs:              0 ave           0 max           0 min
Histogram: 8 0 0 0 0 0 0 0 0 0

Total # of neighbors = 0
Ave neighs/atom = 0
Ave special neighs/atom = 0
Neighbor list builds = 0
Dangerous builds = 0
System init for write_data ...
WARNING: Communication cutoff is 0.0. No ghost atoms will be generated. Atoms may get lost. (src/comm_brick.cpp:210)
WARNING: New thermo_style command, previous thermo_modify settings will be lost (src/output.cpp:903)

CITE-CITE-CITE-CITE-CITE-CITE-CITE-CITE-CITE-CITE-CITE-CITE-CITE

Your simulation uses code contributions which should be cited:
- pair reaxff command: doi:10.1016/j.parco.2011.08.005
- fix qeq/reaxff command: doi:10.1016/j.parco.2011.08.005
The log file lists these citations in BibTeX format.

CITE-CITE-CITE-CITE-CITE-CITE-CITE-CITE-CITE-CITE-CITE-CITE-CITE

WARNING: Fix qeq/reaxff group is not charge neutral, net charge = -29.52 (src/REAXFF/fix_qeq_reaxff.cpp:392)
Neighbor list info ...
  update: every = 10 steps, delay = 0 steps, check = no
  max neighbors/atom: 2000, page size: 100000
  master list distance cutoff = 12
  ghost atom cutoff = 12
  binsize = 6, bins = 4 3 3
  2 neighbor lists, perpetual/occasional/extra = 2 0 0
  (1) pair reaxff, perpetual
      attributes: half, newton off, ghost
      pair build: half/bin/newtoff/ghost
      stencil: full/ghost/bin/3d
      bin: standard
  (2) fix qeq/reaxff, perpetual, copy from (1)
      attributes: half, newton off
      pair build: copy
      stencil: none
      bin: none
Setting up Verlet run ...
  Unit style    : real
  Current step  : 0
  Time step     : 0.5
Per MPI rank memory allocation (min/avg/max) = 131.2 | 133.5 | 136.5 Mbytes
   Step          Temp          PotEng         Press        f_avgp[1]       Density         Volume    
         0   300           -43579.409      43399.428      0              1.8952586      3770.2978    
       100   501.31721     -43951.858     -5482.4294     -3886.7031      1.8952586      3770.2978    
       200   461.37543     -44118.279      675.39958      7018.5091      1.8952586      3770.2978    
       300   358.21729     -44182.519     -4611.4587      1738.2782      1.8952586      3770.2978    
       400   342.69982     -44289.858     -10505.098     -4769.6228      1.8952586      3770.2978    
       500   304.71689     -44336.453     -6863.721      -2075.5239      1.8952586      3770.2978    
       600   277.61747     -44349.561      2371.2463      680.97467      1.8952586      3770.2978    
       700   295.18902     -44362.622      215.76326     -2572.0718      1.8952586      3770.2978    
       800   296.96454     -44334.344     -5171.6613     -3801.2431      1.8952586      3770.2978    
       900   313.88552     -44330.146     -5703.9153      102.15967      1.8952586      3770.2978    
      1000   303.04307     -44335.255     -927.32497     -1868.0077      1.8952586      3770.2978    
      1100   290.28149     -44359.779     -14836.59      -462.44335      1.8952586      3770.2978    
      1200   265.90356     -44358.295     -10226.493     -4845.7682      1.8952586      3770.2978    
      1300   282.41574     -44365.098     -5322.3059     -1917.9         1.8952586      3770.2978    
      1400   305.39048     -44359.171     -4136.1052     -2644.6859      1.8952586      3770.2978    
      1500   313.51829     -44351.056      1748.3585     -2655.1249      1.8952586      3770.2978    
      1600   309.16666     -44349.003     -3166.2655     -4440.2451      1.8952586      3770.2978    
      1700   298.04054     -44359.319      3531.2606     -1657.2793      1.8952586      3770.2978    
      1800   283.38286     -44366.171      4082.6337      2150.3301      1.8952586      3770.2978    
      1900   285.72907     -44373.574     -6905.8815     -2543.4234      1.8952586      3770.2978    
      2000   291.16103     -44361.115     -10861.002     -4956.2987      1.8952586      3770.2978    
      2100   312.15439     -44364.437     -17503.903     -7379.0747      1.8952586      3770.2978    
      2200   309.5297      -44368.589     -4466.5763     -4273.9892      1.8952586      3770.2978    
      2300   292.16701     -44375.512      4594.1211     -5951.8037      1.8952586      3770.2978    
      2400   287.65004     -44385.544      2441.7332     -1556.4558      1.8952586      3770.2978    
      2500   275.8479      -44364.562     -5702.8855     -2245.5364      1.8952586      3770.2978    
      2600   301.62039     -44377.579     -10193.809     -1597.213       1.8952586      3770.2978    
      2700   309.51785     -44382.15      -579.03466     -4142.482       1.8952586      3770.2978    
      2800   287.35727     -44372.082      3941.7641     -911.44754      1.8952586      3770.2978    
      2900   290.06265     -44386.712     -3174.9246     -5472.1401      1.8952586      3770.2978    
      3000   307.28953     -44410.088     -8204.6987     -5406.1836      1.8952586      3770.2978    
Loop time of 166.332 on 8 procs for 3000 steps with 366 atoms

Performance: 0.779 ns/day, 30.802 hours/ns, 18.036 timesteps/s, 6.601 katom-step/s
99.0% CPU use with 8 MPI tasks x 1 OpenMP threads

MPI task timing breakdown:
Section |  min time  |  avg time  |  max time  |%varavg| %total
---------------------------------------------------------------
Pair    | 134.66     | 138.37     | 140.71     |  15.6 | 83.19
Bond    | 0.0084341  | 0.0092126  | 0.0099843  |   0.6 |  0.01
Neigh   | 10.834     | 11.186     | 11.433     |   5.4 |  6.73
Comm    | 2.0353     | 4.39       | 8.1023     |  87.8 |  2.64
Output  | 0.0018084  | 0.0019699  | 0.0028342  |   0.7 |  0.00
Modify  | 12.057     | 12.296     | 12.642     |   5.0 |  7.39
Other   |            | 0.08274    |            |       |  0.05

Nlocal:          45.75 ave          52 max          42 min
Histogram: 2 1 1 0 1 0 1 1 0 1
Nghost:        3424.75 ave        3488 max        3357 min
Histogram: 2 0 0 0 1 2 1 0 0 2
Neighs:          31073 ave       35141 max       28693 min
Histogram: 3 1 0 0 1 1 1 0 0 1

Total # of neighbors = 248584
Ave neighs/atom = 679.19126
Ave special neighs/atom = 0
Neighbor list builds = 300
Dangerous builds not checked
System init for write_data ...
System init for write_restart ...
OMP_NUM_THREADS environment is not set. Defaulting to 1 thread. (src/comm.cpp:98)
  using 1 OpenMP thread(s) per MPI task
Reading restart file ...
  restart file = 2 Aug 2023, LAMMPS = 2 Aug 2023
  restoring atom style full from restart
  triclinic box = (0 0 0) to (15.724 13.9031 17.2465) with tilt (-7.584 0.1778 0.4371)
WARNING: Triclinic box skew is large. LAMMPS will run inefficiently. (src/domain.cpp:220)
  2 by 2 by 2 MPI processor grid
  pair style reaxff stores no restart info
  366 atoms
Finding 1-2 1-3 1-4 neighbors ...
  special bond factors lj:    0        0        0       
  special bond factors coul:  0        0        0       
     0 = max # of 1-2 neighbors
     0 = max # of 1-3 neighbors
     0 = max # of 1-4 neighbors
     1 = max # of special neighbors
  special bonds CPU = 0.000 seconds
  read_restart CPU = 0.003 seconds
*****Negative-change 1 starts.*****
Resetting global fix info from restart file:
  fix style: nvt, fix ID: 4
Changing box ...
WARNING: Triclinic box skew is large. LAMMPS will run inefficiently. (src/domain.cpp:220)
  triclinic box = (0 0 0) to (15.56676 13.9031 17.2465) with tilt (-7.584 0.1778 0.4371)
WARNING: Triclinic box skew is large. LAMMPS will run inefficiently. (src/domain.cpp:220)
  triclinic box = (0 0 0) to (15.56676 13.9031 17.2465) with tilt (-7.50816 0.1778 0.4371)
WARNING: Triclinic box skew is large. LAMMPS will run inefficiently. (src/domain.cpp:220)
  triclinic box = (0 0 0) to (15.56676 13.9031 17.2465) with tilt (-7.50816 0.176022 0.4371)
All restart file global fix info was re-assigned
Neighbor list info ...
  update: every = 10 steps, delay = 0 steps, check = no
  max neighbors/atom: 2000, page size: 100000
  master list distance cutoff = 12
  ghost atom cutoff = 12
  binsize = 6, bins = 4 3 3
  2 neighbor lists, perpetual/occasional/extra = 2 0 0
  (1) pair reaxff, perpetual
      attributes: half, newton off, ghost
      pair build: half/bin/newtoff/ghost
      stencil: full/ghost/bin/3d
      bin: standard
  (2) fix qeq/reaxff, perpetual, copy from (1)
      attributes: half, newton off
      pair build: copy
      stencil: none
      bin: none
Setting up Verlet run ...
  Unit style    : real
  Current step  : 0
  Time step     : 0.5
Per MPI rank memory allocation (min/avg/max) = 131.6 | 134 | 136.9 Mbytes
   Step          Temp          PotEng         Press        f_avgp[1]        Volume    
         0   307.28953     -44408.502      26383.949      0              3732.5948    
       100   303.82477     -44401.859      520.09727      7953.0942      3732.5948    
       200   294.95447     -44388.782      3695.168       10150.266      3732.5948    
       300   312.49203     -44404.805     -23.532052      5614.3275      3732.5948    
       400   306.80534     -44401.393      1919.0277      3918.6692      3732.5948    
       500   303.18058     -44406.516      1533.3565      6548.1926      3732.5948    
       600   290.12845     -44414.472      2910.8813      6471.9735      3732.5948    
       700   286.37931     -44419.347     -1741.0233      6439.5221      3732.5948    
       800   309.09242     -44425.879      6966.0904      8216.0584      3732.5948    
       900   310.63474     -44395.341      365.9524       7072.1794      3732.5948    
      1000   312.7911      -44393.19       7975.224       8220.573       3732.5948    
      1100   291.47552     -44392.649      6827.7767      621.56261      3732.5948    
      1200   313.2032      -44435.214      692.7711       2672.7504      3732.5948    
      1300   294.98522     -44420.635     -2135.515       2635.8265      3732.5948    
      1400   286.98028     -44402.089     -5434.1061      6130.3356      3732.5948    
      1500   306.77499     -44399.992     -4769.7209      6479.6667      3732.5948    
      1600   286.37139     -44380.338     -567.06942      3365.1204      3732.5948    
      1700   298.12876     -44427.79      -2429.5026     -2455.5782      3732.5948    
      1800   278.85121     -44423.687     -785.66165     -7349.7239      3732.5948    
      1900   300.24464     -44433.816     -2227.8464     -862.26598      3732.5948    
      2000   309.6498      -44423.307      10610.297      4625.1399      3732.5948    
      2100   320.7219      -44415.8        9311.5972      8548.051       3732.5948    
      2200   309.25974     -44397.687      5779.1043      5548.5931      3732.5948    
      2300   282.75511     -44382.499     -2371.4441      7823.1721      3732.5948    
      2400   282.15528     -44421.197      9151.1611      6747.4564      3732.5948    
      2500   282.73477     -44423.669     -7490.203      -3680.6895      3732.5948    
      2600   275.0141      -44386.937      1620.5783      1337.0996      3732.5948    
      2700   309.95771     -44411.587      14782.213      114.94053      3732.5948    
      2800   296.73363     -44405.666     -5228.4756      2893.0731      3732.5948    
      2900   294.36883     -44422.846     -2595.1064      2643.2012      3732.5948    
      3000   278.47658     -44437.236     -1734.1665     -1376.7783      3732.5948    
Loop time of 168.466 on 8 procs for 3000 steps with 366 atoms

Performance: 0.769 ns/day, 31.197 hours/ns, 17.808 timesteps/s, 6.518 katom-step/s
99.0% CPU use with 8 MPI tasks x 1 OpenMP threads

MPI task timing breakdown:
Section |  min time  |  avg time  |  max time  |%varavg| %total
---------------------------------------------------------------
Pair    | 121.09     | 137.82     | 142.53     |  55.5 | 81.81
Bond    | 0.0086757  | 0.0091864  | 0.010145   |   0.5 |  0.01
Neigh   | 9.8141     | 11.053     | 11.536     |  14.7 |  6.56
Comm    | 2.184      | 6.9138     | 23.626     | 247.8 |  4.10
Output  | 0.006668   | 0.0086603  | 0.010036   |   1.3 |  0.01
Modify  | 12.115     | 12.583     | 13.837     |  14.0 |  7.47
Other   |            | 0.07943    |            |       |  0.05

Nlocal:          45.75 ave          50 max          36 min
Histogram: 1 0 0 0 0 2 0 2 0 3
Nghost:        3440.75 ave        3539 max        3349 min
Histogram: 1 1 0 2 0 0 2 1 0 1
Neighs:        31379.2 ave       33965 max       25042 min
Histogram: 1 0 0 0 0 2 0 1 1 3

Total # of neighbors = 251034
Ave neighs/atom = 685.88525
Ave special neighs/atom = 0
Neighbor list builds = 300
Dangerous builds not checked
*****Equilibration neg1 starts.*****
WARNING: New thermo_style command, previous thermo_modify settings will be lost (src/output.cpp:903)
Neighbor list info ...
  update: every = 10 steps, delay = 0 steps, check = no
  max neighbors/atom: 2000, page size: 100000
  master list distance cutoff = 12
  ghost atom cutoff = 12
  binsize = 6, bins = 4 3 3
  2 neighbor lists, perpetual/occasional/extra = 2 0 0
  (1) pair reaxff, perpetual
      attributes: half, newton off, ghost
      pair build: half/bin/newtoff/ghost
      stencil: full/ghost/bin/3d
      bin: standard
  (2) fix qeq/reaxff, perpetual, copy from (1)
      attributes: half, newton off
      pair build: copy
      stencil: none
      bin: none
Setting up Verlet run ...
  Unit style    : real
  Current step  : 0
  Time step     : 0.5
Per MPI rank memory allocation (min/avg/max) = 131.6 | 134.1 | 136.9 Mbytes
   Step          Temp          PotEng         Press        f_avgp[1]        Volume    
         0   278.47658     -44437.236     -1734.1574      0              3732.5948    
       100   298.18269     -44439.877     -1471.778      -3444.0325      3732.5948    
       200   298.53545     -44413.694      626.14558     -328.00281      3732.5948    
       300   297.56344     -44405.198     -5899.057       1885.3945      3732.5948    
       400   293.56904     -44396.489     -2340.8162     -3926.0704      3732.5948    
       500   305.49683     -44409.056     -1169.5829      3400.9128      3732.5948    
       600   305.02141     -44431.37       5110.7853      5059.5093      3732.5948    
       700   283.37137     -44435         -4331.084       2075.5022      3732.5948    
       800   287.46246     -44428.556     -546.42819      2915.372       3732.5948    
       900   305.24939     -44424.334      5545.1981      4689.0669      3732.5948    
      1000   308.28639     -44418.314     -9685.737       434.47024      3732.5948    
      1100   303.68538     -44417.092     -12121.46      -3947.0497      3732.5948    
      1200   292.35585     -44418.061      217.90023     -1698.841       3732.5948    
      1300   292.71428     -44438.398     -12296.288      167.50842      3732.5948    
      1400   264.47888     -44433.395     -5375.5118     -5445.1248      3732.5948    
      1500   286.51846     -44437.677      5815.4015     -3510.3304      3732.5948    
      1600   308.6521      -44435.223     -2862.1936      6321.2653      3732.5948    
      1700   305.72827     -44424.071     -7033.0763      657.43637      3732.5948    
      1800   286.51836     -44403.626      287.97237     -2074.0222      3732.5948    
      1900   297.96289     -44420.213     -10414.354     -1696.2574      3732.5948    
      2000   279.09352     -44415.046     -717.61947      1627.1814      3732.5948    
      2100   281.16927     -44423.641      3543.1564      5243.0318      3732.5948    
      2200   283.03155     -44402.113      2966.3379      1334.7389      3732.5948    
      2300   308.0114      -44405.811      3693.856       3887.494       3732.5948    
      2400   310.32122     -44410.2       -2380.8253      4699.9467      3732.5948    
      2500   313.476       -44431.513      805.54612      6140.0621      3732.5948    
      2600   290.42967     -44433.753      7686.3237      2597.9071      3732.5948    
      2700   290.41396     -44431.958     -7826.2754     -3460.4265      3732.5948    
      2800   287.80441     -44414.392      502.74722     -1578.3174      3732.5948    
      2900   294.5724      -44400.7       -1875.8279     -2497.8304      3732.5948    
      3000   316.46045     -44411.053      4130.0057      1835.9222      3732.5948    
Loop time of 168.53 on 8 procs for 3000 steps with 366 atoms

Performance: 0.769 ns/day, 31.209 hours/ns, 17.801 timesteps/s, 6.515 katom-step/s
99.0% CPU use with 8 MPI tasks x 1 OpenMP threads

MPI task timing breakdown:
Section |  min time  |  avg time  |  max time  |%varavg| %total
---------------------------------------------------------------
Pair    | 100.38     | 134.77     | 141.96     | 113.0 | 79.97
Bond    | 0.0086375  | 0.0093015  | 0.010612   |   0.7 |  0.01
Neigh   | 8.2381     | 10.848     | 11.354     |  30.1 |  6.44
Comm    | 2.6088     | 9.8256     | 44.217     | 418.4 |  5.83
Output  | 0.0013766  | 0.0016131  | 0.0028404  |   1.2 |  0.00
Modify  | 12.507     | 12.998     | 15.619     |  27.6 |  7.71
Other   |            | 0.07722    |            |       |  0.05

Nlocal:          45.75 ave          54 max          38 min
Histogram: 2 1 0 1 0 0 1 0 2 1
Nghost:        3438.25 ave        3535 max        3348 min
Histogram: 1 1 1 1 0 1 1 0 1 1
Neighs:        31383.5 ave       36833 max       26316 min
Histogram: 2 1 0 1 0 0 1 1 1 1

Total # of neighbors = 251068
Ave neighs/atom = 685.97814
Ave special neighs/atom = 0
Neighbor list builds = 300
Dangerous builds not checked
OMP_NUM_THREADS environment is not set. Defaulting to 1 thread. (src/comm.cpp:98)
  using 1 OpenMP thread(s) per MPI task
Reading restart file ...
  restart file = 2 Aug 2023, LAMMPS = 2 Aug 2023
  restoring atom style full from restart
  triclinic box = (0 0 0) to (15.724 13.9031 17.2465) with tilt (-7.584 0.1778 0.4371)
WARNING: Triclinic box skew is large. LAMMPS will run inefficiently. (src/domain.cpp:220)
  2 by 2 by 2 MPI processor grid
  pair style reaxff stores no restart info
  366 atoms
Finding 1-2 1-3 1-4 neighbors ...
  special bond factors lj:    0        0        0       
  special bond factors coul:  0        0        0       
     0 = max # of 1-2 neighbors
     0 = max # of 1-3 neighbors
     0 = max # of 1-4 neighbors
     1 = max # of special neighbors
  special bonds CPU = 0.000 seconds
  read_restart CPU = 0.003 seconds
*****Positive-change 1 starts.*****
Resetting global fix info from restart file:
  fix style: nvt, fix ID: 4
Changing box ...
WARNING: Triclinic box skew is large. LAMMPS will run inefficiently. (src/domain.cpp:220)
  triclinic box = (0 0 0) to (15.88124 13.9031 17.2465) with tilt (-7.584 0.1778 0.4371)
WARNING: Triclinic box skew is large. LAMMPS will run inefficiently. (src/domain.cpp:220)
  triclinic box = (0 0 0) to (15.88124 13.9031 17.2465) with tilt (-7.65984 0.1778 0.4371)
WARNING: Triclinic box skew is large. LAMMPS will run inefficiently. (src/domain.cpp:220)
  triclinic box = (0 0 0) to (15.88124 13.9031 17.2465) with tilt (-7.65984 0.179578 0.4371)
All restart file global fix info was re-assigned
Neighbor list info ...
  update: every = 10 steps, delay = 0 steps, check = no
  max neighbors/atom: 2000, page size: 100000
  master list distance cutoff = 12
  ghost atom cutoff = 12
  binsize = 6, bins = 4 3 3
  2 neighbor lists, perpetual/occasional/extra = 2 0 0
  (1) pair reaxff, perpetual
      attributes: half, newton off, ghost
      pair build: half/bin/newtoff/ghost
      stencil: full/ghost/bin/3d
      bin: standard
  (2) fix qeq/reaxff, perpetual, copy from (1)
      attributes: half, newton off
      pair build: copy
      stencil: none
      bin: none
Setting up Verlet run ...
  Unit style    : real
  Current step  : 0
  Time step     : 0.5
Per MPI rank memory allocation (min/avg/max) = 130.7 | 132.4 | 134.3 Mbytes
   Step          Temp          PotEng         Press        f_avgp[1]        Volume    
         0   307.28953     -44386.068     -40514.35       0              3808.0008    
       100   307.1206      -44388.249     -19288.293     -15075.305      3808.0008    
       200   287.9173      -44380.387      1289.2143     -9401.8977      3808.0008    
       300   295.71332     -44401.951     -1978.2199     -10827.924      3808.0008    
       400   305.55149     -44419.711     -2750.573      -15486.609      3808.0008    
       500   304.04517     -44402.515     -1324.9787     -10822.506      3808.0008    
       600   311.26493     -44381.418     -6406.6178     -10956.365      3808.0008    
       700   320.25331     -44383.327     -12173.713     -11727.867      3808.0008    
       800   309.78195     -44390.805     -14220.369     -8111.3737      3808.0008    
       900   314.73134     -44429.534     -6302.417      -10362.337      3808.0008    
      1000   280.6365      -44409.753      990.06024     -9515.2442      3808.0008    
      1100   291.33009     -44412.79      -13372.924     -10744.789      3808.0008    
      1200   287.39629     -44389.15      -12730.244     -13766.38       3808.0008    
      1300   306.34864     -44387.031     -3341.8596     -12699.715      3808.0008    
      1400   310.097       -44384.129     -17554.362     -12048.678      3808.0008    
      1500   310.99324     -44394.615     -13791.391     -11371.043      3808.0008    
      1600   288.21707     -44409.465     -13793.874     -12817.997      3808.0008    
      1700   290.79614     -44415.266      1022.0365     -12878.237      3808.0008    
      1800   290.16761     -44398.967     -7471.0677     -10279.296      3808.0008    
      1900   306.75513     -44393.91      -12441.676     -7961.645       3808.0008    
      2000   312.65114     -44394.849     -13622.501     -16168.107      3808.0008    
      2100   311.94006     -44398.781     -13210.028     -18763.119      3808.0008    
      2200   308.36362     -44401.494     -13786.138     -13819.042      3808.0008    
      2300   284.02856     -44379.133     -7462.0988     -10710.281      3808.0008    
      2400   284.48148     -44390.674     -15093.013     -10796.636      3808.0008    
      2500   304.63537     -44426.981     -9369.2572     -13519.604      3808.0008    
      2600   290.24362     -44415.482     -9971.5175     -17378.525      3808.0008    
      2700   298.73987     -44404.637     -2105.1701     -15759.725      3808.0008    
      2800   312.07228     -44397.315     -18735.235     -17704.273      3808.0008    
      2900   307.45812     -44390.145     -12964.007     -16547.4        3808.0008    
      3000   306.72534     -44428.442     -5706.9074     -14515.179      3808.0008    
Loop time of 164.909 on 8 procs for 3000 steps with 366 atoms

Performance: 0.786 ns/day, 30.539 hours/ns, 18.192 timesteps/s, 6.658 katom-step/s
99.0% CPU use with 8 MPI tasks x 1 OpenMP threads

MPI task timing breakdown:
Section |  min time  |  avg time  |  max time  |%varavg| %total
---------------------------------------------------------------
Pair    | 96.653     | 130.52     | 139.55     | 114.8 | 79.15
Bond    | 0.0081741  | 0.0092849  | 0.010781   |   0.8 |  0.01
Neigh   | 8.046      | 10.762     | 11.97      |  33.7 |  6.53
Comm    | 1.3066     | 10.319     | 44.188     | 408.3 |  6.26
Output  | 0.0068919  | 0.0086892  | 0.0099375  |   1.2 |  0.01
Modify  | 11.97      | 13.211     | 15.934     |  30.6 |  8.01
Other   |            | 0.07708    |            |       |  0.05

Nlocal:          45.75 ave          52 max          40 min
Histogram: 1 0 1 2 1 0 0 2 0 1
Nghost:        3428.25 ave        3498 max        3365 min
Histogram: 1 1 1 1 0 0 2 1 0 1
Neighs:        30734.5 ave       34737 max       27028 min
Histogram: 1 0 1 2 1 0 0 2 0 1

Total # of neighbors = 245876
Ave neighs/atom = 671.79235
Ave special neighs/atom = 0
Neighbor list builds = 300
Dangerous builds not checked
*****Equilibration pos1 starts.*****
WARNING: New thermo_style command, previous thermo_modify settings will be lost (src/output.cpp:903)
Neighbor list info ...
  update: every = 10 steps, delay = 0 steps, check = no
  max neighbors/atom: 2000, page size: 100000
  master list distance cutoff = 12
  ghost atom cutoff = 12
  binsize = 6, bins = 4 3 3
  2 neighbor lists, perpetual/occasional/extra = 2 0 0
  (1) pair reaxff, perpetual
      attributes: half, newton off, ghost
      pair build: half/bin/newtoff/ghost
      stencil: full/ghost/bin/3d
      bin: standard
  (2) fix qeq/reaxff, perpetual, copy from (1)
      attributes: half, newton off
      pair build: copy
      stencil: none
      bin: none
Setting up Verlet run ...
  Unit style    : real
  Current step  : 0
  Time step     : 0.5
Per MPI rank memory allocation (min/avg/max) = 130.6 | 132.4 | 134.3 Mbytes
   Step          Temp          PotEng         Press        f_avgp[1]        Volume    
         0   306.72534     -44428.442     -5707.1028      0              3808.0008    
       100   303.91278     -44422.403     -8229.7258     -12838.833      3808.0008    
       200   317.3825      -44429.77      -9932.6571     -11974.222      3808.0008    
       300   311.21806     -44401.853     -11102.903     -8937.5653      3808.0008    
       400   299.36277     -44381.624     -11766.431     -15275.541      3808.0008    
       500   310.08403     -44418.484     -8303.608      -8233.6157      3808.0008    
       600   293.35031     -44422.127     -6931.2145     -9668.6061      3808.0008    
       700   277.31136     -44395.714     -9331.8821     -15033.835      3808.0008    
       800   302.98613     -44400.904     -9366.7535     -15270.988      3808.0008    
       900   306.27648     -44397.228      2087.9622     -12040.314      3808.0008    
      1000   303.10075     -44402.213     -18808.423     -13130.551      3808.0008    
      1100   311.05487     -44428.632     -6057.8853     -10066.57       3808.0008    
      1200   284.8629      -44410.171     -8722.9339     -11133.239      3808.0008    
      1300   293.5256      -44414.676     -18388.125     -15615.994      3808.0008    
      1400   297.85411     -44401.17      -8141.1776     -14540.812      3808.0008    
      1500   312.86494     -44398.366     -11640.845     -14851.696      3808.0008    
      1600   301.14652     -44385.062     -6422.1817     -10761.156      3808.0008    
      1700   287.79399     -44399.602      2686.5303     -11376.159      3808.0008    
      1800   294.96194     -44424.083     -6817.8254     -15090.499      3808.0008    
      1900   304.81037     -44434.6       -16622.498     -13398.216      3808.0008    
      2000   291.69384     -44412.236     -3254.2705     -13194.449      3808.0008    
      2100   294.91636     -44400.593      1460.5746     -13179.672      3808.0008    
      2200   319.61156     -44422.763      6046.1361     -13264.175      3808.0008    
      2300   308.95564     -44418.477     -4214.7528     -13295.87       3808.0008    
      2400   295.85298     -44421.437     -7719.3844     -11234.889      3808.0008    
      2500   308.16459     -44442.97      -5994.3337     -18223.4        3808.0008    
      2600   318.50434     -44437.885     -5647.024      -14318.616      3808.0008    
      2700   310.50321     -44394.949     -10703.449     -13468.87       3808.0008    
      2800   330.81443     -44418.479     -5649.5602     -11408.233      3808.0008    
      2900   308.03547     -44413.198     -4922.9907     -13214.824      3808.0008    
      3000   314.05123     -44432.53      -9954.6        -11498.103      3808.0008    
Loop time of 165.019 on 8 procs for 3000 steps with 366 atoms

Performance: 0.785 ns/day, 30.559 hours/ns, 18.180 timesteps/s, 6.654 katom-step/s
99.1% CPU use with 8 MPI tasks x 1 OpenMP threads

MPI task timing breakdown:
Section |  min time  |  avg time  |  max time  |%varavg| %total
---------------------------------------------------------------
Pair    | 97.842     | 129.57     | 138.37     | 112.6 | 78.52
Bond    | 0.0082946  | 0.008988   | 0.010074   |   0.6 |  0.01
Neigh   | 8.0814     | 10.621     | 11.303     |  30.3 |  6.44
Comm    | 2.8612     | 11.66      | 43.383     | 375.4 |  7.07
Output  | 0.0013948  | 0.0016138  | 0.0029828  |   1.3 |  0.00
Modify  | 12.396     | 13.08      | 15.635     |  27.5 |  7.93
Other   |            | 0.07661    |            |       |  0.05

Nlocal:          45.75 ave          53 max          37 min
Histogram: 1 0 1 1 0 2 0 0 2 1
Nghost:        3397.12 ave        3462 max        3330 min
Histogram: 1 1 0 2 0 0 1 2 0 1
Neighs:        30704.5 ave       35330 max       24993 min
Histogram: 1 0 1 1 1 1 0 0 2 1

Total # of neighbors = 245636
Ave neighs/atom = 671.13661
Ave special neighs/atom = 0
Neighbor list builds = 300
Dangerous builds not checked
OMP_NUM_THREADS environment is not set. Defaulting to 1 thread. (src/comm.cpp:98)
  using 1 OpenMP thread(s) per MPI task
Reading restart file ...
  restart file = 2 Aug 2023, LAMMPS = 2 Aug 2023
  restoring atom style full from restart
  triclinic box = (0 0 0) to (15.724 13.9031 17.2465) with tilt (-7.584 0.1778 0.4371)
WARNING: Triclinic box skew is large. LAMMPS will run inefficiently. (src/domain.cpp:220)
  2 by 2 by 2 MPI processor grid
  pair style reaxff stores no restart info
  366 atoms
Finding 1-2 1-3 1-4 neighbors ...
  special bond factors lj:    0        0        0       
  special bond factors coul:  0        0        0       
     0 = max # of 1-2 neighbors
     0 = max # of 1-3 neighbors
     0 = max # of 1-4 neighbors
     1 = max # of special neighbors
  special bonds CPU = 0.000 seconds
  read_restart CPU = 0.003 seconds
*****Negative-change 2 starts.*****
Resetting global fix info from restart file:
  fix style: nvt, fix ID: 4
Changing box ...
WARNING: Triclinic box skew is large. LAMMPS will run inefficiently. (src/domain.cpp:220)
  triclinic box = (0 0 0) to (15.724 13.764069 17.2465) with tilt (-7.584 0.1778 0.4371)
WARNING: Triclinic box skew is large. LAMMPS will run inefficiently. (src/domain.cpp:220)
  triclinic box = (0 0 0) to (15.724 13.764069 17.2465) with tilt (-7.584 0.1778 0.432729)
All restart file global fix info was re-assigned
Neighbor list info ...
  update: every = 10 steps, delay = 0 steps, check = no
  max neighbors/atom: 2000, page size: 100000
  master list distance cutoff = 12
  ghost atom cutoff = 12
  binsize = 6, bins = 4 3 3
  2 neighbor lists, perpetual/occasional/extra = 2 0 0
  (1) pair reaxff, perpetual
      attributes: half, newton off, ghost
      pair build: half/bin/newtoff/ghost
      stencil: full/ghost/bin/3d
      bin: standard
  (2) fix qeq/reaxff, perpetual, copy from (1)
      attributes: half, newton off
      pair build: copy
      stencil: none
      bin: none
Setting up Verlet run ...
  Unit style    : real
  Current step  : 0
  Time step     : 0.5
Per MPI rank memory allocation (min/avg/max) = 131.8 | 134.7 | 138.1 Mbytes
   Step          Temp          PotEng         Press        f_avgp[1]        Volume    
         0   307.28953     -44402.521      29961.6        0              3732.5948    
       100   313.54346     -44410.407      1712.9877      1978.2703      3732.5948    
       200   294.79928     -44391.334     -1308.9785      2307.0696      3732.5948    
       300   299.70364     -44394.776      2842.6118      2482.6519      3732.5948    
       400   304.66217     -44392.49       4439.8906     -2345.5285      3732.5948    
       500   312.06357     -44394.835      9361.3118      107.29178      3732.5948    
       600   314.79906     -44405.582     -9500.9097      1103.7658      3732.5948    
       700   288.31609     -44408.871      5921.5515      507.62447      3732.5948    
       800   291.07025     -44422.855     -5711.2635     -2753.6839      3732.5948    
       900   321.67361     -44446.144      9789.2641     -1344.7383      3732.5948    
      1000   330.77073     -44428.911      847.41221     -2775.2116      3732.5948    
      1100   324.39092     -44402.093     -4918.7187      4058.128       3732.5948    
      1200   312.04492     -44395.106      4340.8389     -3850.0437      3732.5948    
      1300   302.97529     -44403.665     -331.74955     -1853.3012      3732.5948    
      1400   298.63308     -44414.981     -7981.1211     -860.1027       3732.5948    
      1500   304.05239     -44427.136      1822.9133     -5568.8323      3732.5948    
      1600   297.5234      -44434.749      3981.6668      574.54865      3732.5948    
      1700   289.73046     -44426.984      614.83233     -3426.3343      3732.5948    
      1800   304.74957     -44415.683      7550.7011     -2118.6498      3732.5948    
      1900   320.71127     -44419.464     -3657.5059     -4810.928       3732.5948    
      2000   292.38115     -44398.829      10327.296     -659.6985       3732.5948    
      2100   318.84656     -44458.843     -2334.9882     -1951.745       3732.5948    
      2200   277.62815     -44427.717      7988.2733     -3510.7789      3732.5948    
      2300   278.16199     -44410.147      1602.8608     -2576.9369      3732.5948    
      2400   307.0252      -44428.826     -10275.879      241.22263      3732.5948    
      2500   326.27299     -44436.448     -1681.3455     -1951.0626      3732.5948    
      2600   328.12652     -44437.999     -2450.3599      1465.6251      3732.5948    
      2700   285.39887     -44422.14      -1786.5915     -850.1989       3732.5948    
      2800   280.47258     -44430.807     -7671.6377     -3625.3979      3732.5948    
      2900   294.2327      -44431.555      2463.6965     -3466.8601      3732.5948    
      3000   314.37603     -44420.776     -3226.7459     -3637.6748      3732.5948    
Loop time of 167.85 on 8 procs for 3000 steps with 366 atoms

Performance: 0.772 ns/day, 31.083 hours/ns, 17.873 timesteps/s, 6.542 katom-step/s
99.1% CPU use with 8 MPI tasks x 1 OpenMP threads

MPI task timing breakdown:
Section |  min time  |  avg time  |  max time  |%varavg| %total
---------------------------------------------------------------
Pair    | 101.41     | 129.17     | 141.61     | 127.4 | 76.96
Bond    | 0.0083875  | 0.0089934  | 0.0098133  |   0.5 |  0.01
Neigh   | 8.2853     | 10.488     | 11.363     |  34.2 |  6.25
Comm    | 2.3265     | 14.751     | 42.498     | 376.8 |  8.79
Output  | 0.0068397  | 0.0087381  | 0.010068   |   1.2 |  0.01
Modify  | 12.454     | 13.343     | 15.576     |  30.7 |  7.95
Other   |            | 0.07576    |            |       |  0.05

Nlocal:          45.75 ave          50 max          41 min
Histogram: 1 2 0 0 0 0 2 1 1 1
Nghost:        3457.25 ave        3557 max        3367 min
Histogram: 1 1 1 1 0 1 1 1 0 1
Neighs:        31363.8 ave       33887 max       28212 min
Histogram: 1 2 0 0 0 0 1 1 1 2

Total # of neighbors = 250910
Ave neighs/atom = 685.54645
Ave special neighs/atom = 0
Neighbor list builds = 300
Dangerous builds not checked
*****Equilibration neg2 starts.*****
WARNING: New thermo_style command, previous thermo_modify settings will be lost (src/output.cpp:903)
Neighbor list info ...
  update: every = 10 steps, delay = 0 steps, check = no
  max neighbors/atom: 2000, page size: 100000
  master list distance cutoff = 12
  ghost atom cutoff = 12
  binsize = 6, bins = 4 3 3
  2 neighbor lists, perpetual/occasional/extra = 2 0 0
  (1) pair reaxff, perpetual
      attributes: half, newton off, ghost
      pair build: half/bin/newtoff/ghost
      stencil: full/ghost/bin/3d
      bin: standard
  (2) fix qeq/reaxff, perpetual, copy from (1)
      attributes: half, newton off
      pair build: copy
      stencil: none
      bin: none
Setting up Verlet run ...
  Unit style    : real
  Current step  : 0
  Time step     : 0.5
Per MPI rank memory allocation (min/avg/max) = 131.8 | 134.7 | 138.1 Mbytes
   Step          Temp          PotEng         Press        f_avgp[1]        Volume    
         0   314.37603     -44420.776     -3226.7324      0              3732.5948    
       100   293.23673     -44399.972      4445.269       633.59033      3732.5948    
       200   292.47126     -44403.048     -5401.8996     -1415.1157      3732.5948    
       300   291.81596     -44408.271     -1565.2974     -1080.7984      3732.5948    
       400   310.25487     -44435.027     -2368.3534      185.28387      3732.5948    
       500   306.78554     -44435.189      4109.5444      4015.3943      3732.5948    
       600   285.43396     -44421.596      5422.2102      760.338        3732.5948    
       700   287.27206     -44434.832      9117.6855      1507.9866      3732.5948    
       800   286.51461     -44424.187     -2761.7928     -974.27852      3732.5948    
       900   304.60475     -44409.367      3056.0715     -2669.8785      3732.5948    
      1000   317.60065     -44418.73       9662.9559      862.55694      3732.5948    
      1100   295.8288      -44411.837      6076.3213     -1289.7984      3732.5948    
      1200   307.16463     -44448.849      667.46921      8156.5436      3732.5948    
      1300   283.81773     -44434.581     -7536.5806      63.024311      3732.5948    
      1400   297.56506     -44439.863     -5033.8369     -2001.4233      3732.5948    
      1500   298.12845     -44421.325      2894.6665     -1091.6887      3732.5948    
      1600   311.26508     -44422.584     -2063.8671      543.66447      3732.5948    
      1700   303.87674     -44419.766     -1329.6853     -1745.0243      3732.5948    
      1800   279.33781     -44426.07      -3253.7707      4628.1889      3732.5948    
      1900   294.96286     -44460.41       5927.9335      1285.0882      3732.5948    
      2000   278.52331     -44429.645      5526.6145      5992.7035      3732.5948    
      2100   299.54141     -44423.779      5621.2816      1036.7564      3732.5948    
      2200   310.756       -44427.434      154.5525       719.5603       3732.5948    
      2300   287.51594     -44406.093     -2694.3266     -909.33205      3732.5948    
      2400   295.88836     -44415.527      4471.9393      6775.0022      3732.5948    
      2500   276.36893     -44394.73       17577.807      195.69198      3732.5948    
      2600   304.34818     -44429.782     -7691.2871     -2852.4746      3732.5948    
      2700   293.15893     -44423.578     -8919.753       2838.664       3732.5948    
      2800   303.26311     -44422.127      1903.1062      4088.9451      3732.5948    
      2900   316.23314     -44416.165     -709.97565      2737.105       3732.5948    
      3000   306.16475     -44405.023     -4962.1499     -951.16491      3732.5948    
Loop time of 169 on 8 procs for 3000 steps with 366 atoms

Performance: 0.767 ns/day, 31.296 hours/ns, 17.751 timesteps/s, 6.497 katom-step/s
99.0% CPU use with 8 MPI tasks x 1 OpenMP threads

MPI task timing breakdown:
Section |  min time  |  avg time  |  max time  |%varavg| %total
---------------------------------------------------------------
Pair    | 97.743     | 130.19     | 142.34     | 157.7 | 77.03
Bond    | 0.0085229  | 0.0091021  | 0.0097688  |   0.5 |  0.01
Neigh   | 8.2011     | 10.601     | 11.709     |  41.7 |  6.27
Comm    | 2.3525     | 14.497     | 46.936     | 472.5 |  8.58
Output  | 0.0013586  | 0.0017162  | 0.0035817  |   1.7 |  0.00
Modify  | 12.51      | 13.63      | 16.046     |  37.2 |  8.07
Other   |            | 0.07429    |            |       |  0.04

Nlocal:          45.75 ave          51 max          41 min
Histogram: 1 0 2 0 1 1 0 1 1 1
Nghost:           3471 ave        3534 max        3417 min
Histogram: 2 0 1 0 2 0 1 1 0 1
Neighs:        31359.9 ave       34771 max       28340 min
Histogram: 1 2 0 0 1 1 1 1 0 1

Total # of neighbors = 250879
Ave neighs/atom = 685.46175
Ave special neighs/atom = 0
Neighbor list builds = 300
Dangerous builds not checked
OMP_NUM_THREADS environment is not set. Defaulting to 1 thread. (src/comm.cpp:98)
  using 1 OpenMP thread(s) per MPI task
Reading restart file ...
  restart file = 2 Aug 2023, LAMMPS = 2 Aug 2023
  restoring atom style full from restart
  triclinic box = (0 0 0) to (15.724 13.9031 17.2465) with tilt (-7.584 0.1778 0.4371)
WARNING: Triclinic box skew is large. LAMMPS will run inefficiently. (src/domain.cpp:220)
  2 by 2 by 2 MPI processor grid
  pair style reaxff stores no restart info
  366 atoms
Finding 1-2 1-3 1-4 neighbors ...
  special bond factors lj:    0        0        0       
  special bond factors coul:  0        0        0       
     0 = max # of 1-2 neighbors
     0 = max # of 1-3 neighbors
     0 = max # of 1-4 neighbors
     1 = max # of special neighbors
  special bonds CPU = 0.000 seconds
  read_restart CPU = 0.004 seconds
*****Positive-change 2 starts.*****
Resetting global fix info from restart file:
  fix style: nvt, fix ID: 4
Changing box ...
WARNING: Triclinic box skew is large. LAMMPS will run inefficiently. (src/domain.cpp:220)
  triclinic box = (0 0 0) to (15.724 14.042131 17.2465) with tilt (-7.584 0.1778 0.4371)
WARNING: Triclinic box skew is large. LAMMPS will run inefficiently. (src/domain.cpp:220)
  triclinic box = (0 0 0) to (15.724 14.042131 17.2465) with tilt (-7.584 0.1778 0.441471)
All restart file global fix info was re-assigned
Neighbor list info ...
  update: every = 10 steps, delay = 0 steps, check = no
  max neighbors/atom: 2000, page size: 100000
  master list distance cutoff = 12
  ghost atom cutoff = 12
  binsize = 6, bins = 4 3 3
  2 neighbor lists, perpetual/occasional/extra = 2 0 0
  (1) pair reaxff, perpetual
      attributes: half, newton off, ghost
      pair build: half/bin/newtoff/ghost
      stencil: full/ghost/bin/3d
      bin: standard
  (2) fix qeq/reaxff, perpetual, copy from (1)
      attributes: half, newton off
      pair build: copy
      stencil: none
      bin: none
Setting up Verlet run ...
  Unit style    : real
  Current step  : 0
  Time step     : 0.5
Per MPI rank memory allocation (min/avg/max) = 129.8 | 131.8 | 134 Mbytes
   Step          Temp          PotEng         Press        f_avgp[1]        Volume    
         0   307.28953     -44389.542     -41258.813      0              3808.0008    
       100   310.20294     -44392.575     -15944.43      -6202.0104      3808.0008    
       200   299.88576     -44389.894     -10995.25      -2312.7494      3808.0008    
       300   289.53757     -44385.084     -11478.597     -4995.846       3808.0008    
       400   312.82109     -44401.462     -12475.204     -8454.9996      3808.0008    
       500   317.32911     -44386.786     -4450.282      -7795.6481      3808.0008    
       600   305.74317     -44369.408     -6990.821      -5221.7381      3808.0008    
       700   302.22414     -44397.475     -5947.0814     -6119.2896      3808.0008    
       800   284.154       -44395.888     -15814.186     -9308.5686      3808.0008    
       900   307.57147     -44421.265     -11422.54      -7987.7291      3808.0008    
      1000   297.52018     -44413.262     -3719.3982     -5147.0626      3808.0008    
      1100   278.79937     -44396.489     -4447.3811     -5833.1721      3808.0008    
      1200   291.87341     -44390.355     -6730.7889     -3307.1159      3808.0008    
      1300   301.15151     -44378.144     -6898.1287     -9703.9388      3808.0008    
      1400   319.81652     -44397.106     -18281.913     -7096.8671      3808.0008    
      1500   287.41635     -44391.973     -5854.2907     -5702.2139      3808.0008    
      1600   281.61697     -44393.085     -15325.528     -6075.0904      3808.0008    
      1700   291.42703     -44398.263     -3934.7622     -2647.0003      3808.0008    
      1800   303.05726     -44409.609     -8387.2813     -7094.2583      3808.0008    
      1900   272.96463     -44382.507     -13187.015     -3961.9123      3808.0008    
      2000   298.82695     -44392.008     -13808.551     -5046.9463      3808.0008    
      2100   311.21899     -44372.039     -20999.537     -10412.273      3808.0008    
      2200   309.94691     -44374.256     -12436.034     -12227.373      3808.0008    
      2300   305.85061     -44385.609     -7786.0039     -5952.8916      3808.0008    
      2400   309.39737     -44406.377     -17684.086     -6666.3445      3808.0008    
      2500   315.80004     -44415.164     -12653.21      -9916.7773      3808.0008    
      2600   302.16276     -44381.493     -4191.035      -8684.5055      3808.0008    
      2700   329.48453     -44378.514     -7510.8472     -6074.6825      3808.0008    
      2800   312.64395     -44373.343     -17491.841     -6923.1803      3808.0008    
      2900   311.52467     -44388.556     -6980.4782     -5840.8048      3808.0008    
      3000   309.14483     -44395.05      -10172.748     -10280.344      3808.0008    
Loop time of 161.442 on 8 procs for 3000 steps with 366 atoms

Performance: 0.803 ns/day, 29.897 hours/ns, 18.582 timesteps/s, 6.801 katom-step/s
99.0% CPU use with 8 MPI tasks x 1 OpenMP threads

MPI task timing breakdown:
Section |  min time  |  avg time  |  max time  |%varavg| %total
---------------------------------------------------------------
Pair    | 95.695     | 128.81     | 135.73     | 111.8 | 79.78
Bond    | 0.0084583  | 0.0091634  | 0.010148   |   0.5 |  0.01
Neigh   | 8.0005     | 10.538     | 11.218     |  30.3 |  6.53
Comm    | 2.3944     | 9.312      | 42.407     | 415.7 |  5.77
Output  | 0.0074013  | 0.0093908  | 0.010785   |   1.2 |  0.01
Modify  | 11.996     | 12.69      | 15.252     |  27.8 |  7.86
Other   |            | 0.07768    |            |       |  0.05

Nlocal:          45.75 ave          51 max          36 min
Histogram: 1 0 0 0 1 0 2 1 1 2
Nghost:        3371.38 ave        3424 max        3316 min
Histogram: 1 0 1 2 0 0 1 1 1 1
Neighs:          30728 ave       34073 max       24394 min
Histogram: 1 0 0 1 0 0 2 1 1 2

Total # of neighbors = 245824
Ave neighs/atom = 671.65027
Ave special neighs/atom = 0
Neighbor list builds = 300
Dangerous builds not checked
*****Equilibration pos2 starts.*****
WARNING: New thermo_style command, previous thermo_modify settings will be lost (src/output.cpp:903)
Neighbor list info ...
  update: every = 10 steps, delay = 0 steps, check = no
  max neighbors/atom: 2000, page size: 100000
  master list distance cutoff = 12
  ghost atom cutoff = 12
  binsize = 6, bins = 4 3 3
  2 neighbor lists, perpetual/occasional/extra = 2 0 0
  (1) pair reaxff, perpetual
      attributes: half, newton off, ghost
      pair build: half/bin/newtoff/ghost
      stencil: full/ghost/bin/3d
      bin: standard
  (2) fix qeq/reaxff, perpetual, copy from (1)
      attributes: half, newton off
      pair build: copy
      stencil: none
      bin: none
Setting up Verlet run ...
  Unit style    : real
  Current step  : 0
  Time step     : 0.5
Per MPI rank memory allocation (min/avg/max) = 129.8 | 131.8 | 134.1 Mbytes
   Step          Temp          PotEng         Press        f_avgp[1]        Volume    
         0   309.14483     -44395.05      -10172.721      0              3808.0008    
       100   286.07107     -44382.245     -3577.505      -9524.7694      3808.0008    
       200   270.83142     -44394.742     -6840.9545     -6155.3405      3808.0008    
       300   297.07137     -44420.57      -12112.803     -5002.0905      3808.0008    
       400   288.52307     -44398.513     -12028.361     -8192.4424      3808.0008    
       500   296.64434     -44398.612     -7820.6168     -12010.648      3808.0008    
       600   316.82743     -44411.387     -1654.7844     -2706.6307      3808.0008    
       700   287.77158     -44383.825     -1279.8523     -6879.3062      3808.0008    
       800   287.23013     -44374.075     -564.89002     -5880.32        3808.0008    
       900   317.09172     -44389.407     -4894.7903     -8673.6527      3808.0008    
      1000   308.41858     -44367.96      -5842.3039     -7940.4969      3808.0008    
      1100   286.17224     -44353.398     -12482.586     -1633.997       3808.0008    
      1200   299.83079     -44402.698     -4400.3129     -12685.284      3808.0008    
      1300   294.56401     -44409.666     -3148.9712     -9239.9942      3808.0008    
      1400   294.48784     -44406.948     -5160.483      -5349.7962      3808.0008    
      1500   287.38677     -44377.064      301.8596      -9705.4978      3808.0008    
      1600   307.76495     -44371.408     -6943.9656     -8198.9388      3808.0008    
      1700   305.78804     -44380.242     -6837.4579     -9823.2763      3808.0008    
      1800   290.74991     -44380.423      2163.6189     -5642.7257      3808.0008    
      1900   299.35739     -44409.065     -1243.5129     -6575.3745      3808.0008    
      2000   295.2113      -44426.528     -454.80814     -3440.0699      3808.0008    
      2100   273.73056     -44426.543      307.69486     -6443.8533      3808.0008    
      2200   258.79686     -44435.765     -1623.1985     -6526.0605      3808.0008    
      2300   286.75849     -44442.146     -2906.5096     -7376.056       3808.0008    
      2400   292.03926     -44421.835      317.33167     -6239.6283      3808.0008    
      2500   300.1142      -44410.606     -13562.466     -11187.905      3808.0008    
      2600   299.79704     -44392.309     -5186.4422     -6443.9905      3808.0008    
      2700   289.9192      -44387.929     -6920.2912     -4399.8916      3808.0008    
      2800   293.81048     -44422.182     -4794.209      -7696.7136      3808.0008    
      2900   297.7709      -44442.376     -6086.7223     -9700.0247      3808.0008    
      3000   276.68441     -44415.366     -9090.3093     -9624.6657      3808.0008    
Loop time of 161.129 on 8 procs for 3000 steps with 366 atoms

Performance: 0.804 ns/day, 29.839 hours/ns, 18.619 timesteps/s, 6.814 katom-step/s
99.0% CPU use with 8 MPI tasks x 1 OpenMP threads

MPI task timing breakdown:
Section |  min time  |  avg time  |  max time  |%varavg| %total
---------------------------------------------------------------
Pair    | 96.232     | 127.6      | 135.28     | 109.1 | 79.19
Bond    | 0.008496   | 0.0091274  | 0.0099934  |   0.5 |  0.01
Neigh   | 7.9511     | 10.368     | 11.039     |  29.7 |  6.43
Comm    | 2.8433     | 10.531     | 41.886     | 379.7 |  6.54
Output  | 0.0013125  | 0.0015706  | 0.0028261  |   1.2 |  0.00
Modify  | 11.857     | 12.543     | 14.98      |  27.2 |  7.78
Other   |            | 0.07692    |            |       |  0.05

Nlocal:          45.75 ave          55 max          38 min
Histogram: 1 1 2 0 1 0 0 2 0 1
Nghost:        3388.75 ave        3441 max        3332 min
Histogram: 1 0 2 0 1 0 1 1 1 1
Neighs:        30708.8 ave       36607 max       25746 min
Histogram: 1 1 2 0 1 0 0 2 0 1

Total # of neighbors = 245670
Ave neighs/atom = 671.22951
Ave special neighs/atom = 0
Neighbor list builds = 300
Dangerous builds not checked
OMP_NUM_THREADS environment is not set. Defaulting to 1 thread. (src/comm.cpp:98)
  using 1 OpenMP thread(s) per MPI task
Reading restart file ...
  restart file = 2 Aug 2023, LAMMPS = 2 Aug 2023
  restoring atom style full from restart
  triclinic box = (0 0 0) to (15.724 13.9031 17.2465) with tilt (-7.584 0.1778 0.4371)
WARNING: Triclinic box skew is large. LAMMPS will run inefficiently. (src/domain.cpp:220)
  2 by 2 by 2 MPI processor grid
  pair style reaxff stores no restart info
  366 atoms
Finding 1-2 1-3 1-4 neighbors ...
  special bond factors lj:    0        0        0       
  special bond factors coul:  0        0        0       
     0 = max # of 1-2 neighbors
     0 = max # of 1-3 neighbors
     0 = max # of 1-4 neighbors
     1 = max # of special neighbors
  special bonds CPU = 0.000 seconds
  read_restart CPU = 0.003 seconds
*****Negative-change 3 starts.*****
Resetting global fix info from restart file:
  fix style: nvt, fix ID: 4
Changing box ...
WARNING: Triclinic box skew is large. LAMMPS will run inefficiently. (src/domain.cpp:220)
  triclinic box = (0 0 0) to (15.724 13.9031 17.074035) with tilt (-7.584 0.1778 0.4371)
All restart file global fix info was re-assigned
Neighbor list info ...
  update: every = 10 steps, delay = 0 steps, check = no
  max neighbors/atom: 2000, page size: 100000
  master list distance cutoff = 12
  ghost atom cutoff = 12
  binsize = 6, bins = 4 3 3
  2 neighbor lists, perpetual/occasional/extra = 2 0 0
  (1) pair reaxff, perpetual
      attributes: half, newton off, ghost
      pair build: half/bin/newtoff/ghost
      stencil: full/ghost/bin/3d
      bin: standard
  (2) fix qeq/reaxff, perpetual, copy from (1)
      attributes: half, newton off
      pair build: copy
      stencil: none
      bin: none
Setting up Verlet run ...
  Unit style    : real
  Current step  : 0
  Time step     : 0.5
Per MPI rank memory allocation (min/avg/max) = 131.5 | 133.7 | 136.3 Mbytes
   Step          Temp          PotEng         Press        f_avgp[1]        Volume    
         0   307.28953     -44400.095      26961.899      0              3732.5948    
       100   309.97559     -44402.208     -783.07046      3110.3018      3732.5948    
       200   299.8863      -44395.139      3766.7978      4677.4253      3732.5948    
       300   297.75399     -44400.875     -3302.964       524.23566      3732.5948    
       400   289.81203     -44399.78      -3019.4659     -4263.8958      3732.5948    
       500   288.16285     -44398.256      7680.1419     -1017.0352      3732.5948    
       600   295.42647     -44392.586      225.85139      1402.0517      3732.5948    
       700   290.73588     -44370.241     -3112.4488     -163.36951      3732.5948    
       800   306.05379     -44372.463     -1216.3619     -792.56774      3732.5948    
       900   291.74325     -44369.519      409.31069      1849.7959      3732.5948    
      1000   288.15888     -44398.268     -5374.1112     -323.63178      3732.5948    
      1100   275.43645     -44389.012      4090.9605      2947.2201      3732.5948    
      1200   296.75203     -44399.54      -3094.4396      4132.2618      3732.5948    
      1300   320.94107     -44396.615      7413.5325     -1065.0219      3732.5948    
      1400   330.00026     -44394.825     -23.278232      791.04298      3732.5948    
      1500   288.02932     -44395.531      2661.7078     -2801.2498      3732.5948    
      1600   282.98463     -44407.134     -2574.5561     -2527.0261      3732.5948    
      1700   304.9493      -44422.156      6806.5401      3438.3043      3732.5948    
      1800   301.35201     -44399.578      6419.5115      3873.5401      3732.5948    
      1900   298.96167     -44378.164      2129.7125     -1381.377       3732.5948    
      2000   309.73453     -44371.289      4910.8953      2222.753       3732.5948    
      2100   327.40567     -44398.382     -6336.9338     -1459.3313      3732.5948    
      2200   275.84231     -44384.936      6726.5053     -3926.6488      3732.5948    
      2300   282.54986     -44403.845      3292.8608     -418.85954      3732.5948    
      2400   297.93022     -44410.779      4273.33        3259.1404      3732.5948    
      2500   304.45485     -44392.023     -2129.8083     -2206.2644      3732.5948    
      2600   308.65154     -44390.517      9565.9941      2473.7291      3732.5948    
      2700   297.53422     -44402.557      2247.4097      2503.406       3732.5948    
      2800   281.82892     -44419.489     -3833.4573     -5058.8485      3732.5948    
      2900   312.66251     -44443.574     -3708.2077     -8721.5469      3732.5948    
      3000   301.28877     -44411.059     -6148.4893      1295.7633      3732.5948    
Loop time of 166.914 on 8 procs for 3000 steps with 366 atoms

Performance: 0.776 ns/day, 30.910 hours/ns, 17.973 timesteps/s, 6.578 katom-step/s
99.1% CPU use with 8 MPI tasks x 1 OpenMP threads

MPI task timing breakdown:
Section |  min time  |  avg time  |  max time  |%varavg| %total
---------------------------------------------------------------
Pair    | 99.107     | 133.19     | 141.63     | 113.7 | 79.80
Bond    | 0.0086099  | 0.0092996  | 0.010269   |   0.5 |  0.01
Neigh   | 8.1647     | 10.725     | 11.374     |  30.3 |  6.43
Comm    | 1.7907     | 10.251     | 44.317     | 409.6 |  6.14
Output  | 0.0071419  | 0.0089534  | 0.010286   |   1.2 |  0.01
Modify  | 11.999     | 12.653     | 15.238     |  28.1 |  7.58
Other   |            | 0.07689    |            |       |  0.05

Nlocal:          45.75 ave          53 max          39 min
Histogram: 1 0 1 2 1 0 0 2 0 1
Nghost:        3427.38 ave        3499 max        3350 min
Histogram: 1 0 1 2 0 0 0 3 0 1
Neighs:        31398.9 ave       36037 max       26952 min
Histogram: 1 0 1 2 1 0 0 2 0 1

Total # of neighbors = 251191
Ave neighs/atom = 686.31421
Ave special neighs/atom = 0
Neighbor list builds = 300
Dangerous builds not checked
*****Equilibration neg3 starts.*****
WARNING: New thermo_style command, previous thermo_modify settings will be lost (src/output.cpp:903)
Neighbor list info ...
  update: every = 10 steps, delay = 0 steps, check = no
  max neighbors/atom: 2000, page size: 100000
  master list distance cutoff = 12
  ghost atom cutoff = 12
  binsize = 6, bins = 4 3 3
  2 neighbor lists, perpetual/occasional/extra = 2 0 0
  (1) pair reaxff, perpetual
      attributes: half, newton off, ghost
      pair build: half/bin/newtoff/ghost
      stencil: full/ghost/bin/3d
      bin: standard
  (2) fix qeq/reaxff, perpetual, copy from (1)
      attributes: half, newton off
      pair build: copy
      stencil: none
      bin: none
Setting up Verlet run ...
  Unit style    : real
  Current step  : 0
  Time step     : 0.5
Per MPI rank memory allocation (min/avg/max) = 131.5 | 133.7 | 136.4 Mbytes
   Step          Temp          PotEng         Press        f_avgp[1]        Volume    
         0   301.28877     -44411.059     -6148.6407      0              3732.5948    
       100   309.38716     -44413.298      1628.1536     -7600.6586      3732.5948    
       200   296.85638     -44410.577      3511.4004     -2563.1951      3732.5948    
       300   278.03159     -44425.172      7074.7925     -1661.3315      3732.5948    
       400   272.14789     -44427.356      4367.3386     -2278.4998      3732.5948    
       500   299.37146     -44432.442     -3134.2784     -1868.4797      3732.5948    
       600   301.24144     -44418.045      6327.673       831.93209      3732.5948    
       700   310.12021     -44426.611      305.20271     -5040.6797      3732.5948    
       800   308.44982     -44429.094      588.18034     -3033.8694      3732.5948    
       900   296.66004     -44438.226      5324.9464     -1814.174       3732.5948    
      1000   278.47183     -44445.651     -6034.1584     -4408.8246      3732.5948    
      1100   283.7821      -44440.322     -1210.3137     -5349.67        3732.5948    
      1200   292.15898     -44424.873     -594.26654     -5543.1851      3732.5948    
      1300   307.79846     -44432.719      2728.4102     -4886.4157      3732.5948    
      1400   292.26288     -44412.529     -3194.6171      3791.737       3732.5948    
      1500   312.74141     -44426.18      -4947.6741      2022.1691      3732.5948    
      1600   283.52201     -44414.884     -1789.4936     -3793.9342      3732.5948    
      1700   290.79078     -44446.968     -3144.7161     -7201.1109      3732.5948    
      1800   288.50193     -44437.233     -12178.084     -9607.7364      3732.5948    
      1900   284.82069     -44404.731      2332.3718     -5697.5715      3732.5948    
      2000   304.11373     -44422.754     -5620.1132     -3819.9828      3732.5948    
      2100   305.48826     -44424.224     -5176.4331     -4712.5863      3732.5948    
      2200   293.62795     -44424.891     -1163.4673      1680.6712      3732.5948    
      2300   289.3509      -44451.758     -5319.4462     -3354.9983      3732.5948    
      2400   286.45791     -44454.959     -5486.8384     -681.04287      3732.5948    
      2500   285.23411     -44420.954     -7902.3732     -7107.1086      3732.5948    
      2600   299.24135     -44415.06       138.10151      424.8815       3732.5948    
      2700   311.31541     -44429.515     -474.86881      1763.3473      3732.5948    
      2800   284.63838     -44416.821     -244.20891     -4604.264       3732.5948    
      2900   300.71821     -44449.483     -13419.968     -5663.721       3732.5948    
      3000   291.36174     -44442.111      3430.0332     -3159.3932      3732.5948    
Loop time of 168.447 on 8 procs for 3000 steps with 366 atoms

Performance: 0.769 ns/day, 31.194 hours/ns, 17.810 timesteps/s, 6.518 katom-step/s
99.1% CPU use with 8 MPI tasks x 1 OpenMP threads

MPI task timing breakdown:
Section |  min time  |  avg time  |  max time  |%varavg| %total
---------------------------------------------------------------
Pair    | 100.33     | 135.63     | 141.98     | 115.2 | 80.52
Bond    | 0.0084602  | 0.0092603  | 0.010601   |   0.7 |  0.01
Neigh   | 8.1929     | 10.808     | 11.48      |  30.4 |  6.42
Comm    | 2.7003     | 9.0607     | 44.353     | 445.5 |  5.38
Output  | 0.00134    | 0.0015527  | 0.0026886  |   1.1 |  0.00
Modify  | 12.177     | 12.853     | 15.49      |  28.1 |  7.63
Other   |            | 0.07917    |            |       |  0.05

Nlocal:          45.75 ave          52 max          38 min
Histogram: 1 1 0 0 1 2 0 0 0 3
Nghost:         3416.5 ave        3481 max        3347 min
Histogram: 1 1 1 0 0 2 0 1 1 1
Neighs:          31378 ave       35352 max       26351 min
Histogram: 1 1 0 0 1 2 0 0 0 3

Total # of neighbors = 251024
Ave neighs/atom = 685.85792
Ave special neighs/atom = 0
Neighbor list builds = 300
Dangerous builds not checked
OMP_NUM_THREADS environment is not set. Defaulting to 1 thread. (src/comm.cpp:98)
  using 1 OpenMP thread(s) per MPI task
Reading restart file ...
  restart file = 2 Aug 2023, LAMMPS = 2 Aug 2023
  restoring atom style full from restart
  triclinic box = (0 0 0) to (15.724 13.9031 17.2465) with tilt (-7.584 0.1778 0.4371)
WARNING: Triclinic box skew is large. LAMMPS will run inefficiently. (src/domain.cpp:220)
  2 by 2 by 2 MPI processor grid
  pair style reaxff stores no restart info
  366 atoms
Finding 1-2 1-3 1-4 neighbors ...
  special bond factors lj:    0        0        0       
  special bond factors coul:  0        0        0       
     0 = max # of 1-2 neighbors
     0 = max # of 1-3 neighbors
     0 = max # of 1-4 neighbors
     1 = max # of special neighbors
  special bonds CPU = 0.000 seconds
  read_restart CPU = 0.003 seconds
*****Positive-change 3 starts.*****
Resetting global fix info from restart file:
  fix style: nvt, fix ID: 4
Changing box ...
WARNING: Triclinic box skew is large. LAMMPS will run inefficiently. (src/domain.cpp:220)
  triclinic box = (0 0 0) to (15.724 13.9031 17.418965) with tilt (-7.584 0.1778 0.4371)
All restart file global fix info was re-assigned
Neighbor list info ...
  update: every = 10 steps, delay = 0 steps, check = no
  max neighbors/atom: 2000, page size: 100000
  master list distance cutoff = 12
  ghost atom cutoff = 12
  binsize = 6, bins = 4 3 3
  2 neighbor lists, perpetual/occasional/extra = 2 0 0
  (1) pair reaxff, perpetual
      attributes: half, newton off, ghost
      pair build: half/bin/newtoff/ghost
      stencil: full/ghost/bin/3d
      bin: standard
  (2) fix qeq/reaxff, perpetual, copy from (1)
      attributes: half, newton off
      pair build: copy
      stencil: none
      bin: none
Setting up Verlet run ...
  Unit style    : real
  Current step  : 0
  Time step     : 0.5
Per MPI rank memory allocation (min/avg/max) = 130 | 132.4 | 135 Mbytes
   Step          Temp          PotEng         Press        f_avgp[1]        Volume    
         0   307.28953     -44393.898     -42102.105      0              3808.0008    
       100   307.59381     -44394.562     -15012.432     -9189.9368      3808.0008    
       200   288.9127      -44380.005      159.77056     -5495.7263      3808.0008    
       300   301.10583     -44392.188     -16144.646     -6117.2793      3808.0008    
       400   314.86255     -44392.675     -15439.471     -13232.576      3808.0008    
       500   318.01584     -44384.912     -5840.1968     -8148.7381      3808.0008    
       600   303.27978     -44388.937      86.188788     -5966.9818      3808.0008    
       700   285.80537     -44395.11      -7274.5676     -9557.6387      3808.0008    
       800   292.3643      -44401.168     -10782.02      -5727.0981      3808.0008    
       900   309.703       -44404.723     -12892.131     -6791.1196      3808.0008    
      1000   323.06702     -44399.986     -6168.0864     -7881.8085      3808.0008    
      1100   316.17668     -44365.751     -37.53036      -5261.3788      3808.0008    
      1200   324.75079     -44377.467     -6291.0619     -2416.7996      3808.0008    
      1300   303.29118     -44391.598     -5538.9686     -7416.5368      3808.0008    
      1400   304.32147     -44408.14      -5919.3426     -11706.684      3808.0008    
      1500   297.67561     -44405.518     -5666.0466     -14736.354      3808.0008    
      1600   294.84827     -44393.318     -14651.558     -9818.9316      3808.0008    
      1700   304.88343     -44374.834     -18073.276     -6185.1562      3808.0008    
      1800   309.69222     -44376.869     -1636.7068     -5722.803       3808.0008    
      1900   292.02059     -44392.523     -3434.9374     -6184.365       3808.0008    
      2000   289.76627     -44407.116     -6399.0933     -5736.9881      3808.0008    
      2100   305.79571     -44411.42      -5554.2686     -9749.3167      3808.0008    
      2200   330.54277     -44417.619     -4311.5234     -12513          3808.0008    
      2300   303.11081     -44383.78      -8507.1332     -5683.085       3808.0008    
      2400   307.9032      -44412.151     -1464.5501     -5453.0177      3808.0008    
      2500   284.72287     -44415.943     -15652.1       -9704.6361      3808.0008    
      2600   289.61835     -44409.378     -3333.1554     -9649.4328      3808.0008    
      2700   298.66893     -44401.875     -5916.7352     -2112.1149      3808.0008    
      2800   307.75266     -44394.326     -445.75196     -8828.091       3808.0008    
      2900   303.68454     -44388.083     -9433.9621     -6592.2514      3808.0008    
      3000   286.47418     -44407.108     -14343.817     -6404.0577      3808.0008    
Loop time of 162.944 on 8 procs for 3000 steps with 366 atoms

Performance: 0.795 ns/day, 30.175 hours/ns, 18.411 timesteps/s, 6.739 katom-step/s
99.0% CPU use with 8 MPI tasks x 1 OpenMP threads

MPI task timing breakdown:
Section |  min time  |  avg time  |  max time  |%varavg| %total
---------------------------------------------------------------
Pair    | 97.108     | 131.16     | 137.38     | 112.7 | 80.50
Bond    | 0.0085047  | 0.0092202  | 0.010311   |   0.6 |  0.01
Neigh   | 8.0406     | 10.662     | 11.241     |  30.6 |  6.54
Comm    | 2.3115     | 8.5171     | 42.552     | 442.2 |  5.23
Output  | 0.0067723  | 0.0086297  | 0.0099157  |   1.2 |  0.01
Modify  | 11.922     | 12.506     | 15.153     |  28.5 |  7.68
Other   |            | 0.07893    |            |       |  0.05

Nlocal:          45.75 ave          52 max          39 min
Histogram: 1 1 0 1 1 1 0 1 1 1
Nghost:        3385.88 ave        3447 max        3327 min
Histogram: 1 0 3 0 0 0 1 2 0 1
Neighs:        30733.5 ave       34554 max       26376 min
Histogram: 1 1 0 0 2 1 0 1 1 1

Total # of neighbors = 245868
Ave neighs/atom = 671.77049
Ave special neighs/atom = 0
Neighbor list builds = 300
Dangerous builds not checked
*****Equilibration pos3 starts.*****
WARNING: New thermo_style command, previous thermo_modify settings will be lost (src/output.cpp:903)
Neighbor list info ...
  update: every = 10 steps, delay = 0 steps, check = no
  max neighbors/atom: 2000, page size: 100000
  master list distance cutoff = 12
  ghost atom cutoff = 12
  binsize = 6, bins = 4 3 3
  2 neighbor lists, perpetual/occasional/extra = 2 0 0
  (1) pair reaxff, perpetual
      attributes: half, newton off, ghost
      pair build: half/bin/newtoff/ghost
      stencil: full/ghost/bin/3d
      bin: standard
  (2) fix qeq/reaxff, perpetual, copy from (1)
      attributes: half, newton off
      pair build: copy
      stencil: none
      bin: none
Setting up Verlet run ...
  Unit style    : real
  Current step  : 0
  Time step     : 0.5
Per MPI rank memory allocation (min/avg/max) = 130 | 132.4 | 135.1 Mbytes
   Step          Temp          PotEng         Press        f_avgp[1]        Volume    
         0   286.47418     -44407.108     -14343.998      0              3808.0008    
       100   302.44019     -44415.484     -6208.4432     -7272.6288      3808.0008    
       200   303.30576     -44382.328     -11114.104     -8279.0667      3808.0008    
       300   330.69711     -44400.512     -3611.8586     -2218.2183      3808.0008    
       400   286.43363     -44374.187     -8378.6783     -6984.5159      3808.0008    
       500   296.3361      -44397.591     -4808.6318     -7725.0166      3808.0008    
       600   305.79972     -44417.255     -8420.7374     -10883.928      3808.0008    
       700   273.18836     -44403.106     -1338.1841     -5696.5175      3808.0008    
       800   272.86582     -44416.591     -13486.261     -9580.0044      3808.0008    
       900   291.13062     -44406.65       219.34534     -6540.1069      3808.0008    
      1000   305.58771     -44400.666     -4384.9556     -5003.0054      3808.0008    
      1100   306.78673     -44400.065     -6992.8022     -1715.7542      3808.0008    
      1200   296.36869     -44398.514     -3675.8247     -5555.9242      3808.0008    
      1300   277.85241     -44390.97       601.2273      -7530.8021      3808.0008    
      1400   290.05406     -44408.422     -10526.936     -8935.4995      3808.0008    
      1500   306.47973     -44415.537     -10640.27      -9093.3507      3808.0008    
      1600   301.52966     -44392.811     -15215.966     -9396.6559      3808.0008    
      1700   304.0887      -44379.622     -12780.816     -8948.0516      3808.0008    
      1800   321.72611     -44403.08      -20494.521     -11212.243      3808.0008    
      1900   305.91854     -44420.533     -4960.5325     -9135.331       3808.0008    
      2000   288.58172     -44423.923     -4025.9806     -3002.3999      3808.0008    
      2100   290.14971     -44425.6       -14991.283     -8778.3068      3808.0008    
      2200   304.57561     -44417.564     -11480.995     -9074.8967      3808.0008    
      2300   306.85029     -44408.023     -6755.4217     -8801.9701      3808.0008    
      2400   298.66757     -44403.154     -704.425       -3202.1063      3808.0008    
      2500   293.85793     -44404.06      -11165.649     -9329.9675      3808.0008    
      2600   279.55641     -44394.208     -8665.7273     -7042.4224      3808.0008    
      2700   295.38489     -44399.097     -8628.8055     -5013.974       3808.0008    
      2800   324.46198     -44400.057     -8027.7113     -7352.2725      3808.0008    
      2900   315.32779     -44394.901     -2621.8811     -5192.9301      3808.0008    
      3000   302.16398     -44409.884     -10487.81      -8682.0674      3808.0008    
Loop time of 162.889 on 8 procs for 3000 steps with 366 atoms

Performance: 0.796 ns/day, 30.165 hours/ns, 18.417 timesteps/s, 6.741 katom-step/s
99.1% CPU use with 8 MPI tasks x 1 OpenMP threads

MPI task timing breakdown:
Section |  min time  |  avg time  |  max time  |%varavg| %total
---------------------------------------------------------------
Pair    | 97.469     | 127.64     | 136.84     | 113.8 | 78.36
Bond    | 0.0085286  | 0.0090998  | 0.010024   |   0.5 |  0.01
Neigh   | 8.0916     | 10.389     | 11.12      |  30.6 |  6.38
Comm    | 2.801      | 12.016     | 42.171     | 371.0 |  7.38
Output  | 0.001347   | 0.0015245  | 0.0025201  |   1.0 |  0.00
Modify  | 12.018     | 12.757     | 15.077     |  27.8 |  7.83
Other   |            | 0.07637    |            |       |  0.05

Nlocal:          45.75 ave          52 max          43 min
Histogram: 4 0 1 0 1 0 0 1 0 1
Nghost:           3419 ave        3488 max        3359 min
Histogram: 2 0 0 1 1 1 1 1 0 1
Neighs:          30738 ave       34740 max       28821 min
Histogram: 4 0 1 0 1 0 0 1 0 1

Total # of neighbors = 245904
Ave neighs/atom = 671.86885
Ave special neighs/atom = 0
Neighbor list builds = 300
Dangerous builds not checked
OMP_NUM_THREADS environment is not set. Defaulting to 1 thread. (src/comm.cpp:98)
  using 1 OpenMP thread(s) per MPI task
Reading restart file ...
  restart file = 2 Aug 2023, LAMMPS = 2 Aug 2023
  restoring atom style full from restart
  triclinic box = (0 0 0) to (15.724 13.9031 17.2465) with tilt (-7.584 0.1778 0.4371)
WARNING: Triclinic box skew is large. LAMMPS will run inefficiently. (src/domain.cpp:220)
  2 by 2 by 2 MPI processor grid
  pair style reaxff stores no restart info
  366 atoms
Finding 1-2 1-3 1-4 neighbors ...
  special bond factors lj:    0        0        0       
  special bond factors coul:  0        0        0       
     0 = max # of 1-2 neighbors
     0 = max # of 1-3 neighbors
     0 = max # of 1-4 neighbors
     1 = max # of special neighbors
  special bonds CPU = 0.000 seconds
  read_restart CPU = 0.003 seconds
*****Negative-change 4 starts.*****
Resetting global fix info from restart file:
  fix style: nvt, fix ID: 4
Changing box ...
WARNING: Triclinic box skew is large. LAMMPS will run inefficiently. (src/domain.cpp:220)
  triclinic box = (0 0 0) to (15.724 13.9031 17.2465) with tilt (-7.584 0.1778 0.264635)
All restart file global fix info was re-assigned
Neighbor list info ...
  update: every = 10 steps, delay = 0 steps, check = no
  max neighbors/atom: 2000, page size: 100000
  master list distance cutoff = 12
  ghost atom cutoff = 12
  binsize = 6, bins = 4 3 3
  2 neighbor lists, perpetual/occasional/extra = 2 0 0
  (1) pair reaxff, perpetual
      attributes: half, newton off, ghost
      pair build: half/bin/newtoff/ghost
      stencil: full/ghost/bin/3d
      bin: standard
  (2) fix qeq/reaxff, perpetual, copy from (1)
      attributes: half, newton off
      pair build: copy
      stencil: none
      bin: none
Setting up Verlet run ...
  Unit style    : real
  Current step  : 0
  Time step     : 0.5
Per MPI rank memory allocation (min/avg/max) = 130.8 | 133 | 135.4 Mbytes
   Step          Temp          PotEng         Press        f_avgp[1]        Volume    
         0   307.28953     -44410.353     -8116.949       0              3770.2978    
       100   304.48383     -44401.244     -8466.3187     -4611.1973      3770.2978    
       200   298.41529     -44381.25       349.08907      623.97029      3770.2978    
       300   326.57541     -44398.208     -11741.61      -1818.9936      3770.2978    
       400   309.22551     -44378.288     -10128.653     -5488.3007      3770.2978    
       500   303.65441     -44406.333     -4004.7169     -6423.3621      3770.2978    
       600   303.53075     -44420.43      -9354.8473     -3179.9059      3770.2978    
       700   293.34552     -44404.152     -5536.8749     -6151.1974      3770.2978    
       800   295.55328     -44387.28      -906.06043     -7061.6443      3770.2978    
       900   327.81422     -44385.024     -1584.2959     -10014.813      3770.2978    
      1000   303.39363     -44375.724      4644.8986     -4355.3616      3770.2978    
      1100   300.92374     -44394.666     -2207.378      -1463.5422      3770.2978    
      1200   318.61037     -44425.131      15043.186     -3122.5546      3770.2978    
      1300   293.01427     -44405.314     -11492.961     -4809.0304      3770.2978    
      1400   295.23827     -44415.549     -13797.483     -7882.7149      3770.2978    
      1500   285.8002      -44418.432      1953.2968     -10385.841      3770.2978    
      1600   277.17849     -44406.476     -6820.617      -6526.0574      3770.2978    
      1700   301.5507      -44403.383      2056.8214     -5171.7902      3770.2978    
      1800   296.75884     -44384.386      9599.6571      2644.9464      3770.2978    
      1900   305.79648     -44385.711      18400.784      3619.2261      3770.2978    
      2000   316.30485     -44408.603     -3116.3169     -4839.4767      3770.2978    
      2100   298.89398     -44431.444     -2463.1535     -4026.6056      3770.2978    
      2200   286.4546      -44415.194     -5974.4109     -11173.316      3770.2978    
      2300   283.12974     -44386.113     -9763.5926     -4721.9346      3770.2978    
      2400   322.15759     -44410.835      443.31938     -3685.8903      3770.2978    
      2500   318.09056     -44413.675     -1560.3309     -7088.0622      3770.2978    
      2600   299.68572     -44418.532     -4102.6927     -5401.4273      3770.2978    
      2700   319.30179     -44439.903     -3741.6591     -6559.5928      3770.2978    
      2800   287.66065     -44406.597     -10293.449     -5826.8758      3770.2978    
      2900   317.20825     -44433.784      378.31258     -3644.7077      3770.2978    
      3000   294.21799     -44405.219     -5093.9104     -3293.0845      3770.2978    
Loop time of 165.271 on 8 procs for 3000 steps with 366 atoms

Performance: 0.784 ns/day, 30.606 hours/ns, 18.152 timesteps/s, 6.644 katom-step/s
99.1% CPU use with 8 MPI tasks x 1 OpenMP threads

MPI task timing breakdown:
Section |  min time  |  avg time  |  max time  |%varavg| %total
---------------------------------------------------------------
Pair    | 98.502     | 128.07     | 139.72     | 146.5 | 77.49
[...]
      attributes: half, newton off
      pair build: copy
      stencil: none
      bin: none
Setting up Verlet run ...
  Unit style    : real
  Current step  : 0
  Time step     : 0.5
Per MPI rank memory allocation (min/avg/max) = 131.4 | 133.7 | 136.6 Mbytes
   Step          Temp          PotEng         Press        f_avgp[1]        Volume    
         0   307.28953     -44409.466     -5737.2831      0              3770.2978    
       100   295.5644      -44390.978     -12652.478     -4270.0312      3770.2978    
       200   301.80271     -44383.173     -4025.6197     -1427.5126      3770.2978    
       300   321.97568     -44391.783     -5572.8101      278.34156      3770.2978    
       400   320.86272     -44397.558     -7189.3961     -6060.5823      3770.2978    
       500   309.26429     -44421.17      -5556.832      -6914.4513      3770.2978    
       600   295.17694     -44419.565     -9409.6462     -4152.214       3770.2978    
       700   297.65997     -44418.2        3208.9466     -3751.0259      3770.2978    
       800   298.79129     -44396.292     -10672.35      -1159.2754      3770.2978    
       900   322.47755     -44391.477      5605.8381     -5684.1496      3770.2978    
      1000   322.0228      -44397.144     -855.16189     -1983.7265      3770.2978    
      1100   308.43297     -44397.722     -661.97853     -1960.5154      3770.2978    
      1200   301.47679     -44402.079     -6706.8902     -1473.4101      3770.2978    
      1300   298.77239     -44414.761     -10133.475     -10723.564      3770.2978    
      1400   301.287       -44435.236     -6550.0031     -6457.5928      3770.2978    
      1500   265.7656      -44419.779     -3505.0875     -7581.929       3770.2978    
      1600   274.67397     -44418.097     -14122.869     -7589.7583      3770.2978    
      1700   306.19315     -44416.488     -5606.4634     -7718.4277      3770.2978    
      1800   310.20808     -44411.016     -6142.8624     -6301.4941      3770.2978    
      1900   294.85489     -44391.377      920.49514     -1790.0067      3770.2978    
      2000   300.05344     -44400.471      936.2634      -3663.5548      3770.2978    
      2100   306.08416     -44429.091      922.92889     -5794.23        3770.2978    
      2200   269.98238     -44405.294     -6374.6611     -11461.493      3770.2978    
      2300   304.39903     -44419.654     -1755.7542     -8067.8539      3770.2978    
      2400   310.2618      -44400.652     -1101.3812     -3729.1235      3770.2978    
      2500   298.8175      -44389.487      3791.9123     -6458.9026      3770.2978    
      2600   309.97879     -44411.788     -6470.6046     -5666.7628      3770.2978    
      2700   286.93291     -44404.633      73.900859     -5123.4368      3770.2978    
      2800   289.69181     -44409.574     -10495.935     -7349.6891      3770.2978    
      2900   305.17075     -44400.427      6045.4088     -874.35649      3770.2978    
      3000   316.29376     -44389.741     -8330.8732     -8155.4271      3770.2978    
Loop time of 96.1307 on 8 procs for 3000 steps with 366 atoms

Performance: 1.348 ns/day, 17.802 hours/ns, 31.208 timesteps/s, 11.422 katom-step/s
98.8% CPU use with 8 MPI tasks x 1 OpenMP threads

MPI task timing breakdown:
Section |  min time  |  avg time  |  max time  |%varavg| %total
---------------------------------------------------------------
Pair    | 73.113     | 76.428     | 78.58      |  17.5 | 79.50
Bond    | 0.0064118  | 0.00685    | 0.00742    |   0.4 |  0.01
Neigh   | 7.7315     | 7.9542     | 8.1877     |   4.7 |  8.27
Comm    | 0.62754    | 2.7828     | 6.1002     |  92.1 |  2.89
Output  | 0.0044153  | 0.0059086  | 0.0069321  |   1.2 |  0.01
Modify  | 8.6543     | 8.887      | 9.1069     |   4.5 |  9.24
Other   |            | 0.06624    |            |       |  0.07

Nlocal:          45.75 ave          51 max          41 min
Histogram: 2 1 0 0 0 0 1 3 0 1
Nghost:        3449.12 ave        3548 max        3354 min
Histogram: 1 0 1 2 0 0 2 1 0 1
Neighs:        31062.4 ave       34414 max       28038 min
Histogram: 3 0 0 0 0 0 3 1 0 1

Total # of neighbors = 248499
Ave neighs/atom = 678.95902
Ave special neighs/atom = 0
Neighbor list builds = 300
Dangerous builds not checked
*****Equilibration neg6 starts.*****
WARNING: New thermo_style command, previous thermo_modify settings will be lost (src/output.cpp:903)
Neighbor list info ...
  update: every = 10 steps, delay = 0 steps, check = no
  max neighbors/atom: 2000, page size: 100000
  master list distance cutoff = 12
  ghost atom cutoff = 12
  binsize = 6, bins = 4 3 3
  2 neighbor lists, perpetual/occasional/extra = 2 0 0
  (1) pair reaxff, perpetual
      attributes: half, newton off, ghost
      pair build: half/bin/newtoff/ghost
      stencil: full/ghost/bin/3d
      bin: standard
  (2) fix qeq/reaxff, perpetual, copy from (1)
      attributes: half, newton off
      pair build: copy
      stencil: none
      bin: none
Setting up Verlet run ...
  Unit style    : real
  Current step  : 0
  Time step     : 0.5
Per MPI rank memory allocation (min/avg/max) = 131.4 | 133.6 | 136.5 Mbytes
   Step          Temp          PotEng         Press        f_avgp[1]        Volume    
         0   316.29376     -44389.741     -8330.9929      0              3770.2978    
       100   315.72282     -44389.852      1220.4509     -4970.6814      3770.2978    
       200   297.33269     -44405.668     -3361.9761      1510.6418      3770.2978    
       300   283.01555     -44406.838     -7692.8991     -5019.5873      3770.2978    
       400   295.64497     -44399.558     -8190.0302     -1552.528       3770.2978    
       500   321.68387     -44409.439     -6614.0301     -1875.6796      3770.2978    
       600   293.18266     -44392.688     -2683.0998     -2824.321       3770.2978    
       700   304.08866     -44420.586     -8076.0558     -10613.772      3770.2978    
       800   309.0819      -44441.586     -15530.345     -7047.0314      3770.2978    
       900   285.94461     -44456.146     -6539.7045     -7543.8051      3770.2978    
      1000   272.09283     -44437.985     -8371.8616     -3002.8892      3770.2978    
      1100   282.86741     -44421.169     -4297.152      -9170.5608      3770.2978    
      1200   292.06482     -44408.921     -5912.5747     -8589.0966      3770.2978    
      1300   303.80348     -44405.595     -10018.355     -6690.3461      3770.2978    
      1400   302.00695     -44401.969     -4968.5186     -7328.0455      3770.2978    
      1500   293.7728      -44423.098     -23288.634     -4643.5175      3770.2978    
      1600   281.33476     -44419.618     -3182.5601     -2689.7942      3770.2978    
      1700   292.50296     -44415.523      2878.686      -5961.5512      3770.2978    
      1800   303.0505      -44418.214     -8313.5997     -6052.8912      3770.2978    
      1900   303.4392      -44413.716      1212.1643     -6199.4529      3770.2978    
      2000   307.95159     -44414.421     -5569.6621     -4111.8215      3770.2978    
      2100   284.83942     -44388.112     -9546.9115     -7344.4387      3770.2978    
      2200   300.04255     -44403.106      3023.3571     -7124.4685      3770.2978    
      2300   309.69203     -44411.573      3311.0111     -4031.9733      3770.2978    
      2400   296.8131      -44404.616      4712.2321     -6633.0444      3770.2978    
      2500   320.0798      -44447.428     -10152.17      -6366.306       3770.2978    
      2600   287.51304     -44431.61      -7838.3346     -3327.685       3770.2978    
      2700   281.46967     -44414.062     -12564.843     -9385.433       3770.2978    
      2800   303.29775     -44399.617     -3370.078      -8378.6154      3770.2978    
      2900   319.78275     -44413.87      -5121.5645     -4124.2529      3770.2978    
      3000   312.0734      -44424.412     -10373.858     -12054.055      3770.2978    
Loop time of 96.0541 on 8 procs for 3000 steps with 366 atoms

Performance: 1.349 ns/day, 17.788 hours/ns, 31.232 timesteps/s, 11.431 katom-step/s
98.8% CPU use with 8 MPI tasks x 1 OpenMP threads

MPI task timing breakdown:
Section |  min time  |  avg time  |  max time  |%varavg| %total
---------------------------------------------------------------
Pair    | 73.169     | 76.251     | 78.429     |  17.5 | 79.38
Bond    | 0.0063734  | 0.0068493  | 0.0073878  |   0.4 |  0.01
Neigh   | 7.7213     | 8.0113     | 8.2827     |   6.2 |  8.34
Comm    | 0.6217     | 2.8028     | 5.8883     |  91.5 |  2.92
Output  | 0.0010795  | 0.0012166  | 0.0017779  |   0.6 |  0.00
Modify  | 8.632      | 8.9147     | 9.2026     |   6.0 |  9.28
Other   |            | 0.06606    |            |       |  0.07

Nlocal:          45.75 ave          52 max          36 min
Histogram: 1 0 0 0 0 3 1 1 0 2
Nghost:           3425 ave        3506 max        3340 min
Histogram: 2 0 0 1 0 2 1 0 0 2
Neighs:        31057.6 ave       35091 max       24717 min
Histogram: 1 0 0 0 1 2 1 1 0 2

Total # of neighbors = 248461
Ave neighs/atom = 678.85519
Ave special neighs/atom = 0
Neighbor list builds = 300
Dangerous builds not checked
OMP_NUM_THREADS environment is not set. Defaulting to 1 thread. (src/comm.cpp:98)
  using 1 OpenMP thread(s) per MPI task
Reading restart file ...
  restart file = 2 Aug 2023, LAMMPS = 2 Aug 2023
  restoring atom style full from restart
  triclinic box = (0 0 0) to (15.724 13.9031 17.2465) with tilt (-7.584 0.1778 0.4371)
WARNING: Triclinic box skew is large. LAMMPS will run inefficiently. (src/domain.cpp:220)
  2 by 2 by 2 MPI processor grid
  pair style reaxff stores no restart info
  366 atoms
Finding 1-2 1-3 1-4 neighbors ...
  special bond factors lj:    0        0        0       
  special bond factors coul:  0        0        0       
     0 = max # of 1-2 neighbors
     0 = max # of 1-3 neighbors
     0 = max # of 1-4 neighbors
     1 = max # of special neighbors
  special bonds CPU = 0.000 seconds
  read_restart CPU = 0.002 seconds
*****Positive-change 6 starts.*****
Resetting global fix info from restart file:
  fix style: nvt, fix ID: 4
Changing box ...
WARNING: Triclinic box skew is large. LAMMPS will run inefficiently. (src/domain.cpp:220)
  triclinic box = (0 0 0) to (15.724 13.9031 17.2465) with tilt (-7.444969 0.1778 0.4371)
All restart file global fix info was re-assigned
Neighbor list info ...
  update: every = 10 steps, delay = 0 steps, check = no
  max neighbors/atom: 2000, page size: 100000
  master list distance cutoff = 12
  ghost atom cutoff = 12
  binsize = 6, bins = 4 3 3
  2 neighbor lists, perpetual/occasional/extra = 2 0 0
  (1) pair reaxff, perpetual
      attributes: half, newton off, ghost
      pair build: half/bin/newtoff/ghost
      stencil: full/ghost/bin/3d
      bin: standard
  (2) fix qeq/reaxff, perpetual, copy from (1)
      attributes: half, newton off
      pair build: copy
      stencil: none
      bin: none
Setting up Verlet run ...
  Unit style    : real
  Current step  : 0
  Time step     : 0.5
Per MPI rank memory allocation (min/avg/max) = 130.8 | 132.7 | 134.8 Mbytes
   Step          Temp          PotEng         Press        f_avgp[1]        Volume    
         0   307.28953     -44404.828     -9480.0605      0              3770.2978    
       100   306.02923     -44399.01      -8240.8327     -2870.2582      3770.2978    
       200   295.3496      -44378.277      3750.7772     -801.27074      3770.2978    
       300   314.96851     -44394.061      762.53546     -527.2983       3770.2978    
       400   306.62188     -44398.979     -10733.397     -6695.7275      3770.2978    
       500   303.94741     -44423.175      745.08919     -6011.4846      3770.2978    
       600   281.48551     -44402.021     -4620.8208     -8075.8329      3770.2978    
       700   287.37306     -44391.924     -8833.1021     -4864.0318      3770.2978    
       800   322.7747      -44391.103     -23088.77      -4521.5238      3770.2978    
       900   326.10636     -44394.825      4339.4238     -4645.7602      3770.2978    
      1000   296.22098     -44388.347     -5642.4435     -6815.6095      3770.2978    
      1100   286.97727     -44392.358     -8400.5447     -1216.0542      3770.2978    
      1200   302.28971     -44407.815     -8250.21        2165.0335      3770.2978    
      1300   309.69675     -44405.952     -9602.276      -9005.68        3770.2978    
      1400   322.47243     -44395.048     -4267.9157     -2644.9062      3770.2978    
      1500   305.788       -44387.437     -5857.3308     -3739.2951      3770.2978    
      1600   294.5805      -44409.089     -11825.924     -2788.9625      3770.2978    
      1700   291.57144     -44413.514     -6788.7708      1148.2832      3770.2978    
      1800   300.48102     -44409.915     -4328.5876     -5180.0435      3770.2978    
      1900   306.64561     -44398.301     -8098.6362     -4656.138       3770.2978    
      2000   318.70396     -44404.152      3015.8604     -2570.3612      3770.2978    
      2100   315.0436      -44409.256     -2824.9431     -4282.5369      3770.2978    
      2200   296.19023     -44404.207     -3203.5254     -4788.0276      3770.2978    
      2300   299.81541     -44421.836     -13955.424     -2737.3251      3770.2978    
      2400   288.23616     -44419.704     -14776.556     -4506.2257      3770.2978    
      2500   298.7575      -44422.374     -3573.1026     -6561.3802      3770.2978    
      2600   322.69275     -44416.092     -3749.7218     -3614.4065      3770.2978    
      2700   302.09582     -44388.483     -8597.2841     -316.18368      3770.2978    
      2800   323.37122     -44427.299     -10588.006     -4407.8468      3770.2978    
      2900   288.40917     -44419.663      6521.1818     -7377.4992      3770.2978    
      3000   271.38146     -44405.048      653.681       -7920.5673      3770.2978    
Loop time of 95.6902 on 8 procs for 3000 steps with 366 atoms

Performance: 1.354 ns/day, 17.720 hours/ns, 31.351 timesteps/s, 11.475 katom-step/s
98.8% CPU use with 8 MPI tasks x 1 OpenMP threads

MPI task timing breakdown:
Section |  min time  |  avg time  |  max time  |%varavg| %total
---------------------------------------------------------------
Pair    | 73.303     | 76.271     | 78.092     |  15.4 | 79.71
Bond    | 0.0062901  | 0.0067856  | 0.0072787  |   0.4 |  0.01
Neigh   | 7.7274     | 7.9505     | 8.1982     |   4.9 |  8.31
Comm    | 0.69554    | 2.522      | 5.4927     |  84.7 |  2.64
Output  | 0.0043642  | 0.0058488  | 0.0068217  |   1.2 |  0.01
Modify  | 8.6107     | 8.8685     | 9.089      |   4.7 |  9.27
Other   |            | 0.06607    |            |       |  0.07

Nlocal:          45.75 ave          52 max          41 min
Histogram: 2 0 1 1 1 1 0 0 1 1
Nghost:           3419 ave        3496 max        3354 min
Histogram: 1 1 1 1 0 2 0 1 0 1
Neighs:        31056.6 ave       35025 max       28011 min
Histogram: 2 0 1 0 2 1 0 0 1 1

Total # of neighbors = 248453
Ave neighs/atom = 678.83333
Ave special neighs/atom = 0
Neighbor list builds = 300
Dangerous builds not checked
*****Equilibration pos6 starts.*****
WARNING: New thermo_style command, previous thermo_modify settings will be lost (src/output.cpp:903)
Neighbor list info ...
  update: every = 10 steps, delay = 0 steps, check = no
  max neighbors/atom: 2000, page size: 100000
  master list distance cutoff = 12
  ghost atom cutoff = 12
  binsize = 6, bins = 4 3 3
  2 neighbor lists, perpetual/occasional/extra = 2 0 0
  (1) pair reaxff, perpetual
      attributes: half, newton off, ghost
      pair build: half/bin/newtoff/ghost
      stencil: full/ghost/bin/3d
      bin: standard
  (2) fix qeq/reaxff, perpetual, copy from (1)
      attributes: half, newton off
      pair build: copy
      stencil: none
      bin: none
Setting up Verlet run ...
  Unit style    : real
  Current step  : 0
  Time step     : 0.5
Per MPI rank memory allocation (min/avg/max) = 130.8 | 132.7 | 134.8 Mbytes
   Step          Temp          PotEng         Press        f_avgp[1]        Volume    
         0   271.38146     -44405.048      653.55428      0              3770.2978    
       100   274.33855     -44395.477      2699.2493     -8074.0375      3770.2978    
       200   320.10391     -44414.231     -2467.3581     -4985.7988      3770.2978    
       300   309.02597     -44402.187      7997.2942     -6144.7337      3770.2978    
       400   302.74279     -44406.862      2090.1622     -3241.2051      3770.2978    
       500   306.47766     -44425.79      -3101.1721     -7319.2935      3770.2978    
       600   295.61562     -44418.234     -391.59546     -7994.9999      3770.2978    
       700   286.2452      -44417.026     -11864.392     -4672.4765      3770.2978    
       800   297.02969     -44434.637     -8301.3702     -7195.7008      3770.2978    
       900   285.80727     -44413.428     -11900.691     -3120.0735      3770.2978    
      1000   289.16214     -44392.371      4030.673      -3897.4457      3770.2978    
      1100   299.9109      -44394.092     -4944.0432     -5117.4958      3770.2978    
      1200   295.67268     -44415.704     -5660.2593     -3359.9943      3770.2978    
      1300   286.33386     -44421.731      3421.7279     -1132.8881      3770.2978    
      1400   272.36584     -44398.765     -3573.8407     -4527.888       3770.2978    
      1500   314.24411     -44426.213     -3194.7675     -3963.6627      3770.2978    
      1600   309.39639     -44412.062     -12325.723     -10977.614      3770.2978    
      1700   302.62428     -44400.683     -8221.6951     -6307.7058      3770.2978    
      1800   296.06812     -44411.46       11473.642      634.69641      3770.2978    
      1900   300.0261      -44440.487      3510.2605     -4606.58        3770.2978    
      2000   300.97442     -44452.316      1600.9017     -9525.6732      3770.2978    
      2100   288.20336     -44429.842     -236.54464     -7722.7346      3770.2978    
      2200   307.10715     -44415.776     -4325.9413     -1945.5294      3770.2978    
      2300   308.86856     -44412.331     -429.45174     -2246.6072      3770.2978    
      2400   312.55025     -44424.678      6885.939      -1066.2872      3770.2978    
      2500   297.59685     -44428.48       334.04486     -2793.7203      3770.2978    
      2600   263.77494     -44424.167     -9488.0651     -9689.4769      3770.2978    
      2700   286.20261     -44462.695     -8877.1452     -5374.1023      3770.2978    
      2800   291.95127     -44429.327     -6995.4109     -6939.7544      3770.2978    
      2900   306.81425     -44428.213     -10698.485     -4366.0573      3770.2978    
      3000   297.94882     -44423.219     -13154.481     -7805.4864      3770.2978    
Loop time of 95.908 on 8 procs for 3000 steps with 366 atoms

Performance: 1.351 ns/day, 17.761 hours/ns, 31.280 timesteps/s, 11.448 katom-step/s
98.8% CPU use with 8 MPI tasks x 1 OpenMP threads

MPI task timing breakdown:
Section |  min time  |  avg time  |  max time  |%varavg| %total
---------------------------------------------------------------
Pair    | 73.649     | 76.724     | 78.459     |  15.3 | 80.00
Bond    | 0.0063418  | 0.0068551  | 0.0073126  |   0.4 |  0.01
Neigh   | 7.7034     | 7.9137     | 8.0937     |   4.3 |  8.25
Comm    | 0.6691     | 2.4075     | 5.4853     |  86.8 |  2.51
Output  | 0.001084   | 0.0012231  | 0.0017742  |   0.6 |  0.00
Modify  | 8.6106     | 8.7884     | 8.9977     |   4.1 |  9.16
Other   |            | 0.06623    |            |       |  0.07

Nlocal:          45.75 ave          50 max          40 min
Histogram: 1 0 0 1 2 1 0 0 0 3
Nghost:        3405.62 ave        3469 max        3343 min
Histogram: 1 1 0 1 1 1 1 0 0 2
Neighs:        31065.1 ave       33806 max       27386 min
Histogram: 1 0 1 0 3 0 0 0 0 3

Total # of neighbors = 248521
Ave neighs/atom = 679.01913
Ave special neighs/atom = 0
Neighbor list builds = 300
Dangerous builds not checked
Total wall time: 1:00:46
