LAMMPS data file via write_data, version 2 Aug 2023, timestep = 200000, units = real

271 atoms
4 atom types

0 14.7487 xlo xhi
0 13.4318 ylo yhi
0 16.6096 zlo zhi
-6.1972 -1.0047 -1.8606 xy xz yz

Masses

1 12.0107
2 1.00794
3 15.9994
4 28.0855

Atoms # full

3 1 4 1.149152432755423 0.4489183112715492 0.6436546762869634 4.837160673675573 0 0 0
4 1 4 0.4784605186334714 1.2868667365287279 3.422859109682601 5.496608443761836 0 0 0
120 1 1 -0.08213269252717928 0.5371809610920594 4.36406745538872 3.829920251952906 0 0 0
139 1 3 -0.7125513714355204 0.13580606746878232 0.11835178538302049 6.376699222116313 0 0 0
140 1 3 -0.6740395851850555 1.5492808832336418 1.8826515802924324 4.947649529336805 0 0 0
68 1 2 0.03882256931712724 -0.19827799139151212 3.7876631772998506 3.3161799330988635 0 0 0
119 1 1 -0.06710351662553005 -0.3611083638945274 3.670867000640308 6.655771240928117 0 0 0
2 1 4 0.8277652962084483 1.2502447756396402 -0.30451449435395417 7.524824765662472 0 1 0
67 1 2 0.07708201469396307 0.12264692847135583 5.34133612290424 4.184828511589431 0 0 0
69 1 2 0.07875671065916834 1.3330433574610485 4.498813888960958 3.1670513719724553 0 0 0
64 1 2 0.06266984141522308 -1.0293218277105476 2.9472886913818988 6.123133863615772 0 0 0
20 1 4 0.9129687607382787 2.3850353239928053 5.412279748517536 7.554131637504335 0 0 0
65 1 2 0.08390737235171437 -0.7919359598187868 4.663108479659637 6.438077029028885 0 0 0
126 1 1 -0.09853084054617631 -0.5899853116342532 5.6417720406737395 0.6060776858288733 0 0 0
66 1 2 0.1123453961888723 -0.03039771361898791 3.451797856763859 7.6920770202781785 0 0 0
226 2 3 -0.7196322745469196 -2.855283663639082 5.720507726937921 6.754158234118345 1 0 0
200 2 2 -0.04220854466763579 11.766340830093338 4.23442948140408 4.400838749714341 0 0 0
222 2 3 -0.7597780222259597 11.472821537308977 0.9529190428585015 5.490589482168056 0 0 0
219 2 3 -0.6671084708562609 11.701624571297835 1.0627306843946116 2.7207048836516945 0 0 0
217 2 1 -0.1099818364935775 9.34232763619301 4.996981126486225 5.483559110450114 0 0 0
211 2 2 0.0207335950237866 9.616820194730238 5.449536178497827 4.593116257765131 0 0 0
138 1 3 -0.7884948244205163 -0.900588246669558 1.139488291815704 4.095518365969982 0 0 0
83 1 2 0.03907818169823365 -1.6231434175147204 5.970803913669257 0.6775869379759794 0 0 0
196 2 4 1.119654708316514 10.548686908065655 1.642336195979742 6.653321506484028 0 0 0
18 1 4 0.4287112886466993 5.543536895645706 3.777901378260007 0.4521566713645658 0 0 0
266 21 2 0.04501760822937587 3.057387187119744 4.375064278209206 0.7578871943825319 0 0 1
203 2 2 0.09674827265675072 3.7137111392684465 2.840875546992835 8.000208598825093 0 0 0
202 2 2 0.12214760651382 3.850503238200879 2.085341431945694 6.3508725874365375 0 0 0
54 1 2 0.2460778701633174 5.93145456998677 6.314348333942595 0.34693678104572623 0 0 0
153 1 3 -0.6348858275777066 3.0686664156975456 4.213783789193678 6.015926277744589 0 0 0
52 1 2 0.2646740572811562 3.1485527726216773 4.905980808464536 5.27792212936659 0 0 0
12 1 4 1.037253791006899 6.286907783744801 0.24435067668059612 2.9986947076288164 0 1 0
13 1 4 0.6225850240055081 7.0494919247476915 1.424750324367218 0.41508457762113293 0 0 0
148 1 3 -0.7246672659058935 6.000765920551928 0.7690557738696463 1.5124093194931734 0 0 0
177 1 3 -0.6665176979112528 6.489724562893274 5.6775996041179075 1.0256304191607095 0 0 0
193 2 4 0.6271629417722842 6.08469185961966 1.790068488066984 7.578780598028555 0 0 0
213 2 1 -0.03106277522544406 3.9797070363842844 1.986500265919855 7.386359160773415 0 0 0
220 2 3 -0.8076747235951721 7.5759084650320645 0.8707314788003585 3.7502893479848676 0 0 0
221 2 3 -0.7154752500824498 6.65191394316496 2.0520752700546465 6.0638962015293085 0 0 0
33 1 4 0.6900924147064242 5.690703340898094 5.988695334254775 2.4912804093018277 0 0 0
134 1 1 -0.1081194181754646 5.357845987844 4.2288949455889195 3.6638136347200927 0 0 0
194 2 4 1.147532169628924 7.820821635391761 1.1568161565839232 5.376762384609398 0 0 0
107 1 2 0.07169442409966398 5.433258825388924 4.564534982470475 4.744262436527612 0 0 0
105 1 2 0.05240338730981652 6.195039302631659 3.59950778499032 3.460739127525944 0 0 0
106 1 2 0.04929533789300169 4.360399043720154 3.744957949627729 3.4150641355316984 0 0 0
201 2 2 0.1449326515694134 3.5333385825105785 1.058753139861969 7.824750808233481 0 0 0
264 19 2 0.05070790843860032 9.004482550625069 2.8669850994148858 0.9749476399815514 0 0 1
122 1 1 -0.08978104985486958 8.83143414496238 1.8374956057469491 1.2150318120624473 0 0 0
73 1 2 0.1060990804910345 8.706212917509532 1.6880955375393247 2.249365747649895 0 0 0
84 1 2 0.04358160088543063 -0.3429331850092017 4.765199937649424 1.2031798793631239 0 0 0
113 1 2 0.05877292949591761 8.84090391340974 5.945483841712577 1.444624173765551 0 0 0
252 13 2 0.05002541772586903 2.8951851395948927 0.764529180375317 1.7833502801827725 0 1 1
212 2 2 0.05787030264638954 8.877138249978058 5.62262126435596 6.209197532983331 0 0 0
265 20 2 0.08200944338219421 9.533146798384706 1.131560874910277 0.8409308687124334 0 0 1
210 2 2 0.09273690924124317 8.791872518095275 4.04795210012397 5.452079453320341 0 0 0
50 1 2 0.2788862952329205 2.93135151414769 -0.34911198273289507 5.762503700255456 0 0 0
225 2 3 -0.7389923882847469 11.25654375441376 3.068591820215774 6.914511654620798 0 0 0
197 2 4 0.660725344699043 11.21744657985609 4.44900098128055 6.025752659986441 0 0 0
192 2 4 1.044062140033278 12.284290373469068 1.4969496083066045 4.201207301174039 0 0 0
223 2 3 -0.7948178798605143 9.150223488339718 1.9054365150567218 5.888921205399399 0 0 0
218 2 3 -0.7373429016194752 6.5837034578110565 0.4111278465654329 8.260857999260361 0 0 0
257 15 1 -0.1032969691920968 -0.24491127432184867 -0.06990850357705702 13.205065684064836 0 0 0
154 1 3 -0.7849445532850775 1.2994661443160869 5.185713558546041 8.752518683739694 0 0 0
123 1 1 -0.08159097201802772 1.6332552904257889 2.8525909926826687 10.80735436947597 0 0 0
48 1 2 -0.02005387341772365 1.2259715008315761 0.06865049630731868 11.093001940668847 0 0 0
255 15 2 0.0357049465842921 0.08162245759779574 -1.030623825944154 12.804043412717457 0 0 0
256 15 2 0.05495997146716201 0.4691138751417665 0.49924811985445516 13.693622454060202 0 0 0
268 23 2 0.05399153290497905 -1.2816220843717308 0.812771042313762 9.881564616702056 1 1 0
254 15 2 0.04563575198091982 -0.7922988163372797 0.5632671220947834 12.518081004604085 0 0 0
75 1 2 0.06069078491811605 0.6297404973452632 3.0318035029088617 10.53898532185895 0 0 0
269 24 2 0.07194364496622448 -1.6569236193761658 2.0992222437887746 8.696453277137985 1 1 0
149 1 3 -0.6768210615692587 1.5104901111750473 0.9642516188400029 8.47572298066595 0 0 0
232 4 4 0.417495307542904 13.285936049421366 -0.5366122137319536 14.784203707124501 0 0 0
76 1 2 0.101535117484495 2.316316228843442 3.5296424727316573 10.305169332618481 0 0 0
74 1 2 0.05537024606499742 1.8119993155495784 2.707425291491541 11.874660215326672 0 0 0
15 1 4 0.6290440199491163 2.098036893176265 1.0265243392175263 9.997355217571782 0 0 0
214 2 1 -0.05946999706316449 6.735119848133424 3.3405158591777644 8.82456289194767 0 0 0
206 2 2 0.06308390199199213 6.541751967866354 2.9906863388703577 9.804911686998643 0 0 0
81 1 2 0.04369186362279244 2.5298575534163663 2.6281293529802223 15.570283870658791 0 0 -1
151 1 3 -0.6604972672799526 4.062915221909224 -0.8472751418427376 12.830629814968637 0 0 0
229 3 2 0.3098305801782242 4.283694296537028 -0.3915424997826098 13.676110825782045 0 0 -1
127 1 1 -0.1024603097406239 6.925576227067799 3.7922336727584214 12.796629263018069 0 0 0
17 1 4 0.7758495804815767 4.534667263898176 0.6199594371439019 11.476497687291259 0 0 0
22 1 4 0.6128196203374262 5.113712368710336 3.4585826112367917 11.873881821958564 0 0 0
77 1 2 0.1446593009422309 6.635871211406723 -0.6754992902542831 10.524349056767917 0 0 0
78 1 2 0.07064851524908594 6.937943100470723 0.20907043994939434 12.133820292317933 0 0 0
79 1 2 0.05274424998339913 6.944633604758705 1.1654663693450138 10.578999057904083 0 0 0
124 1 1 -0.05656806904252173 6.607552687021309 0.282261971167165 11.09029083489359 0 0 0
150 1 3 -0.6562212055751625 3.67358485595732 0.6920008506733877 10.117853273053258 0 0 0
156 1 3 -0.6607766101023772 4.34781198353247 2.091235233517037 12.274606494503411 0 0 0
158 1 3 -0.7059107402819856 4.795854800010875 4.288704845679615 10.471129509522036 0 0 0
85 1 2 0.1126613180875441 7.340865061077089 4.6982301868945875 12.397589605992863 0 0 0
86 1 2 0.02055770934302761 7.374033785696039 2.844525515807737 12.585762200876147 0 0 0
199 2 2 0.297355471229506 8.969200543664368 0.7437003261714903 8.454058018669976 0 0 -1
152 1 3 -0.6120836427759688 5.433913382691883 0.8222775048518776 16.22805573570322 0 0 -1
87 1 2 0.04696510056771033 6.624687824048454 3.773061996922203 13.801340932880317 0 0 0
181 1 3 -0.7034044303374722 8.16888975596558 5.61475929736314 9.573264199137505 0 0 0
82 1 2 0.06593384279580361 -1.1134796151676731 3.8947964626249596 16.321434644266976 0 0 -1
235 4 3 -0.6590877356124306 12.16460387014805 1.0261753192558536 15.585227631393698 0 0 0
224 2 3 -0.7032489402379297 9.961885339610996 0.5072240777094296 8.539941069156352 0 0 0
55 1 2 0.259370512352937 11.95755423023816 0.4877756566188869 16.417957469666504 -1 0 0
208 2 2 0.02544374910834882 9.270814176401089 3.196452066675643 10.213973227147736 0 0 0
207 2 2 0.03788159197272904 11.042281969664389 3.5214237302015903 10.501956844910994 0 0 0
195 2 4 0.6072024701151985 10.874385786520927 1.1889376492469568 9.697398124828297 0 0 0
38 1 4 1.031381597652677 10.781749479796435 -0.9682096704139063 11.568851431213648 0 1 0
215 2 1 -0.1277324229330554 10.2757653395828 3.329879587084836 9.818742894015543 0 0 0
209 2 2 0.07846571306261083 10.437231354015418 3.505205452871725 8.7273240149158 0 0 0
49 1 2 0.2701438178164424 7.782063967425489 0.7082125867420377 14.602105965976696 0 0 0
57 1 2 0.2968524479519977 8.231121557744324 -0.5949365768357431 13.663974231060905 -1 -1 0
244 6 3 -0.7285846718740687 8.619857418702646 0.1654129195823031 14.286497652454099 0 1 0
198 2 2 0.2608005992670919 11.261563950093178 0.8845730840632404 15.093336461100156 0 0 -1
216 2 1 -0.07986110673927659 12.818159079572993 1.1395863015892083 9.100560181477276 0 0 0
186 1 3 -0.7068646576668783 11.000318914277338 0.5651255085746498 11.258368155204272 0 1 0
42 1 2 0.2422228507428959 9.057918235378345 0.7450308827586134 13.504267157247767 -1 0 0
248 9 2 0.1145918129585196 6.017026925500555 -1.6582465882612938 15.78603303770748 0 0 0
231 3 3 -0.6646791818787464 -0.7654190270201081 -1.6529111025287575 15.751850987749053 0 0 -1
204 2 2 0.09925506559344954 6.114793485658238 4.159288673718415 8.501241697190059 0 0 0
270 25 2 0.08077681458934316 12.730444076300252 0.3267486385590318 8.347954916161976 -1 0 0
35 1 4 0.8671429802971441 9.679508743988803 5.5730626605456335 10.096706560546735 0 0 0
91 1 2 0.03977640767963937 1.607617164008803 4.793387695053585 15.18033567338564 0 0 -1
205 2 2 0.07207290376284257 7.77271092550801 3.432131842615886 8.575062086573677 0 0 0
80 1 2 0.06408194297106043 2.1559457256120687 0.9791779529264057 16.368452375975494 0 0 -1
125 1 1 -0.09988572047497976 2.5004863130114763 1.9950666836766873 16.516204374942106 0 0 -1
1 1 4 0.618961401491291 -5.109716492041638 12.472818183551185 2.1544255768594454 0 0 0
9 1 4 1.061415965246663 -2.839951253457869 10.59586723417942 5.817197004413792 0 0 0
130 1 1 -0.09147569437528932 -1.2104824554589209 8.179613421897226 2.816985616061197 0 0 0
143 1 3 -0.6736509774875862 -3.6474146780711556 10.158314928433011 4.446717388227763 0 0 0
144 1 3 -0.6538771589906129 -3.8093955315039914 9.48469334865071 7.273102866478162 0 0 0
161 1 3 -0.7939977598808777 -1.292897332085991 10.594191675528723 5.672009426932542 0 0 0
47 1 2 0.2755042117862216 -3.953934760223862 8.601790657106715 6.821483547633273 0 0 0
142 1 3 -0.7077805442505389 -5.180437008247205 12.311614586690068 3.722895645158273 0 0 0
160 1 3 -0.7928718580488086 -0.7267679687597102 12.464844164352359 3.6960587784155092 0 0 0
95 1 2 0.08792244667525562 -1.5299703814370336 9.056129660536634 2.3022170330592515 0 0 0
8 1 4 0.2133512110413478 -2.0089950105356595 8.835158517661448 8.060225102085662 0 0 0
145 1 3 -0.6760614458248946 -3.2735351842675975 12.45420480809951 6.6000937307447405 0 0 0
7 1 4 0.8250173596095018 9.520754427529054 10.22708672612606 4.017729537934789 -1 0 0
93 1 2 0.03958486569575067 -1.9526276515482732 7.411673761021955 2.8941450829599464 0 0 0
60 1 2 0.07361394481188664 -2.884044664091007 12.787416961870003 0.7785364698677425 0 0 0
94 1 2 0.06927417543304885 -0.7492374669917425 8.415342666364955 3.749811449557247 0 0 0
253 14 2 0.1147137705593225 -2.4451985689782263 12.79070618525893 2.503753507011027 0 -1 0
46 1 2 0.2889484426797316 -1.0381073947496349 11.501616032301111 1.7329809272215744 -1 -1 1
163 1 3 -0.7676672352730697 -1.0086975841218264 10.867228725490529 0.8796189195020068 0 0 0
250 11 2 0.2968970050099873 -0.4765405972529921 11.475204598847837 0.2788099735244667 0 -1 0
178 1 3 -0.7611986877791616 4.339564876740171 6.750457226602367 2.0148941428879277 0 0 0
247 8 2 0.1191179481731839 -3.4159928379969333 10.17859463016229 0.7670146260879585 1 0 0
53 1 2 0.3120260911913827 -0.22165363425537282 10.251222163247668 0.9941012441638615 0 -1 1
136 1 1 -0.08683341156885732 8.972577786241843 6.969903330713138 1.1481681770057481 0 0 0
162 1 3 -0.7394291862025576 3.1789951432669907 10.049253331787474 0.5850084819404022 0 0 0
133 1 1 -0.05165643987894289 3.263199645639835 12.280286620960734 2.8993113668206556 0 0 0
171 1 3 -0.7908617627506779 1.3026800231733293 12.320305760850426 6.142943982872008 0 0 0
96 1 2 0.03372916822187465 4.88686792430717 10.411471494242026 6.63645517244421 0 0 0
25 1 4 0.9499171029387748 -0.1823573401414652 11.447604409095097 4.8657497733609 0 0 0
41 1 2 0.3043320472758784 0.5993656190962986 8.563337674570581 7.593782367504994 0 -1 0
19 1 4 0.5995771762686268 0.2968283921620984 7.333362499111526 1.6401050270216637 0 0 0
27 1 4 0.7892005900791073 3.1341788558994335 7.818102031822365 5.80111168542464 0 0 0
29 1 4 0.6489207848606799 2.4539855101169645 10.560141908436657 6.089640091910156 0 0 0
51 1 2 0.3057917953935053 1.2298661635312267 9.49933926259325 4.3378536839218755 0 0 0
102 1 2 0.1114694501539436 3.29212067938163 11.172956204940283 2.8796487621381965 0 0 0
131 1 1 -0.07991363838286754 4.413931707936123 11.279479010222861 6.207387059664974 0 0 0
137 1 1 -0.09726893579232289 5.08657208466841 7.410746599621647 6.560257181963549 0 0 0
164 1 3 -0.6826927950290457 1.5750692440326612 6.527327878517533 5.986107335966144 0 0 0
165 1 3 -0.7363413325225253 3.2999455799907884 8.158900477490251 4.200295981349119 0 0 0
169 1 3 -0.6341362598814947 1.6051789359999635 10.419271027015776 4.287003343999712 0 0 0
170 1 3 -0.7043046089266103 2.408763769715024 9.002993030329353 6.605653708634662 0 0 0
21 1 4 1.007908891703801 3.052193188407554 7.400206353638152 2.815833105106096 0 0 0
98 1 2 0.08556047562092427 4.665367788716091 11.557910776020536 5.159383912202597 0 0 0
44 1 2 0.2976118860534885 0.9064836856676315 7.120868089931183 6.441153562601188 0 0 0
97 1 2 0.09809636950973358 4.288243575693422 12.130201204743289 6.895139377354248 0 0 0
32 1 4 0.4210965126848749 5.235116903418248 12.888087424817277 2.607313988656191 0 0 0
43 1 2 0.09883705938134567 5.235911098102176 8.33867923590708 0.9360956153052986 0 1 0
45 1 2 0.1175852522220825 4.958407255476777 8.923293136708118 1.3753564553178141 0 1 0
104 1 2 0.09710108384894547 2.9914586461528425 12.690125843042456 3.844173526682341 0 0 0
159 1 3 -0.6619671746113266 0.9193225548199595 8.378063155616077 0.5500009891760914 0 0 0
116 1 2 0.06511960934695513 4.911385013648842 7.71559168320622 7.581945743741313 0 0 0
155 1 3 -0.7040675967152438 1.5110924175531233 6.824778260581448 2.599079169686017 0 0 0
103 1 2 0.05545838392000525 2.689794163533819 12.713245535074371 2.1027765947791517 0 0 0
14 1 4 1.080379674258258 0.6384446177693859 12.391638607055459 7.584829146591885 0 0 0
112 1 2 0.07520517934738136 8.512338306390438 7.263690586189703 0.2359167621380423 0 0 0
242 6 2 0.1079862113593386 5.957323099274517 9.389464886599383 3.7943356480677553 0 0 1
59 1 2 0.09694679449895431 5.195501117442473 9.635348751972552 3.623106854435573 0 0 1
24 1 4 0.6068287766778727 2.5199124379413362 8.60296046802343 0.3250786298485167 0 0 0
261 16 1 -0.09866702057811551 8.226694097718235 10.389822704748305 5.717007124210521 0 0 0
62 1 2 0.04860673157584738 8.002656772605363 11.550642818061426 8.016230565233371 -1 0 0
230 3 3 -0.6400924821811558 9.236541779814953 11.33072873736464 1.0959633438572467 -1 -1 0
135 1 1 -0.1125503483848652 7.480666946481135 8.361347940214758 8.221529602882416 0 0 0
111 1 2 0.06446442080701949 9.9262094055444 7.399417310999346 1.43048751148792 0 0 0
259 16 2 0.05185742684935369 7.325549183187712 10.069831160126537 5.298280881998743 0 0 0
260 16 2 0.08143118612799252 8.33882703646539 11.434978359802933 5.956321424492009 0 0 0
114 1 2 0.05168492335762411 5.7874457947596065 8.035891369863728 5.992592053309439 0 0 0
246 7 2 0.305685291976015 7.187015235454411 12.24192539621229 3.841199729026948 -1 -1 0
184 1 3 -0.7015658246234796 7.201417128190843 9.260370619876747 1.857806045303404 0 0 0
37 1 4 0.7132491848067661 7.280692306519285 10.841733619292155 1.8811951555521214 0 0 0
183 1 3 -0.6766455633299856 9.231348066588636 8.745575795795967 3.410403255197727 0 0 0
182 1 3 -0.662919910369217 6.836446585669179 7.005366462221073 3.914160845099922 0 0 0
258 16 2 0.05070628657459975 8.60232650932265 9.790550883992765 6.472144916166933 0 0 0
36 1 4 0.7970102359132669 7.986468890834881 8.050976737240006 2.584347106827236 0 0 0
185 1 3 -0.6820613501666615 6.434314934137257 11.666592269392389 3.6245953957448536 0 0 0
109 1 2 0.02913106675392319 7.166393299024222 7.901477453650199 7.293231902693178 0 0 0
115 1 2 0.07142556442720592 5.364633742099908 6.40465266220023 6.53049533742765 0 0 0
117 1 1 -0.06819121527789493 -3.117913146346884 13.153602675913769 1.7483572046633853 0 0 0
251 12 2 0.1385498189011166 -3.6829949071580335 10.64945658406831 0.05266526671971952 0 0 1
56 1 2 0.241224829069617 7.499490787683637 6.333779287246001 4.282124174846944 0 0 0
110 1 2 0.06978801225686962 8.545741468724307 8.425815912442486 8.28281920991183 0 0 0
11 1 4 0.597564058696077 -2.510238653456425 9.616242911094638 10.337258243403216 0 0 0
70 1 2 0.07012154553833008 -4.205398550375073 10.09768913916766 12.232098650030167 0 0 0
121 1 1 -0.0966779690204537 -4.288041528511499 10.464751600960636 11.250189939299592 0 0 0
147 1 3 -0.6878820082182499 -1.8769571059169772 8.299154904589528 11.016808387477477 0 0 0
238 5 2 0.290584595369386 -4.131332052554622 7.0671905210839245 11.784001715044461 0 0 0
72 1 2 0.05735353641902975 -4.10652312169955 11.561308452974853 11.131084720316412 0 0 0
71 1 2 0.06041540484232763 -5.134279817328755 10.130543248863143 10.655825396432336 0 0 0
168 1 3 -0.6739225096312651 -1.3318816516743994 10.799224360715245 10.357911568777906 0 0 0
174 1 3 -0.7661009012256641 -1.247600982652409 9.961819767567274 13.560564179796712 0 0 0
63 1 2 0.03404023059444616 -6.031396814260762 11.982725669481036 9.60200614638869 0 0 0
228 3 2 0.238436242190696 8.654169930401356 9.305717263019659 14.224632301014516 -1 -1 -1
191 1 3 -0.7688883741321549 7.63766397251471 9.231120018404377 11.381340447165144 0 0 0
118 1 1 -0.1206075296335151 -5.831004536969542 11.650176712688726 8.594594326297655 0 0 0
141 1 3 -0.7681402134303905 -1.356329396808372 5.751078219149247 9.011962061965555 0 0 0
90 1 2 0.07573799069783632 2.2490524701096506 5.860259331310978 11.61109281120126 0 0 0
189 1 3 -0.6304796977788837 7.143293323418247 7.065519692046088 12.857773722080493 0 0 0
157 1 3 -0.730584956327164 3.7542519829129106 5.875438777650935 8.397185857379178 0 0 0
267 22 2 0.05077943612715921 2.2475001000876476 6.376691768507664 14.507553350720586 0 0 0
249 10 2 0.07218814143066239 3.8449470955199314 9.042242569454617 8.993077726703195 0 -1 0
234 4 2 0.2754485997466682 -0.2006628114269462 6.829015591533392 13.894065769603513 1 0 0
172 1 3 -0.8005290190459917 0.23358523082529603 7.726043374339246 13.706180062072127 0 0 0
16 1 4 0.9938044465392409 -0.8565860882679592 11.017350777115565 12.43985469668037 0 -1 0
26 1 4 0.9943877111201631 1.954897487666052 9.481137301201057 16.235102703140527 0 0 -1
30 1 4 1.023049141229696 -0.3991913953459678 8.968597075279057 14.500065958319013 0 0 0
176 1 3 -0.7311319560826208 0.7249730665735697 11.516027735934463 12.543791549601957 0 0 0
10 1 4 0.9725702430083121 -0.37043907306052914 8.026636644997222 11.6133169755542 0 0 0
146 1 3 -0.7582610186885353 0.25649802797138155 6.733524076439168 10.87064762238972 0 0 0
28 1 4 0.9602798474360263 0.397112207002873 10.049790587176085 9.489732234470164 0 0 0
31 1 4 0.7837841901110459 2.0654113260383893 10.791382896718549 11.893238483821252 0 0 0
99 1 2 0.05759046855077222 3.6101174729556145 9.30815253523374 12.492985477686553 0 0 0
100 1 2 0.05559832767244274 2.2345895377661416 8.843780576200455 13.499299481966343 0 0 0
101 1 2 0.07641302338911365 3.2106163703878368 10.274828924085307 13.970663604115613 0 0 0
128 1 1 -0.09377788366220376 2.9871719935629244 6.625851124129349 11.38317160055414 0 0 0
129 1 1 -0.1247897296517529 2.3334170443484545 5.62856458044449 15.271000788099144 0 0 -1
132 1 1 -0.1010363938868379 2.9008235179605175 9.582335045735453 13.225352134479168 0 0 0
173 1 3 -0.780985173217661 0.4400393950119521 9.795074934177066 15.668649782957905 0 0 0
175 1 3 -0.7091189363870434 1.1102991054601263 9.343638988344482 10.74609900174946 0 0 0
89 1 2 0.04429003650312947 3.643755848985595 6.840342769647597 12.196158268206016 0 0 0
88 1 2 0.09831700746081813 2.555991489129923 7.448260637146091 10.851133461235934 0 0 0
6 1 4 1.236526038589554 0.1644631600641454 6.211775742834378 9.364509861613028 0 0 0
167 1 3 -0.7596153989455849 1.0654910735196013 11.255765991909723 8.632623440241908 0 0 0
58 1 2 0.1031554251743521 3.1640301515545697 9.211395992425834 9.10767225378924 0 0 0
245 6 3 -0.7057650526577109 3.00097644505251 10.727843942097056 16.22129888537681 0 0 0
23 1 4 0.9875031484732173 4.282286080182121 5.724436784488226 9.933148186685884 0 0 0
262 17 2 0.04453302485871151 4.48577928724601 7.438278007794979 14.951918022674048 0 0 0
187 1 3 -0.6888330980806449 3.077715495572613 11.860498137999729 11.172585527897978 0 0 0
263 18 2 0.1099167704270532 5.762428153855987 7.02634170068494 16.249365461697312 -1 0 -1
61 1 2 0.06822750335423722 -5.196222548635645 10.781773032101132 8.507380811795958 0 0 0
166 1 3 -0.6872823409949896 0.05037873211500876 8.191082783997345 8.419573063322566 0 0 0
108 1 2 0.04678736397803512 6.9412312914561785 9.307564648909018 8.411845764853567 0 0 0
180 1 3 -0.7461365785560583 10.606189059916568 6.470315021591179 9.149641631418223 0 0 0
237 5 4 0.6713308334592547 6.640759952738126 8.046781929575015 14.074885697686184 -1 0 0
236 4 3 -0.6944504091010434 5.778626590572707 9.75219049608474 13.36147312582921 0 -1 0
179 1 3 -0.6726888002942253 5.589664069933787 6.769921866446573 10.172393512783906 0 0 0
188 1 3 -0.6294389982727125 9.77152687173023 6.376148879128536 11.861435477350021 0 0 0
239 5 2 0.03424205179014936 5.452159782543033 5.900418352938426 14.915113730251313 -1 0 0
227 3 4 0.724079319189006 7.451174737034444 10.23479452761852 15.989354746197971 -1 -1 -1
233 4 4 0.02143571438007441 5.295050970936811 11.619525922619747 14.370494844652969 0 -1 0
34 1 4 0.6513623991111047 7.095833117981334 6.865391052999394 9.601024276064663 0 0 0
240 5 1 -0.08468755896555902 5.375634393099755 6.946182034820181 15.215546197623857 -1 0 0
40 1 4 1.038063411547853 6.487094774601065 10.204575356004343 12.002446114319216 0 0 0
190 1 3 -0.7755031483466939 5.824569914690268 11.483013516314072 11.232396162715265 0 0 0
39 1 4 0.7777389226221647 8.131233144169084 7.713081131886921 11.741782576374188 0 0 0
271 26 3 -0.5975940769202657 8.324218988784418 8.61598660382553 14.953524729573315 0 0 0
92 1 2 0.02021511612699873 3.329743532363638 5.330920493946198 15.501814649147086 0 0 -1
243 6 3 -0.6333292086777081 5.539845819935601 9.43805915530302 16.593596778849857 0 0 0
241 6 4 0.5685925727100993 4.592076756669811 10.796004874410993 16.595798590566947 0 0 0
5 1 4 1.057803248423328 -2.748375097263864 6.236537866648101 8.310683449853956 0 0 0

Velocities

3 -0.002265244918605622 0.002665739637184953 -0.0014745005575342392
4 -0.002542896972164406 0.002494729816104104 -0.000862499891533345
120 0.003291357300601778 0.006452303728836813 -0.002390582872954136
139 -0.00010644269681971988 0.0003832775386878774 0.002775523484162018
140 0.00010521596790925306 0.005592985673481142 -0.0006013141371622764
68 -0.01145219708393152 -0.0019929241571248132 -0.02244635445788339
119 0.006193500518986502 0.0006753125740126204 0.0032439883908595667
2 -0.002400917431264222 0.0010548264441923344 -0.002158410649429074
67 0.01988176951409201 -0.005204406643842588 0.004129179237745297
69 0.037627096352551216 -0.0016751746718421498 -0.018416220653053286
64 -0.011548712071664368 0.0020109904041903546 -0.014235779606784921
20 -0.004828770204559724 0.0002791521755724231 0.00038941197620837096
65 0.02095030840670431 0.01403083749551041 0.009959128150128024
126 -0.006959179955965331 -0.0015244358410926974 -0.0024393475693163242
66 0.006295630252872078 0.019885189711222905 -0.011670038982546834
226 0.001894785879628624 -0.0032737360507540934 -0.003862283778147114
200 0.00025768460959952884 -0.007178513937466573 -0.00882593217247193
222 0.0014530866696814272 0.003077698488537787 -0.005583172305290642
219 0.0012663030864464785 -0.004347183438621915 -0.0014601733213712494
217 -0.0019036146083776038 -0.0018198271274593573 0.004645310831599828
211 -0.023631448110537245 -0.0183417178223393 0.004763372525582977
138 -0.005260650129292135 0.003514873910864104 0.002884117178425333
83 0.023710831387638284 -0.0023922459951440534 -0.02355145494016294
196 0.003984912228906944 0.00021965752835834075 0.0010456138534986352
18 0.0023305710196819115 -0.003010343028035083 -0.00040972419991696003
266 -0.001985943097017427 -0.018646256860009418 -0.02800859866375095
203 0.010525578047030033 0.0040738646786972945 0.006697929815711288
202 0.03583568396398955 0.015565218362136249 -0.0006496224314607253
54 -0.011553823362799654 0.010662497751082405 0.022699040729164597
153 -0.003279837260757185 0.0028558213168866173 -0.0004263651945285566
52 0.024069598522540717 -0.0012905177942046 -0.011583085681660756
12 -0.0009376142150851996 -0.005343720085481208 -0.0026098748996797017
13 0.002110889087825065 0.00034507880851978017 -9.402319652966199e-05
148 0.005581380086504864 -0.004150223825945492 0.0037432938614176594
177 -0.0018737501677535467 0.0018689666808193405 0.00010782535454762138
193 -0.0068447622785497274 -0.0006294976101165448 0.0014350450712179292
213 0.00660983768140394 -0.003507169492450727 0.0017597748257697464
220 -0.006527978470277478 0.008333414041483318 -0.00012349700591886718
221 0.0035827469512771516 -0.0007570269566820194 -0.002625898000395636
33 -0.001225074354970691 -0.00505293861236563 0.001481278024477143
134 0.0009582219486645589 0.0013325154504422168 0.00422873253390017
194 -0.0032264119231718365 -0.001461447241547992 -0.0026848100594670625
107 -0.03590705921750335 0.009880119887201983 -0.012739050299390415
105 -0.006559333267662585 -0.005403148165127266 -0.0019635206965165635
106 0.004772439195875792 0.01506734344814746 0.003049929673844427
201 1.847081415857206e-05 -0.0015093943410792103 0.004266601773729387
264 -0.004320372937703747 -0.022328306992630973 0.029205408837590256
122 0.001250897476138749 0.0012316887458501962 0.0017937228307816414
73 0.0022467415816785916 -0.0026719245170660324 -0.0092621000666899
84 0.01279343463957476 -0.009834714963049636 -0.0004393554495603933
113 0.025738602947469217 0.01810492006082721 -0.0009171483997430997
252 0.000574689888734856 -0.009567234279416074 -0.008346044697617983
212 -0.005524009947365392 -0.007973341454619745 -0.018253660795820928
265 0.0202796478191423 0.005259201023303385 0.015926127569957423
210 -0.01551356426555117 0.015299062452554201 -0.022560706601549477
50 0.014776212836479296 0.015473139812948322 -0.012106461041429503
225 8.445639618623563e-05 -0.001317901867574215 0.00868697665425938
197 0.004475532033196333 -0.002261569552714695 -0.003514995026987264
192 -0.0035501953983650253 0.0003154200630939044 -0.004627798105803086
223 -0.005071925702789869 0.007240751701503851 0.0038454223985094913
218 0.0027978036697589525 0.006851186711658544 -0.006701366312990795
257 -0.006198684726493811 -0.0002125101624305528 0.005270900615286864
154 -0.0037952989138044487 0.004648690572121521 -0.0008747768602138086
123 0.004825576995914907 -0.004882320641118932 -0.008939237533692138
48 -0.007519823818333972 -0.007948696275730914 -0.017581833848752976
255 -0.002002841121014991 -0.0036209204854553566 0.00033733037644648314
256 -0.021058793120889235 0.01139914574917689 -0.0029796148046851937
268 0.0018863217028059975 -0.002814837843814193 -0.013158223440797362
254 0.0017216443497499675 -0.011935522722847319 0.016073906950956802
75 0.016271030910357236 -0.004252271789771604 -0.03874622090202346
269 -0.019727098597565464 0.0018799262836060244 0.010886151566943524
149 -0.002173259515174273 -0.004072086165514258 -0.0028949632848004293
232 0.0016314110206475131 -0.0027312453990883598 0.0025730326921069063
76 0.014561289196269643 0.019402742486551716 0.0101915215154253
74 0.02475997629663236 -0.004193496555256777 -0.025288065532724162
15 -0.0010423389543038615 -0.00042676419061127145 0.0034473903333492673
214 -0.000647682816921404 0.0018384325752380227 0.00019412317495436237
206 -0.02120496105962282 -0.021109585592681772 0.010048699673793413
81 -0.009975328538480306 0.0075049469304590485 -0.00987069485956848
151 0.007780380422008415 -0.00030952016171682963 -0.0024542516034767596
229 0.0020107685388280217 0.006396210857151427 0.017876962948314267