ITEM: TIMESTEP
0
ITEM: NUMBER OF ATOMS
366
ITEM: BOX BOUNDS xy xz yz pp pp pp
-7.8259280126619677e+00 1.5672935023048570e+01 -7.7280764795282639e+00
7.2117441858929696e-02 1.3785263820778400e+01 -1.4891651008504350e-01
-7.1564794098771145e-02 1.7318064794098724e+01 -4.5718737362614184e-02
ITEM: ATOMS id type x y z
11 4 -0.732825 4.92457 7.06488
69 1 -2.09401 5.45902 5.8004
102 3 -0.944794 3.28769 2.40261
104 3 -0.569916 5.03577 0.195375
98 3 -0.271291 1.74308 4.49207
215 2 -2.14251 6.24355 5.04785
210 2 -1.61804 6.32451 2.20496
19 4 7.62067 0.154705 1.90062
105 3 0.0825244 3.7819 6.36086
216 2 -3.04315 5.52411 6.64348
70 1 0.404154 6.37697 7.46222
9 4 0.0929003 4.24794 1.49486
124 3 0.701873 5.40082 2.38365
5 4 0.768618 2.46961 5.56132
303 4 5.32993 4.56564 1.31036
29 4 4.74115 4.26926 7.74032
64 1 2.16569 3.30448 4.47585
76 1 5.49435 1.3339 4.78935
79 1 3.07613 5.07446 7.02064
99 3 1.61557 1.44527 6.66256
103 3 1.2829 3.31029 0.84989
115 3 6.52447 0.96823 1.05631
324 1 3.717 0.21638 2.78228
126 3 5.66291 3.27258 6.80861
199 2 1.72658 2.80334 3.50567
200 2 3.00595 2.71298 4.86318
201 2 2.51188 4.37945 4.3313
244 2 2.71112 4.35288 6.10557
245 2 3.26963 6.28302 6.81267
246 2 2.40426 4.90504 7.9666
305 1 4.24168 3.45174 2.45012
309 3 5.89245 3.54856 0.258524
310 3 4.10351 5.50902 0.852088
312 2 3.12337 3.84779 2.24219
313 2 4.62359 3.66948 3.51867
314 2 4.3022 2.31274 2.1808
355 3 1.98414 0.652988 0.502914
236 2 4.60184 1.99853 4.74423
235 2 6.10717 1.41051 3.81773
325 2 3.05097 1.117 3.24722
219 2 1.33351 6.45363 6.87143
4 4 2.45254 0.411168 7.64221
77 1 3.28952 6.19841 3.89889
239 2 2.96801 5.96255 5.01777
326 2 4.56091 0.514477 2.03678
238 2 3.63678 5.16118 3.40628
214 2 -2.25325 4.48152 5.17417
27 4 1.48601 6.7665 3.0497
237 2 5.15924 0.194994 4.97785
217 2 0.547039 5.97933 8.57423
68 1 -1.63301 4.30045 8.73058
106 3 -2.59528 6.26402 16.2916
332 2 -0.5329 3.95929 15.0073
212 2 -2.06433 5.22098 9.26603
331 1 -1.63385 3.57662 14.8958
213 2 -0.956547 3.73932 9.40733
252 2 -0.423666 6.0872 14.5635
202 2 -1.11225 2.30748 11.2937
65 1 -0.259899 1.62839 10.8541
100 3 -0.0474182 1.85826 16.2558
254 2 1.01787 6.46357 11.6352
253 2 2.19389 5.47913 10.4732
32 4 3.59173 6.38451 12.0314
20 4 6.07218 1.94336 17.2456
255 2 1.58616 4.6288 12.181
251 2 1.23669 5.80008 13.5618
207 2 0.242602 3.6827 13.1281
359 2 -1.99683 3.53012 13.7004
204 2 0.127608 1.95727 9.88602
206 2 0.885884 2.21527 14.0682
250 2 1.05998 5.03693 15.3261
125 3 4.24468 3.63817 9.19913
8 4 1.53159 1.77851 11.8393
22 4 3.93952 2.17138 9.83203
25 4 3.77847 1.82724 15.2613
328 2 0.686229 0.255631 9.63901
30 4 5.2225 4.20517 13.6372
66 1 1.12977 2.97747 13.3322
81 1 0.723117 5.92558 14.6309
82 1 1.86451 5.70868 11.5923
101 3 1.65968 0.274676 12.3484
117 3 2.69779 2.40668 10.8402
119 3 3.29326 0.49222 14.5543
120 3 4.89963 1.34919 16.3083
121 3 2.48995 2.5835 16.1342
122 3 5.268 1.64831 10.5819
127 3 4.3837 2.97067 14.1753
131 3 4.34636 5.16685 12.7997
205 2 2.15749 3.41597 13.4883
10 4 -1.37289 6.42052 17.2988
3 4 1.32802 2.04624 17.078
227 2 -1.07262 6.3726 12.9392
116 3 3.34927 1.2738 8.66141
221 2 -4.34196 8.30749 8.54183
208 2 -3.06518 7.3963 1.59345
263 2 -0.632726 11.2114 0.0825335
241 2 -0.588475 7.23246 3.92851
358 2 -3.60054 13.1431 3.67211
78 1 0.461031 7.47294 4.43246
1 4 -5.42099 13.2907 1.69096
209 2 -1.43549 8.15921 1.6749
14 4 -2.33794 9.55902 7.58212
15 4 -4.13416 11.8123 5.93335
34 4 -1.23484 11.5753 3.9422
72 1 -1.51239 8.62364 6.16023
84 1 -1.63149 9.93932 3.19636
107 3 -6.43701 12.7224 2.77834
108 3 -4.73433 11.7495 0.951636
109 3 -5.37458 11.4649 4.96915
110 3 -3.71927 10.4825 6.90968
111 3 -4.50534 13.0046 6.83034
134 3 -0.954829 12.5608 2.69004
135 3 -2.89826 12.1693 4.95828
223 2 -1.74702 7.44156 6.04458
225 2 -1.57401 9.12403 5.05397
261 2 -1.6914 10.2794 2.05968
224 2 -0.427808 8.82977 6.57068
259 2 -2.63147 9.36304 3.60144
289 2 -3.21573 8.36819 5.04881
290 2 -4.19703 9.07964 3.63758
338 2 -2.34064 9.26952 0.140784
361 2 -3.82212 9.50069 1.3834
67 1 -1.98321 7.18917 1.4833
260 2 -0.637118 9.36867 3.30681
220 2 -2.62496 7.38905 8.18964
95 1 -4.19658 8.28192 4.41132
132 3 1.80036 7.97927 2.02072
337 1 -3.44097 9.36618 0.281124
138 3 -1.32864 10.3287 8.58991
142 3 1.58285 9.95636 6.48689
218 2 -0.231463 7.35796 7.34401
141 3 -0.0785639 11.3787 5.04917
242 2 0.729351 8.62532 4.41693
243 2 0.472047 7.08019 5.55709
267 2 3.59031 7.52996 5.69097
228 2 -0.187935 7.93271 12.3053
71 1 -3.17389 8.27846 8.77728
299 3 -5.87201 10.3478 16.143
145 3 3.25009 7.79284 12.9901
139 3 -0.811642 12.8985 8.75567
147 3 1.88881 10.0599 12.3368
226 2 -1.60862 7.11021 11.2803
297 4 -4.53569 10.874 17.0581
222 2 -3.00814 8.26409 9.86338
300 2 -3.28933 12.9156 16.3764
302 2 -2.07664 11.5477 16.2976
301 2 -3.3772 11.6935 14.9657
342 2 -1.23568 11.5499 14.1296
73 1 -1.15624 7.30622 12.3116
6 4 -5.19087 13.123 13.5115
16 4 -2.42511 8.49063 13.1608
18 4 -3.32929 11.1974 11.6421
37 4 -0.869584 11.521 9.58698
74 1 -1.51428 9.51928 14.4805
75 1 -4.43957 10.984 10.1076
112 3 -3.30579 7.43204 14.0187
113 3 -3.11643 9.59605 12.1728
114 3 -4.11536 12.1338 12.7415
140 3 -1.96882 11.6617 10.9255
229 2 -2.10351 10.4058 15.0546
230 2 -0.701239 9.95505 13.8211
231 2 -1.066 8.76657 15.2447
232 2 -4.13902 11.8831 9.43392
234 2 -4.04472 9.90944 9.63486
298 1 -3.10022 11.8427 16.0647
340 1 -1.3019 12.7754 14.1072
341 2 -1.2764 13.2905 15.1381
356 3 -6.25492 12.2269 14.2932
329 2 -5.80179 12.3499 9.36891
262 2 -0.414541 11.7627 15.6792
362 2 0.0345771 10.0461 16.3044
130 3 -0.285891 7.67069 16.5445
233 2 -5.58453 11.0079 10.4875
144 3 1.32891 8.74039 14.5938
343 2 -2.12529 13.2192 13.4092
85 1 -0.0703726 11.0964 16.6046
265 2 0.429845 8.69145 8.64802
39 4 2.52165 9.2414 13.5676
129 3 2.59521 7.08092 16.4981
146 3 0.559167 11.2149 10.2148
266 2 1.73933 8.98421 9.99496
86 1 1.51701 8.54963 9.00847
31 4 1.23753 7.46293 15.5789
264 2 1.82674 7.45144 8.84121
327 1 -6.53595 13.2081 8.8503
258 2 3.21776 7.68416 9.82364
339 2 -4.09574 8.43903 17.106
344 1 14.1321 1.23115 8.20839
304 4 6.76471 6.54398 3.66054
308 1 6.17344 6.00518 5.3019
311 3 6.28735 5.5628 2.48089
321 2 5.05042 6.17142 5.34373
80 1 6.04287 5.58407 8.12374
249 2 5.48007 6.50132 7.85951
323 2 6.55938 4.89547 5.24276
247 2 7.00355 5.46025 7.41244
169 3 9.47768 3.38689 8.54933
151 3 7.99672 2.93737 4.92217
276 2 7.95486 4.49855 6.49837
43 4 11.5659 1.80507 0.127663
273 2 11.5875 6.46424 2.25721
306 1 8.71162 6.8338 3.63176
150 3 8.31072 1.2053 2.98432
277 2 8.83602 5.84744 5.37537
274 2 10.6809 5.53486 3.79277
2 4 14.0781 2.17144 3.41669
42 4 8.93597 2.39691 3.75039
46 4 11.6279 2.19901 5.29796
50 4 10.3795 4.28795 1.65619
52 4 10.0942 4.22073 7.29575
89 1 11.3893 5.42926 2.84085
90 1 8.79623 5.28251 6.46933
149 3 13.4934 0.891222 2.72852
153 3 11.5307 0.458364 1.19947
156 3 12.9456 2.87806 4.36826
157 3 10.317 1.80129 4.42576
158 3 12.1855 1.04459 6.34429
165 3 9.26503 3.64549 2.71897
166 3 11.389 3.19953 1.04584
168 3 9.94519 5.45971 0.647238
170 3 10.9791 3.3338 6.29655
275 2 8.72034 6.03676 7.3848
91 1 11.1864 5.73162 8.02058
211 2 13.1412 3.5961 8.34975
364 2 12.2855 4.77919 2.9845
315 2 9.32178 5.86748 3.7698
271 2 11.3194 6.49397 7.16247
270 2 12.2486 5.1976 8.30851
346 2 14.3494 2.16974 7.60526
345 2 15.1015 0.581679 8.40992
118 3 7.41765 1.10773 6.88852
23 4 6.64583 2.17902 5.97755
248 2 6.38499 5.6022 9.19417
26 4 6.61845 2.16174 11.3184
128 3 6.36336 3.58555 12.5711
174 3 6.00658 4.98125 14.7151
54 4 6.42772 6.51945 15.3192
162 3 7.55022 1.9305 16.3416
285 2 5.96521 6.42803 10.8213
284 2 6.93405 5.01884 11.7302
93 1 7.0849 5.97219 11.0516
175 3 7.80765 6.37569 16.2034
256 2 4.79394 6.49548 9.54331
155 3 7.73588 2.56999 10.3409
283 2 7.7221 5.78579 10.1124
365 2 10.7309 6.22299 10.6033
203 2 15.028 0.511313 10.8387
363 2 13.5925 1.55018 9.17159
279 2 10.78 6.29397 8.92835
280 2 13.3062 3.83377 10.6365
12 4 11.7588 6.41025 15.2686
7 4 14.096 1.80744 15.5857
45 4 9.17905 2.20287 9.68288
48 4 8.82715 2.04938 15.5109
49 4 11.5251 2.38517 11.9832
51 4 9.3577 6.51934 17.0109
53 4 9.90685 4.34792 13.8724
88 1 12.9747 3.52165 11.7738
152 3 12.7755 1.71466 16.61
159 3 14.036 0.867117 14.2066
160 3 8.7393 0.825031 14.4177
161 3 10.1646 1.90372 16.5225
163 3 10.5214 2.30083 10.6727
164 3 12.2657 0.92985 12.4553
171 3 8.88093 3.55184 14.8186
172 3 10.6498 3.22381 13.0361
173 3 11.1304 5.08278 14.835
177 3 9.37095 5.54269 12.7811
272 2 12.8823 4.32736 12.5438
55 4 8.67916 6.72151 11.9195
154 3 9.13695 0.811522 8.96288
123 3 7.1772 1.11617 12.3752
333 2 13.2513 4.09185 15.6225
35 4 1.64299 11.7878 0.0530676
334 1 8.90859 9.90482 3.14077
44 4 5.14577 13.7307 7.381
268 2 4.4826 9.07209 6.34569
278 2 11.4474 7.17844 3.94661
21 4 0.335509 13.6651 7.90017
41 4 4.9897 13.4053 1.97146
318 2 5.15403 8.29806 2.60313
291 2 9.73838 9.07709 6.94524
33 4 2.81868 9.24078 1.6827
240 2 4.16921 7.0142 3.83248
56 4 3.78792 11.231 4.01049
60 4 6.32448 11.3185 5.80602
87 1 3.82516 8.21284 6.64038
133 3 4.16315 8.49516 0.93996
96 1 9.35269 8.43697 7.79736
143 3 1.2184 12.5793 6.9759
178 3 3.33849 9.93942 3.18416
179 3 4.33166 12.2822 2.95671
180 3 2.59398 11.9383 4.82113
186 3 4.91239 10.8191 5.26234
187 3 6.96176 9.98741 6.45357
188 3 6.24093 12.6094 6.79184
269 2 4.19484 7.67505 7.51578
307 1 5.72995 8.32272 3.5885
319 2 6.59529 9.0955 3.59395
320 2 5.03457 8.48599 4.46058
357 3 6.13326 12.5422 1.00437
322 2 7.05895 7.00823 6.39726
351 1 6.87114 9.95066 0.610904
58 4 7.50795 8.6452 7.34011
185 3 7.42703 11.6693 4.64639
136 3 2.20607 10.4469 0.886443
352 2 7.5303 9.89506 1.56299
354 2 5.90323 9.4546 0.84102
182 3 3.41102 10.487 8.51104
137 3 0.934724 12.9849 1.00046
347 1 9.32879 8.11252 0.769355
316 2 9.01344 7.58517 4.47042
349 2 10.1239 7.92482 1.51915
317 2 8.90195 7.28425 2.54844
336 2 7.92931 9.31346 3.27497
13 4 8.82025 11.6151 3.95684
286 2 10.5489 8.42509 5.12526
350 2 8.27357 8.13425 1.18057
292 2 9.98346 7.38818 7.91505
335 2 9.04843 10.1993 2.04089
360 2 9.90295 9.32686 3.57723
36 4 2.59772 9.51302 7.59357
330 2 8.36576 12.8043 8.04063
28 4 4.09413 7.07473 -0.00459916
348 2 9.53959 9.06115 0.0589803
38 4 1.32563 11.6 5.7929
183 3 4.35585 13.0781 8.62303
176 3 5.21226 7.0035 16.4062
40 4 1.63749 11.4627 11.4996
257 2 4.87838 7.88099 10.8731
83 1 4.16822 7.13826 10.3232
47 4 5.33842 13.5428 13.4317
288 2 6.89797 7.61794 9.85893
17 4 8.66254 11.1292 15.2331
24 4 0.234691 13.7067 13.2964
59 4 3.97487 11.7082 9.56409
62 4 3.85496 11.5923 15.3498
63 4 6.23945 11.1379 11.585
191 3 7.90098 9.99187 14.3349
148 3 0.892603 12.5223 12.4696
184 3 3.00109 12.0359 10.7581
189 3 6.4656 7.73422 14.3429
192 3 3.40544 10.338 14.4981
193 3 5.12436 11.126 16.1858
194 3 4.32289 12.7305 14.3183
195 3 2.5002 12.1483 16.2937
196 3 5.4091 11.186 10.2148
197 3 6.12948 9.77417 12.4692
198 3 6.1268 12.5025 12.5185
61 4 7.11712 8.88756 13.5179
94 1 6.80156 8.60425 9.13896
97 1 8.08327 10.9499 10.9585
181 3 7.56867 11.8283 16.2508
366 2 7.32184 9.50317 9.74219
295 2 8.01583 11.2525 9.80995
296 2 8.47656 9.88232 11.1639
190 3 8.16907 8.07158 12.5153
282 2 9.69819 7.48394 9.58367
92 1 10.0454 7.15822 10.6424
294 2 8.55873 11.7602 11.624
281 2 10.4686 7.99452 11.307
57 4 6.30227 11.5786 17.1873
287 2 5.73658 8.86794 8.85019
293 2 9.29656 9.0692 8.76725
167 3 10.5466 7.21002 16.1501
353 2 7.28077 9.30745 17.2508
ITEM: TIMESTEP
100
ITEM: NUMBER OF ATOMS
366
ITEM: BOX BOUNDS xy xz yz pp pp pp
-7.8327617264827465e+00 1.5672935023048570e+01 -7.7349101933490427e+00
7.2117441858929696e-02 1.3785263820778400e+01 -1.4891651008504350e-01
-7.1564794098771145e-02 1.7318064794098724e+01 -4.5718737362614184e-02
ITEM: ATOMS id type x y z
11 4 -0.81443 4.83105 7.04469
69 1 -2.1532 5.49988 5.75269
102 3 -0.8892 3.26081 2.46868
104 3 -0.541841 4.95063 0.187401
98 3 -0.303164 1.69039 4.58563
215 2 -1.48148 6.10358 5.0714
210 2 -1.12641 6.52308 2.26749
237 2 5.21053 0.313775 4.96174
105 3 -0.0506781 3.66689 6.333
216 2 -2.94657 6.1664 6.28917
70 1 0.442771 6.27791 7.45995
9 4 0.110461 4.16076 1.48635
124 3 0.899372 5.2503 2.35502
5 4 0.732273 2.38908 5.50791
303 4 5.23696 4.70449 1.35854
29 4 4.90782 4.16507 7.74055
64 1 2.07063 3.16884 4.31531
76 1 5.47496 1.40695 4.78049
79 1 3.28567 4.67061 6.86207
99 3 1.57503 1.43442 6.58908
103 3 1.30452 3.10977 1.07246
115 3 6.49561 1.04561 1.15814
324 1 3.8983 0.357371 2.65047
126 3 5.72314 3.29971 6.76256
199 2 1.63564 2.80152 3.31429
200 2 2.95611 2.58446 4.64048
201 2 2.36458 4.34664 4.2621
244 2 2.86508 4.00311 6.02427
245 2 3.56829 5.63087 6.48733
246 2 2.5495 4.76404 7.75643
305 1 4.05644 3.52901 2.25648
217 2 0.472651 5.94389 8.57499
310 3 4.13302 5.83632 0.824299
312 2 2.98391 4.10968 2.12645
313 2 4.47147 3.64363 3.32317
314 2 3.96441 2.47664 1.95679
355 3 1.86454 0.629321 0.755716
236 2 4.62259 2.1204 4.9754
235 2 5.97843 1.60447 3.75415
325 2 3.31447 1.18022 3.06355
219 2 1.4988 6.14338 6.99302
4 4 2.3952 0.505028 7.61585
77 1 3.1457 6.1752 3.89652
239 2 2.90729 5.99955 4.93015
326 2 4.66568 0.701611 1.92596
238 2 3.48535 5.16724 3.30323
27 4 1.49241 6.79915 3.01223
214 2 -2.50914 4.59658 5.22995
19 4 7.61639 0.127265 1.94269
68 1 -1.62373 4.12503 8.70255
106 3 -2.68369 6.26954 16.2981
332 2 -0.741481 3.876 14.8955
212 2 -1.73377 5.06596 9.32698
331 1 -1.84583 3.49966 14.8023
213 2 -1.02018 3.28668 9.28837
252 2 -0.326206 5.74147 14.7199
202 2 -1.15712 2.41166 11.1088
65 1 -0.263581 1.80191 10.6932
100 3 -0.133513 1.89888 16.3816
254 2 0.810713 6.71188 11.6476
253 2 2.00725 5.81428 10.4397
32 4 3.46638 6.5834 12.0319
20 4 6.17638 1.94287 17.283
255 2 1.53099 4.90423 12.149
251 2 1.15244 6.00836 13.5026
207 2 0.558853 4.06243 13.3365
116 3 3.32665 1.38031 8.69395
204 2 0.273153 2.28221 9.82586
206 2 1.03692 2.30524 14.101
250 2 1.41042 5.06742 15.1224
125 3 4.45181 3.65726 9.23023
8 4 1.41298 1.90648 11.8806
22 4 3.96351 2.27795 9.9325
25 4 3.81803 1.88286 15.3828
328 2 0.758621 0.424657 9.54388
30 4 5.34291 4.18103 13.6032
66 1 1.31565 3.23097 13.3106
81 1 0.787602 5.891 14.5984
82 1 1.66089 5.935 11.5337
101 3 1.61413 0.379952 12.4038
117 3 2.66838 2.42256 10.9826
119 3 3.28741 0.696266 14.3286
120 3 5.05285 1.29981 16.3416
121 3 2.55667 2.34246 16.2228
122 3 5.24392 1.75591 10.6834
127 3 4.56534 3.11958 14.4851
131 3 4.39952 5.28046 12.7528
205 2 2.43376 3.52436 13.3517
10 4 -1.3952 6.41096 17.2646
3 4 1.34825 1.92358 17.2977
227 2 -1.41263 6.29036 12.5064
221 2 -4.28703 8.49214 8.43672
208 2 -2.87614 7.05631 1.85085
263 2 -0.755404 11.4126 0.105029
241 2 -0.602824 7.10973 3.93553
358 2 -3.45961 13.2545 3.39767
78 1 0.448326 7.40676 4.44597
1 4 -5.35146 13.2148 1.71092
209 2 -1.30331 8.21043 1.45154
14 4 -2.28626 9.64198 7.52161
15 4 -4.13603 11.7697 5.87802
34 4 -1.36468 11.7593 3.9541
72 1 -1.41962 8.70255 6.10323
84 1 -1.78264 10.092 3.1713
107 3 -6.32107 12.6195 2.78722
108 3 -4.52515 11.9626 0.995856
109 3 -5.56672 11.3366 5.26634
110 3 -3.41598 10.4437 6.77715
111 3 -4.48256 13.0007 6.83249
134 3 -0.983536 12.8506 2.89646
135 3 -2.94844 12.075 4.85846
223 2 -1.68627 7.49806 6.03935
225 2 -1.52342 9.23124 4.9963
261 2 -2.09359 10.3219 2.09117
224 2 -0.400781 8.90634 6.51921
259 2 -2.62051 9.36626 3.62459
289 2 -3.08482 8.35017 4.96029
290 2 -4.16939 8.89018 3.50237
243 2 0.56877 6.98722 5.5706
361 2 -3.56301 9.21085 1.37379
67 1 -1.77754 7.12921 1.54098
260 2 -0.738862 9.61947 3.25176
220 2 -2.65641 7.52905 8.22799
95 1 -4.10809 8.15907 4.38044
132 3 1.75935 8.03625 2.02337
337 1 -3.61841 9.25529 0.252195
267 2 3.27537 7.81971 5.52607
142 3 1.60797 10.0894 6.45051
218 2 0.0248309 7.33039 7.40637
141 3 -0.0258433 11.4847 4.84847
242 2 0.500119 8.55291 4.41677
38 4 1.28722 11.5151 5.80057
269 2 3.70933 7.28486 7.30584
228 2 -0.284685 7.79325 13.0515
71 1 -3.20777 8.43019 8.69675
299 3 -5.80408 10.6136 16.3429
145 3 3.15514 7.82227 12.9973
338 2 -2.77234 9.37883 17.1917
147 3 1.89353 9.95671 12.2093
226 2 -1.20752 7.83086 11.3436
297 4 -4.48354 10.9429 17.1345
222 2 -3.12016 8.35335 9.82408
300 2 -3.43591 12.9715 16.0037
302 2 -2.09479 11.597 16.2497
301 2 -3.57257 11.4801 14.917
342 2 -1.31389 11.6171 14.1843
73 1 -1.18662 7.39981 12.4032
6 4 -5.24401 13.1612 13.4564
16 4 -2.36056 8.59723 13.2217
18 4 -3.33132 11.2561 11.4721
37 4 -0.942645 11.6132 9.69551
74 1 -1.36586 9.56807 14.5464
75 1 -4.48585 11.061 10.0159
112 3 -3.48153 7.47708 14.1514
113 3 -2.97552 9.66958 12.1043
114 3 -4.09332 12.136 12.6093
140 3 -1.97899 11.9223 10.88
229 2 -2.10798 10.3847 14.952
230 2 -0.522886 9.97848 14.0293
231 2 -1.0558 8.83932 15.4048
232 2 -4.25228 11.8965 9.35052
234 2 -4.04813 10.0507 9.60507
298 1 -3.20461 11.8574 15.9078
340 1 -1.22463 12.8214 14.1087
341 2 -1.25509 13.3429 15.1374
356 3 -6.11175 12.1795 14.3022
329 2 -5.88554 12.5215 9.35299
262 2 -0.485981 11.7534 15.608
362 2 0.0402275 9.98904 16.5454
130 3 -0.199625 7.63607 16.5195
233 2 -5.60782 11.0133 10.3125
144 3 1.31839 8.70332 14.4635
343 2 -2.04908 13.1762 13.4335
85 1 -0.158523 11.1461 16.6926
265 2 0.504053 8.89123 8.88366
39 4 2.49931 9.24077 13.5193
129 3 2.57274 7.12795 16.4135
146 3 0.422774 11.1728 10.3374
266 2 1.91389 8.94596 10.0436
86 1 1.52366 8.54318 9.06521
31 4 1.13908 7.49299 15.6209
264 2 1.76932 7.4714 8.86755
327 1 -6.56105 13.317 8.7862
258 2 3.19698 7.82905 9.91169
339 2 -4.36514 8.40764 17.1023
138 3 -1.41498 10.274 8.65533
139 3 -0.877956 12.7918 8.66008
344 1 13.9632 1.08628 8.18616
304 4 6.75342 6.49994 3.6924
308 1 6.31153 5.94896 5.33892
311 3 6.22534 5.51765 2.55082
321 2 5.20838 5.97932 5.29976
80 1 6.02496 5.76329 8.16478
249 2 5.40545 6.63679 7.75677
323 2 6.77334 4.87361 5.23599
247 2 7.02218 5.59978 7.53995
169 3 9.56731 3.23788 8.50752
151 3 7.86719 2.79732 4.9145
276 2 8.01153 4.42123 6.69133
43 4 11.5797 1.68697 0.106746
273 2 11.3389 6.24614 2.34466
306 1 8.77861 6.72119 3.72918
150 3 8.48711 1.0843 2.84593
277 2 8.80594 5.80405 5.55943
274 2 10.7224 5.25834 4.03249
2 4 14.1137 2.07657 3.54788
42 4 8.97405 2.29297 3.65805
46 4 11.693 2.23274 5.28112
50 4 10.4006 4.17496 1.69564
52 4 10.1993 4.30753 7.33618
89 1 11.347 5.24661 3.00466
90 1 8.81831 5.3087 6.62698
149 3 13.6345 0.807434 2.78608
153 3 11.7162 0.405488 1.064
156 3 12.8755 2.82316 4.43777
157 3 10.3938 1.95675 4.32497
158 3 12.0462 0.897693 6.18647
165 3 9.23919 3.48072 2.67793
166 3 11.3895 3.10185 1.09728
168 3 9.71914 5.20784 0.581238
170 3 11.2171 3.69227 6.29437
275 2 8.75701 6.06971 7.51331
91 1 11.2946 5.78999 8.08267
211 2 13.041 3.71695 8.28381
364 2 12.3578 4.7797 3.1143
315 2 9.38603 5.76854 3.81478
271 2 11.615 6.48502 7.23019
270 2 12.2914 5.23917 8.42883
346 2 14.0555 2.0083 7.54946
345 2 15.0194 0.598789 8.40116
118 3 7.40154 1.16068 6.99821
23 4 6.78862 2.16197 5.9326
309 3 5.94451 3.63027 0.529279
248 2 6.22855 5.80041 9.29395
26 4 6.62392 2.2897 11.4295
128 3 6.17583 3.41445 12.4367
174 3 6.09836 5.08403 14.6049
54 4 6.41277 6.58045 15.3723
162 3 7.44708 1.95775 16.4814
285 2 6.12283 6.50233 10.8941
284 2 6.99517 4.96504 11.7008
93 1 7.19818 5.92249 11.1236
175 3 7.7315 6.56523 16.1798
256 2 4.86193 6.72093 9.54237
155 3 7.81758 2.91897 10.4884
283 2 7.92893 5.81016 10.1399
365 2 10.8641 6.3225 10.6637
203 2 15.0992 0.679159 10.5798
363 2 13.4143 1.27746 9.206
279 2 10.7738 6.33423 9.0455
280 2 13.3115 3.77893 10.6216
12 4 11.6176 6.49452 15.2553
7 4 14.0042 1.80928 15.6079
45 4 9.13792 2.27637 9.68679
48 4 8.90493 1.88513 15.5538
49 4 11.5285 2.46797 11.8944
51 4 9.09183 6.59005 17.0628
53 4 9.96169 4.23485 14.0228
88 1 12.9513 3.64301 11.7102
152 3 12.7729 1.7815 16.5265
159 3 13.9592 0.616941 14.2525
160 3 8.76635 0.759805 14.3948
161 3 10.065 1.57913 16.5739
163 3 10.5779 2.38959 10.6348
164 3 12.252 1.07085 12.3235
171 3 8.98716 3.45529 14.96
172 3 10.7073 3.17559 13.1175
173 3 11.2655 5.01615 14.7523
177 3 9.17866 5.53507 13.0275
272 2 12.7762 4.52884 12.3785
55 4 8.71754 6.72768 12.0596
154 3 8.89292 0.74798 9.19323
123 3 7.31628 1.03223 12.304
333 2 13.0189 4.03512 15.4723
359 2 13.4713 3.54485 13.6311
176 3 5.28462 6.9033 16.4751
35 4 1.66332 11.7455 -0.0177789
334 1 8.94172 9.78797 3.23861
44 4 5.07907 13.5668 7.24163
268 2 4.70467 8.62069 6.48423
278 2 11.5115 7.05307 3.98608
21 4 0.339123 13.7082 7.97344
41 4 5.14949 13.3569 1.94981
318 2 5.15195 8.26479 2.68493
291 2 9.69089 8.90426 6.81534
33 4 2.95411 9.21403 1.71018
240 2 4.04241 6.96794 3.80169
56 4 3.72554 11.2634 3.97907
60 4 6.31687 11.2281 5.65744
87 1 3.67586 8.17981 6.57904
133 3 4.32283 8.63043 1.09187
96 1 9.37119 8.30133 7.80512
143 3 1.19203 12.7182 6.93562
178 3 3.2896 9.79756 3.23563
179 3 4.38674 12.2677 2.90426
180 3 2.40923 11.8571 4.62241
186 3 4.92407 10.7599 5.05258
187 3 6.97884 9.97681 6.70181
188 3 6.13172 12.5221 6.55017
348 2 9.31985 8.96943 0.202684
307 1 5.73797 8.25331 3.6424
319 2 6.52603 9.13255 3.66778
320 2 5.05056 8.22168 4.55897
357 3 6.11007 12.5418 0.992095
322 2 7.02591 7.02321 6.42669
351 1 6.85365 9.85546 0.39569
58 4 7.46888 8.61818 7.49442
185 3 7.42317 11.5025 4.48225
136 3 2.26438 10.3575 0.874956
352 2 7.42295 9.95538 1.37358
354 2 5.80916 9.26862 0.644608
182 3 3.41799 10.335 8.47694
137 3 0.994904 12.8709 0.943808
347 1 9.10066 8.12501 0.90021
316 2 8.93362 7.51903 4.5245
349 2 9.99132 7.93342 1.62748
317 2 8.96605 7.18091 2.6727
336 2 7.90409 9.30656 3.29657
13 4 8.87438 11.4746 4.07413
286 2 10.6485 8.28916 5.06763
350 2 8.09765 8.15566 1.46042
292 2 10.0526 7.39923 7.95006
335 2 9.32863 10.094 2.17803
360 2 9.75775 9.08052 3.72146
36 4 2.59538 9.41604 7.56265
330 2 8.34392 12.8555 8.02326
183 3 4.16082 12.9248 8.48305
353 2 7.23624 9.31054 16.9446
40 4 1.61429 11.4304 11.3971
257 2 4.96784 7.98629 10.9473
83 1 4.25449 7.25145 10.4149
47 4 5.22431 13.5994 13.293
288 2 7.0688 7.55755 9.88524
17 4 8.62284 11.2742 15.2857
24 4 0.332531 13.6343 13.2539
59 4 3.97603 11.6752 9.46388
62 4 3.71567 11.6678 15.1879
63 4 6.16154 11.1662 11.5424
191 3 7.76959 10.0895 14.4023
148 3 1.17671 12.5124 12.5706
184 3 3.03513 11.8821 10.6792
189 3 6.41111 7.80357 14.3891
192 3 3.48721 10.2635 14.3907
193 3 4.98572 11.3187 16.3051
194 3 4.19857 12.7759 14.1249
195 3 2.391 12.065 16.0933
196 3 5.33513 11.1027 10.1894
197 3 6.08283 9.69937 12.4552
198 3 6.09624 12.57 12.394
61 4 7.03973 8.91441 13.4995
94 1 6.84791 8.56353 9.26939
97 1 7.96387 11.1523 10.7436
181 3 7.54523 11.9793 16.187
366 2 7.22638 9.50268 9.8397
295 2 7.79378 11.1694 9.66982
296 2 8.44444 10.2442 11.1534
190 3 8.24702 8.15335 12.6354
282 2 9.82894 7.55407 9.63647
92 1 10.1318 7.19743 10.7342
294 2 8.46281 12.1404 11.1203
281 2 10.4901 8.09539 11.339
57 4 6.31194 11.5472 17.1836
287 2 5.66498 8.67637 8.87972
293 2 9.34026 9.02734 8.78578
167 3 10.3283 7.09481 16.1428
28 4 3.88616 7.08937 17.2406
ITEM: TIMESTEP
200
ITEM: NUMBER OF ATOMS
366
ITEM: BOX BOUNDS xy xz yz pp pp pp
-7.8395954403035244e+00 1.5672935023048570e+01 -7.7417439071698206e+00
7.2117441858929696e-02 1.3785263820778400e+01 -1.4891651008504350e-01
-7.1564794098771145e-02 1.7318064794098724e+01 -4.5718737362614184e-02
ITEM: ATOMS id type x y z
11 4 -0.834727 4.81879 6.97552
69 1 -2.22506 5.55084 5.88613
102 3 -0.925402 3.32764 2.45594
104 3 -0.673339 4.85194 0.294863
98 3 -0.23221 1.68904 4.55948
215 2 -1.72387 6.13429 5.05437
210 2 -1.62339 5.98946 2.22681
237 2 5.23266 0.357846 4.80388
105 3 0.0158732 3.69129 6.31792
216 2 -3.05341 6.10397 6.3847
70 1 0.485917 6.21347 7.40245
9 4 0.107156 4.08597 1.57217
124 3 0.734189 5.48412 2.58501
5 4 0.758602 2.35599 5.53349
303 4 5.17719 4.6686 1.37018
29 4 5.01519 4.18027 7.85207
64 1 2.10583 3.17271 4.40348
76 1 5.47825 1.51874 4.68861
79 1 3.26829 4.67357 7.02249
99 3 1.65456 1.45925 6.54533
103 3 1.23559 3.14399 0.986897
115 3 6.48474 1.06073 1.20625
324 1 3.72498 0.561439 2.83382
126 3 5.8701 3.21291 6.91767
199 2 1.76227 2.77517 3.40146
200 2 2.9976 2.61134 4.82937
201 2 2.23029 4.3277 4.35585
244 2 2.91453 4.21326 6.01905
245 2 3.2855 5.8331 6.83772
246 2 2.45729 4.45363 7.84602
305 1 4.13988 3.6061 2.54162
217 2 0.080606 6.07572 8.59317
310 3 4.06591 5.64126 0.672974
312 2 3.05304 3.98628 2.36854
313 2 4.37375 3.5621 3.6286
314 2 4.28907 2.58227 2.03002
355 3 1.81996 0.498654 0.830675
236 2 4.57802 2.17564 4.94209
235 2 5.94718 1.7294 3.66124
325 2 3.01715 1.53046 3.24841
219 2 1.49885 5.65573 7.16645
4 4 2.56988 0.563302 7.59019
77 1 3.18941 6.29049 4.02644
239 2 2.77874 6.18498 5.08451
326 2 4.55394 0.894376 2.08437
238 2 3.49767 5.29493 3.55505
27 4 1.50822 6.73084 3.11122
118 3 7.22927 0.86174 6.68299
68 1 -1.57706 4.10031 8.71338
106 3 -2.77795 6.34431 16.4072
332 2 -0.390094 3.8907 14.8811
212 2 -1.75159 5.0226 9.41488
331 1 -1.48212 3.47355 14.748
213 2 -0.862212 3.38123 9.22996
252 2 -0.134262 5.59385 14.9431
202 2 -1.00504 2.49731 11.1653
65 1 -0.124825 1.90643 10.6604
100 3 -0.0529523 1.63114 16.4087
254 2 0.656449 6.59799 11.8128
253 2 1.84953 5.92296 10.4862
32 4 3.4144 6.57266 12.03
227 2 -1.35796 6.61065 11.6967
255 2 1.54606 4.76918 12.1336
251 2 1.26649 5.80453 13.6102
207 2 0.24405 3.7168 13.4193
116 3 3.45183 1.30199 8.79079
204 2 0.175934 2.3381 9.61498
206 2 1.11162 2.14927 14.0374
250 2 1.71535 5.17096 15.3543
125 3 4.40043 3.77492 9.3192
8 4 1.53308 1.98758 11.7819
22 4 4.09361 2.2855 9.94507
25 4 3.73591 1.90368 15.3454
328 2 0.891669 0.532997 9.50054
30 4 5.22158 4.30273 13.7726
66 1 1.15829 3.09435 13.3466
81 1 0.956844 5.78465 14.7222
82 1 1.65933 5.89583 11.6362
101 3 1.59917 0.561709 12.3507
117 3 2.78349 2.50212 10.9152
119 3 3.50151 0.643278 14.3149
120 3 4.91008 1.45614 16.4592
121 3 2.45634 2.27379 16.155
122 3 5.44628 1.72196 10.6547
127 3 4.15549 3.37871 14.4579
131 3 4.30871 5.38826 12.72
205 2 2.05728 3.67673 13.5631
359 2 -1.86022 3.42817 13.5889
333 2 -2.18887 4.0187 15.4533
3 4 1.27543 1.86804 17.2351
10 4 -1.3981 6.31212 17.2736
20 4 6.19084 1.93003 17.2829
203 2 -0.387599 0.77227 10.6278
221 2 -4.40084 8.24728 8.42103
208 2 -2.5952 7.55476 1.78253
263 2 -0.790819 11.1402 0.158704
241 2 -0.642634 7.34638 3.95914
358 2 -3.6675 13.49 3.64737
78 1 0.401781 7.53942 4.43041
1 4 -5.17401 13.1567 1.82548
209 2 -0.792774 7.73947 1.77837
14 4 -2.33208 9.68561 7.53158
15 4 -4.161 11.7521 6.00638
34 4 -1.46556 11.7179 4.00005
72 1 -1.37582 8.66081 6.13982
84 1 -1.63781 10.0303 3.21602
107 3 -6.02021 12.5209 3.06177
108 3 -4.34526 11.9121 0.920723
109 3 -5.54508 11.17 5.34624
110 3 -3.44223 10.545 6.87177
111 3 -4.35944 12.991 7.00669
134 3 -0.942991 12.6329 2.80649
135 3 -3.07284 12.1389 4.82679
223 2 -1.6947 7.52612 6.11386
225 2 -1.48593 9.22726 5.11319
261 2 -1.78227 10.381 2.10618
224 2 -0.315804 8.86437 6.56319
259 2 -2.56673 9.38917 3.62654
289 2 -3.01397 8.34018 4.89119
290 2 -4.13768 9.02687 3.56537
338 2 -2.5205 9.46037 -0.0467237
361 2 -3.70182 9.27768 1.41236
67 1 -1.67517 6.97385 1.63006
260 2 -0.605224 9.49826 3.32496
220 2 -2.65597 7.48376 8.04693
95 1 -4.0285 8.17334 4.28944
132 3 1.84721 8.02344 2.16756
337 1 -3.56846 9.28579 0.290393
267 2 3.13173 7.84083 5.71635
142 3 1.57064 10.0681 6.61711
218 2 0.648496 7.2674 7.13229
141 3 -0.302099 11.5414 5.14147
242 2 0.668838 8.65231 4.51006
38 4 1.22176 11.6012 5.80347
138 3 -1.4154 10.4701 8.54419
330 2 -7.2068 12.8695 8.11105
19 4 -0.14478 13.719 1.96254
243 2 0.48478 7.01041 5.52755
71 1 -3.29125 8.32593 8.61373
228 2 -0.403391 7.64079 13.0835
339 2 -4.19864 8.37798 17.1802
299 3 -5.89543 10.5535 16.375
145 3 3.20347 7.90768 12.8587
139 3 -0.77029 12.8815 8.77353
147 3 1.93467 9.91963 12.0989
226 2 -0.778905 8.38853 11.2879
297 4 -4.53387 10.9011 17.0446
222 2 -3.01227 8.34551 9.70272
300 2 -3.46986 12.8953 16.0558
302 2 -2.16447 11.5147 16.189
301 2 -3.50674 11.4674 14.7222
342 2 -1.39552 11.4942 14.2361
73 1 -1.08301 7.62762 12.1231
6 4 -5.20133 13.351 13.4514
16 4 -2.43945 8.56937 13.1368
18 4 -3.45102 11.3631 11.5632
37 4 -0.920391 11.6026 9.62497
74 1 -1.58521 9.41448 14.6265
75 1 -4.47684 11.0075 10.0461
112 3 -3.55424 7.61811 13.9066
113 3 -3.12583 9.78854 12.2885
114 3 -4.25763 12.4104 12.4217
140 3 -2.17678 11.8947 10.8277
229 2 -2.22216 10.2226 15.0541
230 2 -0.716374 9.74951 13.91
231 2 -1.25171 8.59949 15.3599
232 2 -4.18524 11.9059 9.40429
234 2 -4.14592 9.94137 9.50629
298 1 -3.25577 11.8128 15.8133
340 1 -1.17164 12.62 14.076
341 2 -1.04647 13.1572 15.1293
356 3 -6.09391 12.3424 14.2984
329 2 -5.74426 12.5176 9.28251
262 2 -0.53421 11.5362 15.6335
362 2 -0.124028 9.82556 16.4534
130 3 -0.2495 7.56904 16.4859
233 2 -5.62711 10.9696 10.4747
144 3 1.22413 8.68477 14.5928
343 2 -1.98938 13.1614 13.452
85 1 -0.26366 10.9565 16.64
265 2 0.474274 8.65948 8.72683
39 4 2.44342 9.17616 13.5055
129 3 2.55463 7.34075 16.528
146 3 0.393499 11.1141 10.399
266 2 1.83472 8.71669 10.1222
86 1 1.568 8.46133 8.99782
31 4 1.15543 7.49382 15.6771
264 2 1.9584 7.40661 8.70747
327 1 -6.40427 13.3419 8.74022
258 2 3.30589 7.75678 9.81753
344 1 14.0601 1.07238 8.08638
304 4 6.69174 6.39809 3.7946
308 1 6.19204 5.87836 5.4076
311 3 6.05069 5.56668 2.54981
321 2 5.10232 6.01751 5.38666
80 1 6.1492 5.65166 8.31351
249 2 5.3964 6.41757 7.83219
323 2 6.54623 4.8274 5.46028
247 2 7.08638 5.49897 7.69217
169 3 9.62738 3.42713 8.60991
151 3 7.84312 2.72301 4.76606
276 2 8.03769 4.31383 6.74515
43 4 11.621 1.71192 0.152385
273 2 11.5045 6.22925 2.32205
306 1 8.68423 6.53072 3.67019
150 3 8.45844 0.908026 2.88258
277 2 8.69939 5.62474 5.47827
274 2 10.7378 5.50521 3.82398
2 4 14.1351 2.11794 3.51125
42 4 9.01527 2.24459 3.62193
46 4 11.6399 2.31715 5.30743
50 4 10.3115 4.19068 1.62566
52 4 10.2379 4.32252 7.31887
89 1 11.3538 5.3133 2.90559
90 1 8.76765 5.18819 6.59204
149 3 13.5415 0.844524 2.7924
153 3 11.8277 0.347149 1.03882
156 3 12.8975 2.79009 4.36602
157 3 10.4576 1.84877 4.35221
158 3 12.0819 1.06092 6.26962
165 3 9.16722 3.42874 2.60206
166 3 11.3376 3.16377 0.942496
168 3 9.74933 5.32057 0.63531
170 3 11.1148 3.54257 6.22717
275 2 8.77423 6.01739 7.39758
91 1 11.3273 5.70584 8.17514
211 2 13.0567 3.6002 8.46394
364 2 12.2765 4.68474 3.0652
315 2 9.33952 5.52554 3.8404
271 2 11.5929 6.46885 7.35844
270 2 12.3352 5.08373 8.43112
346 2 14.1045 1.94404 7.45366
345 2 15.1477 0.565176 8.33657
309 3 5.95395 3.56822 0.400516
23 4 6.7814 2.14935 5.88844
214 2 13.0861 4.40846 5.58688
248 2 6.35763 5.80016 9.41526