ITEM: TIMESTEP
0
ITEM: NUMBER OF ATOMS
366
ITEM: BOX BOUNDS xy xz yz pp pp pp
-7.8259280126619677e+00 1.5672935023048570e+01 -7.7280764795282639e+00
7.2117441858929696e-02 1.3785263820778400e+01 -1.4891651008504350e-01
-7.1564794098771145e-02 1.7318064794098724e+01 -4.5718737362614184e-02
ITEM: ATOMS id type x y z
11 4 -0.732825 4.92457 7.06488
69 1 -2.09401 5.45902 5.8004
102 3 -0.944794 3.28769 2.40261
104 3 -0.569916 5.03577 0.195375
98 3 -0.271291 1.74308 4.49207
215 2 -2.14251 6.24355 5.04785
210 2 -1.61804 6.32451 2.20496
19 4 7.62067 0.154705 1.90062
105 3 0.0825244 3.7819 6.36086
216 2 -3.04315 5.52411 6.64348
70 1 0.404154 6.37697 7.46222
9 4 0.0929003 4.24794 1.49486
124 3 0.701873 5.40082 2.38365
5 4 0.768618 2.46961 5.56132
303 4 5.32993 4.56564 1.31036
29 4 4.74115 4.26926 7.74032
64 1 2.16569 3.30448 4.47585
76 1 5.49435 1.3339 4.78935
79 1 3.07613 5.07446 7.02064
99 3 1.61557 1.44527 6.66256
103 3 1.2829 3.31029 0.84989
115 3 6.52447 0.96823 1.05631
324 1 3.717 0.21638 2.78228
126 3 5.66291 3.27258 6.80861
199 2 1.72658 2.80334 3.50567
200 2 3.00595 2.71298 4.86318
201 2 2.51188 4.37945 4.3313
244 2 2.71112 4.35288 6.10557
245 2 3.26963 6.28302 6.81267
246 2 2.40426 4.90504 7.9666
305 1 4.24168 3.45174 2.45012
309 3 5.89245 3.54856 0.258524
310 3 4.10351 5.50902 0.852088
312 2 3.12337 3.84779 2.24219
313 2 4.62359 3.66948 3.51867
314 2 4.3022 2.31274 2.1808
355 3 1.98414 0.652988 0.502914
236 2 4.60184 1.99853 4.74423
235 2 6.10717 1.41051 3.81773
325 2 3.05097 1.117 3.24722
219 2 1.33351 6.45363 6.87143
4 4 2.45254 0.411168 7.64221
77 1 3.28952 6.19841 3.89889
239 2 2.96801 5.96255 5.01777
326 2 4.56091 0.514477 2.03678
238 2 3.63678 5.16118 3.40628
214 2 -2.25325 4.48152 5.17417
27 4 1.48601 6.7665 3.0497
237 2 5.15924 0.194994 4.97785
217 2 0.547039 5.97933 8.57423
68 1 -1.63301 4.30045 8.73058
106 3 -2.59528 6.26402 16.2916
332 2 -0.5329 3.95929 15.0073
212 2 -2.06433 5.22098 9.26603
331 1 -1.63385 3.57662 14.8958
213 2 -0.956547 3.73932 9.40733
252 2 -0.423666 6.0872 14.5635
202 2 -1.11225 2.30748 11.2937
65 1 -0.259899 1.62839 10.8541
100 3 -0.0474182 1.85826 16.2558
254 2 1.01787 6.46357 11.6352
253 2 2.19389 5.47913 10.4732
32 4 3.59173 6.38451 12.0314
20 4 6.07218 1.94336 17.2456
255 2 1.58616 4.6288 12.181
251 2 1.23669 5.80008 13.5618
207 2 0.242602 3.6827 13.1281
359 2 -1.99683 3.53012 13.7004
204 2 0.127608 1.95727 9.88602
206 2 0.885884 2.21527 14.0682
250 2 1.05998 5.03693 15.3261
125 3 4.24468 3.63817 9.19913
8 4 1.53159 1.77851 11.8393
22 4 3.93952 2.17138 9.83203
25 4 3.77847 1.82724 15.2613
328 2 0.686229 0.255631 9.63901
30 4 5.2225 4.20517 13.6372
66 1 1.12977 2.97747 13.3322
81 1 0.723117 5.92558 14.6309
82 1 1.86451 5.70868 11.5923
101 3 1.65968 0.274676 12.3484
117 3 2.69779 2.40668 10.8402
119 3 3.29326 0.49222 14.5543
120 3 4.89963 1.34919 16.3083
121 3 2.48995 2.5835 16.1342
122 3 5.268 1.64831 10.5819
127 3 4.3837 2.97067 14.1753
131 3 4.34636 5.16685 12.7997
205 2 2.15749 3.41597 13.4883
10 4 -1.37289 6.42052 17.2988
3 4 1.32802 2.04624 17.078
227 2 -1.07262 6.3726 12.9392
116 3 3.34927 1.2738 8.66141
221 2 -4.34196 8.30749 8.54183
208 2 -3.06518 7.3963 1.59345
263 2 -0.632726 11.2114 0.0825335
241 2 -0.588475 7.23246 3.92851
358 2 -3.60054 13.1431 3.67211
78 1 0.461031 7.47294 4.43246
1 4 -5.42099 13.2907 1.69096
209 2 -1.43549 8.15921 1.6749
14 4 -2.33794 9.55902 7.58212
15 4 -4.13416 11.8123 5.93335
34 4 -1.23484 11.5753 3.9422
72 1 -1.51239 8.62364 6.16023
84 1 -1.63149 9.93932 3.19636
107 3 -6.43701 12.7224 2.77834
108 3 -4.73433 11.7495 0.951636
109 3 -5.37458 11.4649 4.96915
110 3 -3.71927 10.4825 6.90968
111 3 -4.50534 13.0046 6.83034
134 3 -0.954829 12.5608 2.69004
135 3 -2.89826 12.1693 4.95828
223 2 -1.74702 7.44156 6.04458
225 2 -1.57401 9.12403 5.05397
261 2 -1.6914 10.2794 2.05968
224 2 -0.427808 8.82977 6.57068
259 2 -2.63147 9.36304 3.60144
289 2 -3.21573 8.36819 5.04881
290 2 -4.19703 9.07964 3.63758
338 2 -2.34064 9.26952 0.140784
361 2 -3.82212 9.50069 1.3834
67 1 -1.98321 7.18917 1.4833
260 2 -0.637118 9.36867 3.30681
220 2 -2.62496 7.38905 8.18964
95 1 -4.19658 8.28192 4.41132
132 3 1.80036 7.97927 2.02072
337 1 -3.44097 9.36618 0.281124
138 3 -1.32864 10.3287 8.58991
142 3 1.58285 9.95636 6.48689
218 2 -0.231463 7.35796 7.34401
141 3 -0.0785639 11.3787 5.04917
242 2 0.729351 8.62532 4.41693
243 2 0.472047 7.08019 5.55709
267 2 3.59031 7.52996 5.69097
228 2 -0.187935 7.93271 12.3053
71 1 -3.17389 8.27846 8.77728
299 3 -5.87201 10.3478 16.143
145 3 3.25009 7.79284 12.9901
139 3 -0.811642 12.8985 8.75567
147 3 1.88881 10.0599 12.3368
226 2 -1.60862 7.11021 11.2803
297 4 -4.53569 10.874 17.0581
222 2 -3.00814 8.26409 9.86338
300 2 -3.28933 12.9156 16.3764
302 2 -2.07664 11.5477 16.2976
301 2 -3.3772 11.6935 14.9657
342 2 -1.23568 11.5499 14.1296
73 1 -1.15624 7.30622 12.3116
6 4 -5.19087 13.123 13.5115
16 4 -2.42511 8.49063 13.1608
18 4 -3.32929 11.1974 11.6421
37 4 -0.869584 11.521 9.58698
74 1 -1.51428 9.51928 14.4805
75 1 -4.43957 10.984 10.1076
112 3 -3.30579 7.43204 14.0187
113 3 -3.11643 9.59605 12.1728
114 3 -4.11536 12.1338 12.7415
140 3 -1.96882 11.6617 10.9255
229 2 -2.10351 10.4058 15.0546
230 2 -0.701239 9.95505 13.8211
231 2 -1.066 8.76657 15.2447
232 2 -4.13902 11.8831 9.43392
234 2 -4.04472 9.90944 9.63486
298 1 -3.10022 11.8427 16.0647
340 1 -1.3019 12.7754 14.1072
341 2 -1.2764 13.2905 15.1381
356 3 -6.25492 12.2269 14.2932
329 2 -5.80179 12.3499 9.36891
262 2 -0.414541 11.7627 15.6792
362 2 0.0345771 10.0461 16.3044
130 3 -0.285891 7.67069 16.5445
233 2 -5.58453 11.0079 10.4875
144 3 1.32891 8.74039 14.5938
343 2 -2.12529 13.2192 13.4092
85 1 -0.0703726 11.0964 16.6046
265 2 0.429845 8.69145 8.64802
39 4 2.52165 9.2414 13.5676
129 3 2.59521 7.08092 16.4981
146 3 0.559167 11.2149 10.2148
266 2 1.73933 8.98421 9.99496
86 1 1.51701 8.54963 9.00847
31 4 1.23753 7.46293 15.5789
264 2 1.82674 7.45144 8.84121
327 1 -6.53595 13.2081 8.8503
258 2 3.21776 7.68416 9.82364
339 2 -4.09574 8.43903 17.106
344 1 14.1321 1.23115 8.20839
304 4 6.76471 6.54398 3.66054
308 1 6.17344 6.00518 5.3019
311 3 6.28735 5.5628 2.48089
321 2 5.05042 6.17142 5.34373
80 1 6.04287 5.58407 8.12374
249 2 5.48007 6.50132 7.85951
323 2 6.55938 4.89547 5.24276
247 2 7.00355 5.46025 7.41244
169 3 9.47768 3.38689 8.54933
151 3 7.99672 2.93737 4.92217
276 2 7.95486 4.49855 6.49837
43 4 11.5659 1.80507 0.127663
273 2 11.5875 6.46424 2.25721
306 1 8.71162 6.8338 3.63176
150 3 8.31072 1.2053 2.98432
277 2 8.83602 5.84744 5.37537
274 2 10.6809 5.53486 3.79277
2 4 14.0781 2.17144 3.41669
42 4 8.93597 2.39691 3.75039
46 4 11.6279 2.19901 5.29796
50 4 10.3795 4.28795 1.65619
52 4 10.0942 4.22073 7.29575
89 1 11.3893 5.42926 2.84085
90 1 8.79623 5.28251 6.46933
149 3 13.4934 0.891222 2.72852
153 3 11.5307 0.458364 1.19947
156 3 12.9456 2.87806 4.36826
157 3 10.317 1.80129 4.42576
158 3 12.1855 1.04459 6.34429
165 3 9.26503 3.64549 2.71897
166 3 11.389 3.19953 1.04584
168 3 9.94519 5.45971 0.647238
170 3 10.9791 3.3338 6.29655
275 2 8.72034 6.03676 7.3848
91 1 11.1864 5.73162 8.02058
211 2 13.1412 3.5961 8.34975
364 2 12.2855 4.77919 2.9845
315 2 9.32178 5.86748 3.7698
271 2 11.3194 6.49397 7.16247
270 2 12.2486 5.1976 8.30851
346 2 14.3494 2.16974 7.60526
345 2 15.1015 0.581679 8.40992
118 3 7.41765 1.10773 6.88852
23 4 6.64583 2.17902 5.97755
248 2 6.38499 5.6022 9.19417
26 4 6.61845 2.16174 11.3184
128 3 6.36336 3.58555 12.5711
174 3 6.00658 4.98125 14.7151
54 4 6.42772 6.51945 15.3192
162 3 7.55022 1.9305 16.3416
285 2 5.96521 6.42803 10.8213
284 2 6.93405 5.01884 11.7302
93 1 7.0849 5.97219 11.0516
175 3 7.80765 6.37569 16.2034
256 2 4.79394 6.49548 9.54331
155 3 7.73588 2.56999 10.3409
283 2 7.7221 5.78579 10.1124
365 2 10.7309 6.22299 10.6033
203 2 15.028 0.511313 10.8387
363 2 13.5925 1.55018 9.17159
279 2 10.78 6.29397 8.92835
280 2 13.3062 3.83377 10.6365
12 4 11.7588 6.41025 15.2686
7 4 14.096 1.80744 15.5857
45 4 9.17905 2.20287 9.68288
48 4 8.82715 2.04938 15.5109
49 4 11.5251 2.38517 11.9832
51 4 9.3577 6.51934 17.0109
53 4 9.90685 4.34792 13.8724
88 1 12.9747 3.52165 11.7738
152 3 12.7755 1.71466 16.61
159 3 14.036 0.867117 14.2066
160 3 8.7393 0.825031 14.4177
161 3 10.1646 1.90372 16.5225
163 3 10.5214 2.30083 10.6727
164 3 12.2657 0.92985 12.4553
171 3 8.88093 3.55184 14.8186
172 3 10.6498 3.22381 13.0361
173 3 11.1304 5.08278 14.835
177 3 9.37095 5.54269 12.7811
272 2 12.8823 4.32736 12.5438
55 4 8.67916 6.72151 11.9195
154 3 9.13695 0.811522 8.96288
123 3 7.1772 1.11617 12.3752
333 2 13.2513 4.09185 15.6225
35 4 1.64299 11.7878 0.0530676
334 1 8.90859 9.90482 3.14077
44 4 5.14577 13.7307 7.381
268 2 4.4826 9.07209 6.34569
278 2 11.4474 7.17844 3.94661
21 4 0.335509 13.6651 7.90017
41 4 4.9897 13.4053 1.97146
318 2 5.15403 8.29806 2.60313
291 2 9.73838 9.07709 6.94524
33 4 2.81868 9.24078 1.6827
240 2 4.16921 7.0142 3.83248
56 4 3.78792 11.231 4.01049
60 4 6.32448 11.3185 5.80602
87 1 3.82516 8.21284 6.64038
133 3 4.16315 8.49516 0.93996
96 1 9.35269 8.43697 7.79736
143 3 1.2184 12.5793 6.9759
178 3 3.33849 9.93942 3.18416
179 3 4.33166 12.2822 2.95671
180 3 2.59398 11.9383 4.82113
186 3 4.91239 10.8191 5.26234
187 3 6.96176 9.98741 6.45357
188 3 6.24093 12.6094 6.79184
269 2 4.19484 7.67505 7.51578
307 1 5.72995 8.32272 3.5885
319 2 6.59529 9.0955 3.59395
320 2 5.03457 8.48599 4.46058
357 3 6.13326 12.5422 1.00437
322 2 7.05895 7.00823 6.39726
351 1 6.87114 9.95066 0.610904
58 4 7.50795 8.6452 7.34011
185 3 7.42703 11.6693 4.64639
136 3 2.20607 10.4469 0.886443
352 2 7.5303 9.89506 1.56299
354 2 5.90323 9.4546 0.84102
182 3 3.41102 10.487 8.51104
137 3 0.934724 12.9849 1.00046
347 1 9.32879 8.11252 0.769355
316 2 9.01344 7.58517 4.47042
349 2 10.1239 7.92482 1.51915
317 2 8.90195 7.28425 2.54844
336 2 7.92931 9.31346 3.27497
13 4 8.82025 11.6151 3.95684
286 2 10.5489 8.42509 5.12526
350 2 8.27357 8.13425 1.18057
292 2 9.98346 7.38818 7.91505
335 2 9.04843 10.1993 2.04089
360 2 9.90295 9.32686 3.57723
36 4 2.59772 9.51302 7.59357
330 2 8.36576 12.8043 8.04063
28 4 4.09413 7.07473 -0.00459916
348 2 9.53959 9.06115 0.0589803
38 4 1.32563 11.6 5.7929
183 3 4.35585 13.0781 8.62303
176 3 5.21226 7.0035 16.4062
40 4 1.63749 11.4627 11.4996
257 2 4.87838 7.88099 10.8731
83 1 4.16822 7.13826 10.3232
47 4 5.33842 13.5428 13.4317
288 2 6.89797 7.61794 9.85893
17 4 8.66254 11.1292 15.2331
24 4 0.234691 13.7067 13.2964
59 4 3.97487 11.7082 9.56409
62 4 3.85496 11.5923 15.3498
63 4 6.23945 11.1379 11.585
191 3 7.90098 9.99187 14.3349
148 3 0.892603 12.5223 12.4696
184 3 3.00109 12.0359 10.7581
189 3 6.4656 7.73422 14.3429
192 3 3.40544 10.338 14.4981
193 3 5.12436 11.126 16.1858
194 3 4.32289 12.7305 14.3183
195 3 2.5002 12.1483 16.2937
196 3 5.4091 11.186 10.2148
197 3 6.12948 9.77417 12.4692
198 3 6.1268 12.5025 12.5185
61 4 7.11712 8.88756 13.5179
94 1 6.80156 8.60425 9.13896
97 1 8.08327 10.9499 10.9585
181 3 7.56867 11.8283 16.2508
366 2 7.32184 9.50317 9.74219
295 2 8.01583 11.2525 9.80995
296 2 8.47656 9.88232 11.1639
190 3 8.16907 8.07158 12.5153
282 2 9.69819 7.48394 9.58367
92 1 10.0454 7.15822 10.6424
294 2 8.55873 11.7602 11.624
281 2 10.4686 7.99452 11.307
57 4 6.30227 11.5786 17.1873
287 2 5.73658 8.86794 8.85019
293 2 9.29656 9.0692 8.76725
167 3 10.5466 7.21002 16.1501
353 2 7.28077 9.30745 17.2508
ITEM: TIMESTEP
100
ITEM: NUMBER OF ATOMS
366
ITEM: BOX BOUNDS xy xz yz pp pp pp
-7.8219895161671609e+00 1.5665124088025522e+01 -7.7242124412884996e+00
7.2117441858929696e-02 1.3785263820778400e+01 -1.4884205183000099e-01
-7.1564794098771145e-02 1.7318064794098724e+01 -4.5718737362614184e-02
ITEM: ATOMS id type x y z
11 4 -0.811633 4.83105 7.04469
69 1 -2.1494 5.49988 5.75269
102 3 -0.887156 3.26081 2.46868
104 3 -0.539129 4.95063 0.187401
98 3 -0.302195 1.69039 4.58563
215 2 -1.47771 6.10358 5.0714
210 2 -1.12262 6.52308 2.26749
237 2 5.20806 0.313775 4.96174
105 3 -0.0488451 3.66689 6.333
216 2 -2.94204 6.1664 6.28917
70 1 0.445663 6.27791 7.45995
9 4 0.112453 4.16076 1.48635
124 3 0.901516 5.2503 2.35502
5 4 0.733075 2.38908 5.50791
303 4 5.23666 4.70449 1.35854
29 4 4.90743 4.16507 7.74055
64 1 2.07115 3.16884 4.31531
76 1 5.4729 1.40695 4.78049
79 1 3.28633 4.67061 6.86207
99 3 1.57494 1.43442 6.58908
103 3 1.30539 3.10977 1.07246
115 3 6.49286 1.04561 1.15814
324 1 3.8965 0.357371 2.65047
126 3 5.7219 3.29971 6.76256
199 2 1.6362 2.80152 3.31429
200 2 2.95589 2.58446 4.64048
201 2 2.36555 4.34664 4.2621
244 2 2.86562 4.00311 6.02427
245 2 3.56929 5.63087 6.48733
246 2 2.55058 4.76404 7.75643
305 1 4.05614 3.52901 2.25648
217 2 0.475363 5.94389 8.57499
310 3 4.13384 5.83632 0.824299
312 2 2.98444 4.10968 2.12645
313 2 4.47103 3.64363 3.32317
314 2 3.96363 2.47664 1.95679
355 3 1.86389 0.629321 0.755716
236 2 4.62131 2.1204 4.9754
235 2 5.97621 1.60447 3.75415
325 2 3.31337 1.18022 3.06355
219 2 1.50109 6.14338 6.99302
4 4 2.39423 0.505028 7.61585
77 1 3.14718 6.1752 3.89652
239 2 2.90881 5.99955 4.93015
326 2 4.66367 0.701611 1.92596
238 2 3.48616 5.16724 3.30323
27 4 1.49504 6.79915 3.01223
214 2 -2.50562 4.59658 5.22995
19 4 7.61262 0.127265 1.94269
68 1 -1.62088 4.12503 8.70255
106 3 -2.67922 6.26954 16.2981
332 2 -0.739187 3.876 14.8955
212 2 -1.73039 5.06596 9.32698
331 1 -1.84317 3.49966 14.8023
213 2 -1.01805 3.28668 9.28837
252 2 -0.323187 5.74147 14.7199
202 2 -1.15536 2.41166 11.1088
65 1 -0.262568 1.80191 10.6932
100 3 -0.132509 1.89888 16.3816
254 2 0.813644 6.71188 11.6476
253 2 2.00913 5.81428 10.4397
32 4 3.46792 6.5834 12.0319
20 4 6.17425 1.94287 17.283
255 2 1.53265 4.90423 12.149
251 2 1.15485 6.00836 13.5026
207 2 0.560588 4.06243 13.3365
116 3 3.32565 1.38031 8.69395
204 2 0.274136 2.28221 9.82586
206 2 1.03754 2.30524 14.101
250 2 1.41223 5.06742 15.1224
125 3 4.4514 3.65726 9.23023
8 4 1.41321 1.90648 11.8806
22 4 3.96265 2.27795 9.9325
25 4 3.81705 1.88286 15.3828
328 2 0.758433 0.424657 9.54388
30 4 5.34231 4.18103 13.6032
66 1 1.31659 3.23097 13.3106
81 1 0.790138 5.891 14.5984
82 1 1.663 5.935 11.5337
101 3 1.61349 0.379952 12.4038
117 3 2.66823 2.42256 10.9826
119 3 3.2861 0.696266 14.3286
120 3 5.05097 1.29981 16.3416
121 3 2.55655 2.34246 16.2228
122 3 5.24216 1.75591 10.6834
127 3 4.5646 3.11958 14.4851
131 3 4.39994 5.28046 12.7528
205 2 2.43429 3.52436 13.3517
10 4 -1.39131 6.41096 17.2646
3 4 1.34853 1.92358 17.2977
227 2 -1.40879 6.29036 12.5064
221 2 -4.28066 8.49214 8.43672
208 2 -2.87121 7.05631 1.85085
263 2 -0.749356 11.4126 0.105029
241 2 -0.598997 7.10973 3.93553
358 2 -3.45129 13.2545 3.39767
78 1 0.451775 7.40676 4.44597
1 4 -5.34221 13.2148 1.71092
209 2 -1.29859 8.21043 1.45154
14 4 -2.28032 9.64198 7.52161
15 4 -4.1281 11.7697 5.87802
34 4 -1.35815 11.7593 3.9541
72 1 -1.41458 8.70255 6.10323
84 1 -1.77674 10.092 3.1713
107 3 -6.31163 12.6195 2.78722
108 3 -4.51694 11.9626 0.995856
109 3 -5.55829 11.3366 5.26634
110 3 -3.40908 10.4437 6.77715
111 3 -4.47384 13.0007 6.83249
134 3 -0.976652 12.8506 2.89646
135 3 -2.94096 12.075 4.85846
223 2 -1.68171 7.49806 6.03935
225 2 -1.51807 9.23124 4.9963
261 2 -2.08742 10.3219 2.09117
224 2 -0.396155 8.90634 6.51921
259 2 -2.61455 9.36626 3.62459
289 2 -3.07913 8.35017 4.96029
290 2 -4.16289 8.89018 3.50237
243 2 0.571952 6.98722 5.5706
361 2 -3.55666 9.21085 1.37379
67 1 -1.77312 7.12921 1.54098
260 2 -0.733714 9.61947 3.25176
220 2 -2.65134 7.52905 8.22799
95 1 -4.10199 8.15907 4.38044
132 3 1.76245 8.03625 2.02337
337 1 -3.612 9.25529 0.252195
267 2 3.27761 7.81971 5.52607
142 3 1.61218 10.0894 6.45051
218 2 0.0284583 7.33039 7.40637
141 3 -0.0201178 11.4847 4.84847
242 2 0.504115 8.55291 4.41677
38 4 1.29231 11.5151 5.80057
269 2 3.7111 7.28486 7.30584
228 2 -0.280664 7.79325 13.0515
71 1 -3.20198 8.43019 8.69675
299 3 -5.79588 10.6136 16.3429
145 3 3.15745 7.82227 12.9973
338 2 -2.76628 9.37883 17.1917
147 3 1.89754 9.95671 12.2093
226 2 -1.20302 7.83086 11.3436
297 4 -4.47584 10.9429 17.1345
222 2 -3.11444 8.35335 9.82408
300 2 -3.42772 12.9715 16.0037
302 2 -2.08796 11.597 16.2497
301 2 -3.56506 11.4801 14.917
342 2 -1.30744 11.6171 14.1843
73 1 -1.18234 7.39981 12.4032
6 4 -5.23483 13.1612 13.4564
16 4 -2.3551 8.59723 13.2217
18 4 -3.32405 11.2561 11.4721
37 4 -0.936391 11.6132 9.69551
74 1 -1.36041 9.56807 14.5464
75 1 -4.4781 11.061 10.0159
112 3 -3.47607 7.47708 14.1514
113 3 -2.96922 9.66958 12.1043
114 3 -4.08523 12.136 12.6093
140 3 -1.97206 11.9223 10.88
229 2 -2.10175 10.3847 14.952
230 2 -0.517653 9.97848 14.0293
231 2 -1.05087 8.83932 15.4048
232 2 -4.24423 11.8965 9.35052
234 2 -4.04111 10.0507 9.60507
298 1 -3.1971 11.8574 15.9078
340 1 -1.21763 12.8214 14.1087
341 2 -1.24781 13.3429 15.1374
356 3 -6.10262 12.1795 14.3022
329 2 -5.87636 12.5215 9.35299
262 2 -0.479877 11.7534 15.608
362 2 0.0451879 9.98904 16.5454
130 3 -0.195721 7.63607 16.5195
233 2 -5.59953 11.0133 10.3125
144 3 1.32207 8.70332 14.4635
343 2 -2.04149 13.1762 13.4335
85 1 -0.152885 11.1461 16.6926
265 2 0.508223 8.89123 8.88366
39 4 2.50266 9.24077 13.5193
129 3 2.575 7.12795 16.4135
146 3 0.428127 11.1728 10.3374
266 2 1.91738 8.94596 10.0436
86 1 1.52715 8.54318 9.06521
31 4 1.14224 7.49299 15.6209
264 2 1.77214 7.4714 8.86755
327 1 -6.55113 13.317 8.7862
258 2 3.19928 7.82905 9.91169
339 2 -4.35877 8.40764 17.1023
138 3 -1.40916 10.274 8.65533
139 3 -0.871146 12.7918 8.66008
344 1 13.9568 1.08628 8.18616
304 4 6.75326 6.49994 3.6924
308 1 6.31132 5.94896 5.33892
311 3 6.22495 5.51765 2.55082
321 2 5.20874 5.97932 5.29976
80 1 6.0248 5.76329 8.16478
249 2 5.40604 6.63679 7.75677
323 2 6.77237 4.87361 5.23599
247 2 7.02145 5.59978 7.53995
169 3 9.56412 3.23788 8.50752
151 3 7.86463 2.79732 4.9145
276 2 8.00971 4.42123 6.69133
43 4 11.5747 1.68697 0.106746
273 2 11.3363 6.24614 2.34466
306 1 8.77755 6.72119 3.72918
150 3 8.48338 1.0843 2.84593
277 2 8.80441 5.80405 5.55943
274 2 10.7196 5.25834 4.03249
2 4 14.1076 2.07657 3.54788
42 4 8.97068 2.29297 3.65805
46 4 11.6883 2.23274 5.28112
50 4 10.3975 4.17496 1.69564
52 4 10.1963 4.30753 7.33618
89 1 11.3439 5.24661 3.00466
90 1 8.81653 5.3087 6.62698
149 3 13.6281 0.807434 2.78608
153 3 11.7105 0.405488 1.064
156 3 12.8704 2.82316 4.43777
157 3 10.3896 1.95675 4.32497
158 3 12.0406 0.897693 6.18647
165 3 9.23628 3.48072 2.67793
166 3 11.3854 3.10185 1.09728
168 3 9.71685 5.20784 0.581238
170 3 11.2133 3.69227 6.29437
275 2 8.75564 6.06971 7.51331
91 1 11.2918 5.78999 8.08267
211 2 13.0363 3.71695 8.28381
364 2 12.3539 4.7797 3.1143
315 2 9.38419 5.76854 3.81478
271 2 11.6124 6.48502 7.23019
270 2 12.2879 5.23917 8.42883
346 2 14.0494 2.0083 7.54946
345 2 15.0121 0.598789 8.40116
118 3 7.39839 1.16068 6.99821
23 4 6.78628 2.16197 5.9326
309 3 5.94332 3.63027 0.529279
248 2 6.22831 5.80041 9.29395
26 4 6.62173 2.2897 11.4295
128 3 6.17443 3.41445 12.4367
174 3 6.09784 5.08403 14.6049
54 4 6.41284 6.58045 15.3723
162 3 7.44432 1.95775 16.4814
285 2 6.123 6.50233 10.8941
284 2 6.99413 4.96504 11.7008
93 1 7.19752 5.92249 11.1236
175 3 7.7309 6.56523 16.1798
256 2 4.86283 6.72093 9.54237
155 3 7.81511 2.91897 10.4884
283 2 7.92785 5.81016 10.1399
365 2 10.8618 6.3225 10.6637
203 2 15.0919 0.679159 10.5798
363 2 13.4082 1.27746 9.206
279 2 10.7715 6.33423 9.0455
280 2 13.3067 3.77893 10.6216
12 4 11.615 6.49452 15.2553
7 4 13.9981 1.80928 15.6079
45 4 9.13447 2.27637 9.68679
48 4 8.90141 1.88513 15.5538
49 4 11.5239 2.46797 11.8944
51 4 9.09057 6.59005 17.0628
53 4 9.95881 4.23485 14.0228
88 1 12.9466 3.64301 11.7102
152 3 12.7674 1.7815 16.5265
159 3 13.9525 0.616941 14.2525
160 3 8.76233 0.759805 14.3948
161 3 10.0608 1.57913 16.5739
163 3 10.5738 2.38959 10.6348
164 3 12.2464 1.07085 12.3235
171 3 8.98438 3.45529 14.96
172 3 10.7035 3.17559 13.1175
173 3 11.2624 5.01615 14.7523
177 3 9.17682 5.53507 13.0275
272 2 12.7721 4.52884 12.3785
55 4 8.71653 6.72768 12.0596
154 3 8.88882 0.74798 9.19323
123 3 7.31312 1.03223 12.304
333 2 13.0144 4.03512 15.4723
359 2 13.4663 3.54485 13.6311
176 3 5.28542 6.9033 16.4751
35 4 1.66832 11.7455 -0.0177789
334 1 8.94212 9.78797 3.23861
44 4 5.08329 13.5668 7.24163
268 2 4.7066 8.62069 6.48423
278 2 11.5093 7.05307 3.98608
21 4 0.345781 13.7082 7.97344
41 4 5.15356 13.3569 1.94981
318 2 5.15348 8.26479 2.68493
291 2 9.69047 8.90426 6.81534
33 4 2.9572 9.21403 1.71018
240 2 4.04384 6.96794 3.80169
56 4 3.72928 11.2634 3.97907
60 4 6.3193 11.2281 5.65744
87 1 3.67808 8.17981 6.57904
133 3 4.32494 8.63043 1.09187
96 1 9.37063 8.30133 7.80512
143 3 1.19777 12.7182 6.93562
178 3 3.29282 9.79756 3.23563
179 3 4.39065 12.2677 2.90426
180 3 2.41392 11.8571 4.62241
186 3 4.92695 10.7599 5.05258
187 3 6.98031 9.97681 6.70181
188 3 6.13489 12.5221 6.55017
348 2 9.31964 8.96943 0.202684
307 1 5.7392 8.25331 3.6424
319 2 6.52731 9.13255 3.66778
320 2 5.05212 8.22168 4.55897
357 3 6.11325 12.5418 0.992095
322 2 7.02588 7.02321 6.42669
351 1 6.85512 9.85546 0.39569
58 4 7.46943 8.61818 7.49442
185 3 7.42518 11.5025 4.48225
136 3 2.26839 10.3575 0.874956
352 2 7.42419 9.95538 1.37358
354 2 5.81086 9.26862 0.644608
182 3 3.42143 10.335 8.47694
137 3 1.00081 12.8709 0.943808
347 1 9.10014 8.12501 0.90021
316 2 8.93288 7.51903 4.5245
349 2 9.99026 7.93342 1.62748
317 2 8.96513 7.18091 2.6727
336 2 7.90476 9.30656 3.29657
13 4 8.87565 11.4746 4.07413
286 2 10.6473 8.28916 5.06763
350 2 8.09764 8.15566 1.46042
292 2 10.0512 7.39923 7.95006
335 2 9.32898 10.094 2.17803
360 2 9.75739 9.08052 3.72146
36 4 2.59877 9.41604 7.56265
330 2 8.34615 12.8555 8.02326
183 3 4.16518 12.9248 8.48305
353 2 7.23726 9.31054 16.9446
40 4 1.61918 11.4304 11.3971
257 2 4.96933 7.98629 10.9473
83 1 4.25597 7.25145 10.4149
47 4 5.22848 13.5994 13.293
288 2 7.06902 7.55755 9.88524
17 4 8.62415 11.2742 15.2857
24 4 0.339163 13.6343 13.2539
59 4 3.97985 11.6752 9.46388
62 4 3.71963 11.6678 15.1879
63 4 6.16402 11.1662 11.5424
191 3 7.77073 10.0895 14.4023
148 3 1.18236 12.5124 12.5706
184 3 3.03953 11.8821 10.6792
189 3 6.41179 7.80357 14.3891
192 3 3.49058 10.2635 14.3907
193 3 4.98887 11.3187 16.3051
194 3 4.20284 12.7759 14.1249
195 3 2.39583 12.065 16.0933
196 3 5.338 11.1027 10.1894
197 3 6.08462 9.69937 12.4552
198 3 6.09945 12.57 12.394
61 4 7.04065 8.91441 13.4995
94 1 6.84875 8.56353 9.26939
97 1 7.96544 11.1523 10.7436
181 3 7.54744 11.9793 16.187
366 2 7.22749 9.50268 9.8397
295 2 7.79545 11.1694 9.66982
296 2 8.44532 10.2442 11.1534
190 3 8.24695 8.15335 12.6354
282 2 9.82778 7.55407 9.63647
92 1 10.1304 7.19743 10.7342
294 2 8.46463 12.1404 11.1203
281 2 10.4889 8.09539 11.339
57 4 6.31454 11.5472 17.1836
287 2 5.66646 8.67637 8.87972
293 2 9.34008 9.02734 8.78578
167 3 10.3267 7.09481 16.1428
28 4 3.88775 7.08937 17.2406
ITEM: TIMESTEP
200
ITEM: NUMBER OF ATOMS
366
ITEM: BOX BOUNDS xy xz yz pp pp pp
-7.8180510196723541e+00 1.5657313153002473e+01 -7.7203484030487353e+00
7.2117441858929696e-02 1.3785263820778400e+01 -1.4876759357495845e-01
-7.1564794098771145e-02 1.7318064794098724e+01 -4.5718737362614184e-02
ITEM: ATOMS id type x y z
11 4 -0.829324 4.81911 6.97534
69 1 -2.21713 5.55131 5.88426
102 3 -0.921682 3.32865 2.45568
104 3 -0.667334 4.85225 0.295177
98 3 -0.228875 1.68834 4.55894
215 2 -1.71425 6.13323 5.05142
210 2 -1.61481 5.99072 2.22765
237 2 5.22728 0.358302 4.80425
105 3 0.0196105 3.69184 6.31794
216 2 -3.04414 6.10636 6.38418
70 1 0.489213 6.21396 7.40319
9 4 0.112427 4.08499 1.57246
124 3 0.738504 5.48488 2.58621
5 4 0.76049 2.35636 5.53349
303 4 5.1769 4.66829 1.37025
29 4 5.01388 4.1809 7.85162
64 1 2.10611 3.1736 4.40212
76 1 5.47446 1.51929 4.68912
79 1 3.26992 4.67259 7.02237
99 3 1.65481 1.45958 6.54509
103 3 1.23769 3.14324 0.987692
115 3 6.47791 1.06102 1.20716
324 1 3.72101 0.563082 2.83417
126 3 5.86838 3.2124 6.91675
199 2 1.76369 2.77832 3.39925
200 2 2.99654 2.61147 4.82471
201 2 2.23655 4.3305 4.35287
244 2 2.91508 4.21266 6.01785
245 2 3.28729 5.83303 6.83832
246 2 2.4599 4.45006 7.84814
305 1 4.13914 3.60571 2.54092
217 2 0.0842168 6.07644 8.59162
310 3 4.06719 5.64133 0.673012
312 2 3.0534 3.98857 2.36923
313 2 4.37414 3.56001 3.62856
314 2 4.28614 2.57871 2.02804
355 3 1.81862 0.497684 0.82973
236 2 4.57406 2.17714 4.94187
235 2 5.94292 1.72955 3.66115
325 2 3.01479 1.53499 3.24686
219 2 1.50507 5.65678 7.16671
4 4 2.56784 0.563444 7.58988
77 1 3.19346 6.28786 4.02782
239 2 2.76678 6.18397 5.09817
326 2 4.55241 0.893266 2.08483
238 2 3.4992 5.29556 3.55977
27 4 1.51178 6.73143 3.11117
118 3 7.22361 0.862017 6.68288
68 1 -1.57092 4.10274 8.71358
106 3 -2.76765 6.34496 16.4076
332 2 -0.386365 3.8942 14.8815
212 2 -1.74331 5.02478 9.41697
331 1 -1.47701 3.47414 14.7479
213 2 -0.852728 3.37862 9.23035
252 2 -0.129714 5.59022 14.9397
202 2 -1.00647 2.50502 11.149
65 1 -0.124826 1.90318 10.6611
100 3 -0.0497424 1.63118 16.4091
254 2 0.656926 6.5971 11.8157
253 2 1.85595 5.92182 10.4855
32 4 3.41733 6.57268 12.0304
227 2 -1.34953 6.61122 11.6939
255 2 1.54819 4.76671 12.1308
251 2 1.27205 5.80389 13.609
207 2 0.243927 3.71514 13.4222
116 3 3.44975 1.30268 8.79075
204 2 0.196588 2.32668 9.61757
206 2 1.11526 2.15161 14.0393
250 2 1.72024 5.17203 15.3541
125 3 4.39928 3.77557 9.3192
8 4 1.53305 1.98827 11.7825
22 4 4.09155 2.28535 9.94515
25 4 3.7338 1.90373 15.3442
328 2 0.891228 0.528701 9.49725
30 4 5.22056 4.30223 13.7724
66 1 1.15954 3.09564 13.3488
81 1 0.961388 5.78424 14.721
82 1 1.6639 5.89284 11.6346
101 3 1.59706 0.562131 12.3508
117 3 2.78263 2.50345 10.9144
119 3 3.49845 0.643629 14.3138
120 3 4.90605 1.45669 16.4582
121 3 2.45502 2.27435 16.1539
122 3 5.44261 1.72133 10.6554
127 3 4.1537 3.37886 14.457
131 3 4.31001 5.38732 12.7204
205 2 2.05642 3.68072 13.565
359 2 -1.8541 3.42952 13.5886
333 2 -2.18497 4.01883 15.4525
3 4 1.27537 1.8687 17.2351
10 4 -1.39149 6.31272 17.2737
20 4 6.18545 1.92997 17.2835
203 2 -0.392919 0.771534 10.6347
221 2 -4.38653 8.24786 8.42017
208 2 -2.58944 7.55179 1.78201
263 2 -0.777682 11.1394 0.166083
241 2 -0.63022 7.34676 3.95978
358 2 -3.65388 13.4905 3.65052
78 1 0.408494 7.53965 4.42962
1 4 -5.15524 13.1567 1.82537
209 2 -0.788064 7.74184 1.77833
14 4 -2.31833 9.68439 7.5313
15 4 -4.14514 11.7515 6.00659
34 4 -1.45307 11.7169 3.99952
72 1 -1.36394 8.66044 6.13903
84 1 -1.62558 10.0295 3.21505
107 3 -6.00098 12.5224 3.06131
108 3 -4.32845 11.9111 0.922
109 3 -5.52862 11.1693 5.34637
110 3 -3.42828 10.5431 6.87217
111 3 -4.34102 12.9907 7.00718
134 3 -0.929606 12.6321 2.80573
135 3 -3.05871 12.1399 4.82601
223 2 -1.68437 7.52601 6.11266
225 2 -1.47417 9.22598 5.11329
261 2 -1.76966 10.3799 2.10576
224 2 -0.306381 8.86312 6.56176
259 2 -2.5544 9.38825 3.62542
289 2 -3.00123 8.33952 4.89149
290 2 -4.12282 9.0264 3.56554
338 2 -2.50399 9.45788 -0.0453385
361 2 -3.68788 9.27938 1.41091
67 1 -1.66817 6.97372 1.63035
260 2 -0.593579 9.49746 3.32489
220 2 -2.64567 7.48013 8.04531
95 1 -4.01587 8.17249 4.28932
132 3 1.8512 8.02291 2.16679
337 1 -3.55302 9.28513 0.289845
267 2 3.13692 7.83364 5.71633
142 3 1.57963 10.0682 6.61667
218 2 0.647768 7.26851 7.13041
141 3 -0.292348 11.5411 5.14197
242 2 0.67713 8.64921 4.51216
38 4 1.23225 11.6012 5.80343
243 2 0.493087 7.00993 5.52366
330 2 -7.18634 12.8714 8.107
19 4 -0.131022 13.7186 1.9628
138 3 -1.40309 10.4698 8.54379
71 1 -3.27695 8.32312 8.61328
228 2 -0.3887 7.63691 13.0815
339 2 -4.18299 8.37816 17.1809
299 3 -5.87858 10.5525 16.3756
145 3 3.20778 7.90762 12.8598
139 3 -0.757962 12.882 8.77302
147 3 1.94288 9.9193 12.0983
226 2 -0.7764 8.38984 11.2878
297 4 -4.51788 10.9008 17.0454
222 2 -2.99915 8.33754 9.70245
300 2 -3.45249 12.8973 16.0596
302 2 -2.15364 11.514 16.1915
301 2 -3.49321 11.4741 14.7257
342 2 -1.38488 11.4919 14.2305
73 1 -1.07551 7.62729 12.1226
6 4 -5.18377 13.351 13.4515
16 4 -2.42894 8.56974 13.1367
18 4 -3.43526 11.3622 11.5636
37 4 -0.907729 11.6028 9.62429
74 1 -1.57331 9.41596 14.6263
75 1 -4.46079 11.005 10.0468
112 3 -3.54332 7.61851 13.9066
113 3 -3.11241 9.78819 12.2882
114 3 -4.24162 12.41 12.4217
140 3 -2.16193 11.8955 10.8286
229 2 -2.2086 10.2242 15.0543
230 2 -0.707183 9.74973 13.9039
231 2 -1.23745 8.60213 15.3573
232 2 -4.16804 11.9043 9.40613
234 2 -4.13046 9.93805 9.50601
298 1 -3.23948 11.8155 15.816
340 1 -1.16033 12.6195 14.0753
341 2 -1.03501 13.1526 15.1237
356 3 -6.07574 12.342 14.298
329 2 -5.72489 12.5161 9.28126
262 2 -0.522039 11.5319 15.6324
362 2 -0.119235 9.82205 16.4515
130 3 -0.241083 7.57082 16.485
233 2 -5.61094 10.9654 10.476
144 3 1.23134 8.68438 14.5932
343 2 -1.97729 13.1676 13.45
85 1 -0.253421 10.954 16.6429
265 2 0.479382 8.6628 8.72423
39 4 2.45064 9.17611 13.5059
129 3 2.5594 7.33997 16.5288
146 3 0.404926 11.1139 10.3982
266 2 1.83711 8.71985 10.122
86 1 1.57202 8.46312 8.99744
31 4 1.16017 7.49283 15.6774
264 2 1.96019 7.40709 8.71002
327 1 -6.38472 13.3415 8.73984
258 2 3.30872 7.7575 9.81674
344 1 14.0458 1.07447 8.08722
304 4 6.69087 6.39907 3.79421
308 1 6.19151 5.8776 5.40787
311 3 6.05022 5.5665 2.55017
321 2 5.09877 6.01506 5.39189
80 1 6.14773 5.65267 8.31303
249 2 5.40295 6.41663 7.83549
323 2 6.54714 4.82869 5.45892
247 2 7.08551 5.50057 7.69271
169 3 9.62133 3.42661 8.60932
151 3 7.83747 2.72378 4.76563
276 2 8.03574 4.31346 6.74536
43 4 11.6117 1.7117 0.152711
273 2 11.4929 6.23316 2.32624
306 1 8.68196 6.52825 3.66899
150 3 8.45073 0.907676 2.88282
277 2 8.69744 5.623 5.47808
274 2 10.7261 5.49072 3.81618
2 4 14.1235 2.11853 3.51073
42 4 9.00816 2.24444 3.62195
46 4 11.6305 2.31754 5.30686
50 4 10.3053 4.19127 1.62705
52 4 10.2323 4.32304 7.3191
89 1 11.3541 5.31132 2.90765
90 1 8.76429 5.18918 6.59158
149 3 13.5297 0.844586 2.79249
153 3 11.8163 0.347458 1.03932
156 3 12.8875 2.79102 4.36593
157 3 10.4488 1.84934 4.35208
158 3 12.0702 1.0608 6.26988
165 3 9.15964 3.42906 2.60185
166 3 11.3295 3.16376 0.942525
168 3 9.74589 5.32116 0.636539
170 3 11.108 3.54289 6.22753
275 2 8.76823 6.01734 7.39328
91 1 11.3221 5.70508 8.17649
211 2 13.0455 3.60184 8.46737
364 2 12.2798 4.68259 3.04588
315 2 9.34786 5.53451 3.82495
271 2 11.5889 6.46815 7.35737
270 2 12.3269 5.08625 8.4315
346 2 14.0898 1.9458 7.45388
345 2 15.1327 0.566539 8.33725
309 3 5.95144 3.56897 0.400825
23 4 6.77598 2.1503 5.88885
214 2 13.077 4.40846 5.58572
248 2 6.35468 5.79771 9.41687