ITEM: TIMESTEP
0
ITEM: NUMBER OF ATOMS
366
ITEM: BOX BOUNDS xy xz yz pp pp pp
-7.8259280126619677e+00 1.5672935023048570e+01 -7.7280764795282639e+00
7.2117441858929696e-02 1.3785263820778400e+01 -1.4891651008504350e-01
-7.1564794098771145e-02 1.7318064794098724e+01 -4.5718737362614184e-02
ITEM: ATOMS id type x y z
11 4 -0.732825 4.92457 7.06488
69 1 -2.09401 5.45902 5.8004
102 3 -0.944794 3.28769 2.40261
104 3 -0.569916 5.03577 0.195375
98 3 -0.271291 1.74308 4.49207
215 2 -2.14251 6.24355 5.04785
210 2 -1.61804 6.32451 2.20496
19 4 7.62067 0.154705 1.90062
105 3 0.0825244 3.7819 6.36086
216 2 -3.04315 5.52411 6.64348
70 1 0.404154 6.37697 7.46222
9 4 0.0929003 4.24794 1.49486
124 3 0.701873 5.40082 2.38365
5 4 0.768618 2.46961 5.56132
303 4 5.32993 4.56564 1.31036
29 4 4.74115 4.26926 7.74032
64 1 2.16569 3.30448 4.47585
76 1 5.49435 1.3339 4.78935
79 1 3.07613 5.07446 7.02064
99 3 1.61557 1.44527 6.66256
103 3 1.2829 3.31029 0.84989
115 3 6.52447 0.96823 1.05631
324 1 3.717 0.21638 2.78228
126 3 5.66291 3.27258 6.80861
199 2 1.72658 2.80334 3.50567
200 2 3.00595 2.71298 4.86318
201 2 2.51188 4.37945 4.3313
244 2 2.71112 4.35288 6.10557
245 2 3.26963 6.28302 6.81267
246 2 2.40426 4.90504 7.9666
305 1 4.24168 3.45174 2.45012
309 3 5.89245 3.54856 0.258524
310 3 4.10351 5.50902 0.852088
312 2 3.12337 3.84779 2.24219
313 2 4.62359 3.66948 3.51867
314 2 4.3022 2.31274 2.1808
355 3 1.98414 0.652988 0.502914
236 2 4.60184 1.99853 4.74423
235 2 6.10717 1.41051 3.81773
325 2 3.05097 1.117 3.24722
219 2 1.33351 6.45363 6.87143
4 4 2.45254 0.411168 7.64221
77 1 3.28952 6.19841 3.89889
239 2 2.96801 5.96255 5.01777
326 2 4.56091 0.514477 2.03678
238 2 3.63678 5.16118 3.40628
214 2 -2.25325 4.48152 5.17417
27 4 1.48601 6.7665 3.0497
237 2 5.15924 0.194994 4.97785
217 2 0.547039 5.97933 8.57423
68 1 -1.63301 4.30045 8.73058
106 3 -2.59528 6.26402 16.2916
332 2 -0.5329 3.95929 15.0073
212 2 -2.06433 5.22098 9.26603
331 1 -1.63385 3.57662 14.8958
213 2 -0.956547 3.73932 9.40733
252 2 -0.423666 6.0872 14.5635
202 2 -1.11225 2.30748 11.2937
65 1 -0.259899 1.62839 10.8541
100 3 -0.0474182 1.85826 16.2558
254 2 1.01787 6.46357 11.6352
253 2 2.19389 5.47913 10.4732
32 4 3.59173 6.38451 12.0314
20 4 6.07218 1.94336 17.2456
255 2 1.58616 4.6288 12.181
251 2 1.23669 5.80008 13.5618
207 2 0.242602 3.6827 13.1281
359 2 -1.99683 3.53012 13.7004
204 2 0.127608 1.95727 9.88602
206 2 0.885884 2.21527 14.0682
250 2 1.05998 5.03693 15.3261
125 3 4.24468 3.63817 9.19913
8 4 1.53159 1.77851 11.8393
22 4 3.93952 2.17138 9.83203
25 4 3.77847 1.82724 15.2613
328 2 0.686229 0.255631 9.63901
30 4 5.2225 4.20517 13.6372
66 1 1.12977 2.97747 13.3322
81 1 0.723117 5.92558 14.6309
82 1 1.86451 5.70868 11.5923
101 3 1.65968 0.274676 12.3484
117 3 2.69779 2.40668 10.8402
119 3 3.29326 0.49222 14.5543
120 3 4.89963 1.34919 16.3083
121 3 2.48995 2.5835 16.1342
122 3 5.268 1.64831 10.5819
127 3 4.3837 2.97067 14.1753
131 3 4.34636 5.16685 12.7997
205 2 2.15749 3.41597 13.4883
10 4 -1.37289 6.42052 17.2988
3 4 1.32802 2.04624 17.078
227 2 -1.07262 6.3726 12.9392
116 3 3.34927 1.2738 8.66141
221 2 -4.34196 8.30749 8.54183
208 2 -3.06518 7.3963 1.59345
263 2 -0.632726 11.2114 0.0825335
241 2 -0.588475 7.23246 3.92851
358 2 -3.60054 13.1431 3.67211
78 1 0.461031 7.47294 4.43246
1 4 -5.42099 13.2907 1.69096
209 2 -1.43549 8.15921 1.6749
14 4 -2.33794 9.55902 7.58212
15 4 -4.13416 11.8123 5.93335
34 4 -1.23484 11.5753 3.9422
72 1 -1.51239 8.62364 6.16023
84 1 -1.63149 9.93932 3.19636
107 3 -6.43701 12.7224 2.77834
108 3 -4.73433 11.7495 0.951636
109 3 -5.37458 11.4649 4.96915
110 3 -3.71927 10.4825 6.90968
111 3 -4.50534 13.0046 6.83034
134 3 -0.954829 12.5608 2.69004
135 3 -2.89826 12.1693 4.95828
223 2 -1.74702 7.44156 6.04458
225 2 -1.57401 9.12403 5.05397
261 2 -1.6914 10.2794 2.05968
224 2 -0.427808 8.82977 6.57068
259 2 -2.63147 9.36304 3.60144
289 2 -3.21573 8.36819 5.04881
290 2 -4.19703 9.07964 3.63758
338 2 -2.34064 9.26952 0.140784
361 2 -3.82212 9.50069 1.3834
67 1 -1.98321 7.18917 1.4833
260 2 -0.637118 9.36867 3.30681
220 2 -2.62496 7.38905 8.18964
95 1 -4.19658 8.28192 4.41132
132 3 1.80036 7.97927 2.02072
337 1 -3.44097 9.36618 0.281124
138 3 -1.32864 10.3287 8.58991
142 3 1.58285 9.95636 6.48689
218 2 -0.231463 7.35796 7.34401
141 3 -0.0785639 11.3787 5.04917
242 2 0.729351 8.62532 4.41693
243 2 0.472047 7.08019 5.55709
267 2 3.59031 7.52996 5.69097
228 2 -0.187935 7.93271 12.3053
71 1 -3.17389 8.27846 8.77728
299 3 -5.87201 10.3478 16.143
145 3 3.25009 7.79284 12.9901
139 3 -0.811642 12.8985 8.75567
147 3 1.88881 10.0599 12.3368
226 2 -1.60862 7.11021 11.2803
297 4 -4.53569 10.874 17.0581
222 2 -3.00814 8.26409 9.86338
300 2 -3.28933 12.9156 16.3764
302 2 -2.07664 11.5477 16.2976
301 2 -3.3772 11.6935 14.9657
342 2 -1.23568 11.5499 14.1296
73 1 -1.15624 7.30622 12.3116
6 4 -5.19087 13.123 13.5115
16 4 -2.42511 8.49063 13.1608
18 4 -3.32929 11.1974 11.6421
37 4 -0.869584 11.521 9.58698
74 1 -1.51428 9.51928 14.4805
75 1 -4.43957 10.984 10.1076
112 3 -3.30579 7.43204 14.0187
113 3 -3.11643 9.59605 12.1728
114 3 -4.11536 12.1338 12.7415
140 3 -1.96882 11.6617 10.9255
229 2 -2.10351 10.4058 15.0546
230 2 -0.701239 9.95505 13.8211
231 2 -1.066 8.76657 15.2447
232 2 -4.13902 11.8831 9.43392
234 2 -4.04472 9.90944 9.63486
298 1 -3.10022 11.8427 16.0647
340 1 -1.3019 12.7754 14.1072
341 2 -1.2764 13.2905 15.1381
356 3 -6.25492 12.2269 14.2932
329 2 -5.80179 12.3499 9.36891
262 2 -0.414541 11.7627 15.6792
362 2 0.0345771 10.0461 16.3044
130 3 -0.285891 7.67069 16.5445
233 2 -5.58453 11.0079 10.4875
144 3 1.32891 8.74039 14.5938
343 2 -2.12529 13.2192 13.4092
85 1 -0.0703726 11.0964 16.6046
265 2 0.429845 8.69145 8.64802
39 4 2.52165 9.2414 13.5676
129 3 2.59521 7.08092 16.4981
146 3 0.559167 11.2149 10.2148
266 2 1.73933 8.98421 9.99496
86 1 1.51701 8.54963 9.00847
31 4 1.23753 7.46293 15.5789
264 2 1.82674 7.45144 8.84121
327 1 -6.53595 13.2081 8.8503
258 2 3.21776 7.68416 9.82364
339 2 -4.09574 8.43903 17.106
344 1 14.1321 1.23115 8.20839
304 4 6.76471 6.54398 3.66054
308 1 6.17344 6.00518 5.3019
311 3 6.28735 5.5628 2.48089
321 2 5.05042 6.17142 5.34373
80 1 6.04287 5.58407 8.12374
249 2 5.48007 6.50132 7.85951
323 2 6.55938 4.89547 5.24276
247 2 7.00355 5.46025 7.41244
169 3 9.47768 3.38689 8.54933
151 3 7.99672 2.93737 4.92217
276 2 7.95486 4.49855 6.49837
43 4 11.5659 1.80507 0.127663
273 2 11.5875 6.46424 2.25721
306 1 8.71162 6.8338 3.63176
150 3 8.31072 1.2053 2.98432
277 2 8.83602 5.84744 5.37537
274 2 10.6809 5.53486 3.79277
2 4 14.0781 2.17144 3.41669
42 4 8.93597 2.39691 3.75039
46 4 11.6279 2.19901 5.29796
50 4 10.3795 4.28795 1.65619
52 4 10.0942 4.22073 7.29575
89 1 11.3893 5.42926 2.84085
90 1 8.79623 5.28251 6.46933
149 3 13.4934 0.891222 2.72852
153 3 11.5307 0.458364 1.19947
156 3 12.9456 2.87806 4.36826
157 3 10.317 1.80129 4.42576
158 3 12.1855 1.04459 6.34429
165 3 9.26503 3.64549 2.71897
166 3 11.389 3.19953 1.04584
168 3 9.94519 5.45971 0.647238
170 3 10.9791 3.3338 6.29655
275 2 8.72034 6.03676 7.3848
91 1 11.1864 5.73162 8.02058
211 2 13.1412 3.5961 8.34975
364 2 12.2855 4.77919 2.9845
315 2 9.32178 5.86748 3.7698
271 2 11.3194 6.49397 7.16247
270 2 12.2486 5.1976 8.30851
346 2 14.3494 2.16974 7.60526
345 2 15.1015 0.581679 8.40992
118 3 7.41765 1.10773 6.88852
23 4 6.64583 2.17902 5.97755
248 2 6.38499 5.6022 9.19417
26 4 6.61845 2.16174 11.3184
128 3 6.36336 3.58555 12.5711
174 3 6.00658 4.98125 14.7151
54 4 6.42772 6.51945 15.3192
162 3 7.55022 1.9305 16.3416
285 2 5.96521 6.42803 10.8213
284 2 6.93405 5.01884 11.7302
93 1 7.0849 5.97219 11.0516
175 3 7.80765 6.37569 16.2034
256 2 4.79394 6.49548 9.54331
155 3 7.73588 2.56999 10.3409
283 2 7.7221 5.78579 10.1124
365 2 10.7309 6.22299 10.6033
203 2 15.028 0.511313 10.8387
363 2 13.5925 1.55018 9.17159
279 2 10.78 6.29397 8.92835
280 2 13.3062 3.83377 10.6365
12 4 11.7588 6.41025 15.2686
7 4 14.096 1.80744 15.5857
45 4 9.17905 2.20287 9.68288
48 4 8.82715 2.04938 15.5109
49 4 11.5251 2.38517 11.9832
51 4 9.3577 6.51934 17.0109
53 4 9.90685 4.34792 13.8724
88 1 12.9747 3.52165 11.7738
152 3 12.7755 1.71466 16.61
159 3 14.036 0.867117 14.2066
160 3 8.7393 0.825031 14.4177
161 3 10.1646 1.90372 16.5225
163 3 10.5214 2.30083 10.6727
164 3 12.2657 0.92985 12.4553
171 3 8.88093 3.55184 14.8186
172 3 10.6498 3.22381 13.0361
173 3 11.1304 5.08278 14.835
177 3 9.37095 5.54269 12.7811
272 2 12.8823 4.32736 12.5438
55 4 8.67916 6.72151 11.9195
154 3 9.13695 0.811522 8.96288
123 3 7.1772 1.11617 12.3752
333 2 13.2513 4.09185 15.6225
35 4 1.64299 11.7878 0.0530676
334 1 8.90859 9.90482 3.14077
44 4 5.14577 13.7307 7.381
268 2 4.4826 9.07209 6.34569
278 2 11.4474 7.17844 3.94661
21 4 0.335509 13.6651 7.90017
41 4 4.9897 13.4053 1.97146
318 2 5.15403 8.29806 2.60313
291 2 9.73838 9.07709 6.94524
33 4 2.81868 9.24078 1.6827
240 2 4.16921 7.0142 3.83248
56 4 3.78792 11.231 4.01049
60 4 6.32448 11.3185 5.80602
87 1 3.82516 8.21284 6.64038
133 3 4.16315 8.49516 0.93996
96 1 9.35269 8.43697 7.79736
143 3 1.2184 12.5793 6.9759
178 3 3.33849 9.93942 3.18416
179 3 4.33166 12.2822 2.95671
180 3 2.59398 11.9383 4.82113
186 3 4.91239 10.8191 5.26234
187 3 6.96176 9.98741 6.45357
188 3 6.24093 12.6094 6.79184
269 2 4.19484 7.67505 7.51578
307 1 5.72995 8.32272 3.5885
319 2 6.59529 9.0955 3.59395
320 2 5.03457 8.48599 4.46058
357 3 6.13326 12.5422 1.00437
322 2 7.05895 7.00823 6.39726
351 1 6.87114 9.95066 0.610904
58 4 7.50795 8.6452 7.34011
185 3 7.42703 11.6693 4.64639
136 3 2.20607 10.4469 0.886443
352 2 7.5303 9.89506 1.56299
354 2 5.90323 9.4546 0.84102
182 3 3.41102 10.487 8.51104
137 3 0.934724 12.9849 1.00046
347 1 9.32879 8.11252 0.769355
316 2 9.01344 7.58517 4.47042
349 2 10.1239 7.92482 1.51915
317 2 8.90195 7.28425 2.54844
336 2 7.92931 9.31346 3.27497
13 4 8.82025 11.6151 3.95684
286 2 10.5489 8.42509 5.12526
350 2 8.27357 8.13425 1.18057
292 2 9.98346 7.38818 7.91505
335 2 9.04843 10.1993 2.04089
360 2 9.90295 9.32686 3.57723
36 4 2.59772 9.51302 7.59357
330 2 8.36576 12.8043 8.04063
28 4 4.09413 7.07473 -0.00459916
348 2 9.53959 9.06115 0.0589803
38 4 1.32563 11.6 5.7929
183 3 4.35585 13.0781 8.62303
176 3 5.21226 7.0035 16.4062
40 4 1.63749 11.4627 11.4996
257 2 4.87838 7.88099 10.8731
83 1 4.16822 7.13826 10.3232
47 4 5.33842 13.5428 13.4317
288 2 6.89797 7.61794 9.85893
17 4 8.66254 11.1292 15.2331
24 4 0.234691 13.7067 13.2964
59 4 3.97487 11.7082 9.56409
62 4 3.85496 11.5923 15.3498
63 4 6.23945 11.1379 11.585
191 3 7.90098 9.99187 14.3349
148 3 0.892603 12.5223 12.4696
184 3 3.00109 12.0359 10.7581
189 3 6.4656 7.73422 14.3429
192 3 3.40544 10.338 14.4981
193 3 5.12436 11.126 16.1858
194 3 4.32289 12.7305 14.3183
195 3 2.5002 12.1483 16.2937
196 3 5.4091 11.186 10.2148
197 3 6.12948 9.77417 12.4692
198 3 6.1268 12.5025 12.5185
61 4 7.11712 8.88756 13.5179
94 1 6.80156 8.60425 9.13896
97 1 8.08327 10.9499 10.9585
181 3 7.56867 11.8283 16.2508
366 2 7.32184 9.50317 9.74219
295 2 8.01583 11.2525 9.80995
296 2 8.47656 9.88232 11.1639
190 3 8.16907 8.07158 12.5153
282 2 9.69819 7.48394 9.58367
92 1 10.0454 7.15822 10.6424
294 2 8.55873 11.7602 11.624
281 2 10.4686 7.99452 11.307
57 4 6.30227 11.5786 17.1873
287 2 5.73658 8.86794 8.85019
293 2 9.29656 9.0692 8.76725
167 3 10.5466 7.21002 16.1501
353 2 7.28077 9.30745 17.2508
ITEM: TIMESTEP
100
ITEM: NUMBER OF ATOMS
366
ITEM: BOX BOUNDS xy xz yz pp pp pp
-7.8346228274560659e+00 1.5672935023048570e+01 -7.7280764795282639e+00
7.2117441858929696e-02 1.3785263820778400e+01 -1.5761132487914153e-01
-7.1564794098771145e-02 1.7318064794098724e+01 -4.5718737362614184e-02
ITEM: ATOMS id type x y z
11 4 -0.815622 4.83105 7.04469
69 1 -2.15341 5.49988 5.75269
102 3 -0.888895 3.26081 2.46868
104 3 -0.539554 4.95063 0.187401
98 3 -0.304701 1.69039 4.58563
215 2 -1.48105 6.10358 5.0714
210 2 -1.12438 6.52308 2.26749
237 2 5.20812 0.313775 4.96174
105 3 -0.0520974 3.66689 6.333
216 2 -2.94672 6.1664 6.28917
70 1 0.442095 6.27791 7.45995
9 4 0.111705 4.16076 1.48635
124 3 0.900729 5.2503 2.35502
5 4 0.730626 2.38908 5.50791
303 4 5.23854 4.70449 1.35854
29 4 4.90595 4.16507 7.74055
64 1 2.06997 3.16884 4.31531
76 1 5.47318 1.40695 4.78049
79 1 3.28449 4.67061 6.86207
99 3 1.57237 1.43442 6.58908
103 3 1.30545 3.10977 1.07246
115 3 6.49546 1.04561 1.15814
324 1 3.89706 0.357371 2.65047
126 3 5.72132 3.29971 6.76256
199 2 1.6353 2.80152 3.31429
200 2 2.95499 2.58446 4.64048
201 2 2.36454 4.34664 4.2621
244 2 2.86398 4.00311 6.02427
245 2 3.56777 5.63087 6.48733
246 2 2.54792 4.76404 7.75643
305 1 4.05698 3.52901 2.25648
217 2 0.471252 5.94389 8.57499
310 3 4.13543 5.83632 0.824299
312 2 2.98481 4.10968 2.12645
313 2 4.47154 3.64363 3.32317
314 2 3.96457 2.47664 1.95679
355 3 1.86438 0.629321 0.755716
236 2 4.62108 2.1204 4.9754
235 2 5.97727 1.60447 3.75415
325 2 3.31344 1.18022 3.06355
219 2 1.49829 6.14338 6.99302
4 4 2.39156 0.505028 7.61585
77 1 3.14675 6.1752 3.89652
239 2 2.90774 5.99955 4.93015
326 2 4.66498 0.701611 1.92596
238 2 3.48619 5.16724 3.30323
27 4 1.49422 6.79915 3.01223
214 2 -2.50955 4.59658 5.22995
19 4 7.61539 0.127265 1.94269
68 1 -1.62611 4.12503 8.70255
106 3 -2.68878 6.26954 16.2981
332 2 -0.747066 3.876 14.8955
212 2 -1.73598 5.06596 9.32698
331 1 -1.85156 3.49966 14.8023
213 2 -1.02326 3.28668 9.28837
252 2 -0.33077 5.74147 14.7199
202 2 -1.16155 2.41166 11.1088
65 1 -0.268107 1.80191 10.6932
100 3 -0.140828 1.89888 16.3816
254 2 0.808165 6.71188 11.6476
253 2 2.00486 5.81428 10.4397
32 4 3.46357 6.5834 12.0319
20 4 6.16864 1.94287 17.283
255 2 1.52728 4.90423 12.149
251 2 1.14862 6.00836 13.5026
207 2 0.554139 4.06243 13.3365
116 3 3.32291 1.38031 8.69395
204 2 0.269299 2.28221 9.82586
206 2 1.03094 2.30524 14.101
250 2 1.40532 5.06742 15.1224
125 3 4.44895 3.65726 9.23023
8 4 1.40792 1.90648 11.8806
22 4 3.9596 2.27795 9.9325
25 4 3.8112 1.88286 15.3828
328 2 0.753979 0.424657 9.54388
30 4 5.33812 4.18103 13.6032
66 1 1.31053 3.23097 13.3106
81 1 0.783173 5.891 14.5984
82 1 1.65801 5.935 11.5337
101 3 1.60804 0.379952 12.4038
117 3 2.66402 2.42256 10.9826
119 3 3.28052 0.696266 14.3286
120 3 5.04526 1.29981 16.3416
121 3 2.54965 2.34246 16.2228
122 3 5.23938 1.75591 10.6834
127 3 4.55958 3.11958 14.4851
131 3 4.3957 5.28046 12.7528
205 2 2.42877 3.52436 13.3517
10 4 -1.4007 6.41096 17.2646
3 4 1.34049 1.92358 17.2977
227 2 -1.41581 6.29036 12.5064
221 2 -4.28708 8.49214 8.43672
208 2 -2.87363 7.05631 1.85085
263 2 -0.749845 11.4126 0.105029
241 2 -0.601326 7.10973 3.93553
358 2 -3.45478 13.2545 3.39767
78 1 0.449717 7.40676 4.44597
1 4 -5.3458 13.2148 1.71092
209 2 -1.30003 8.21043 1.45154
14 4 -2.28529 9.64198 7.52161
15 4 -4.13317 11.7697 5.87802
34 4 -1.36087 11.7593 3.9541
72 1 -1.4184 8.70255 6.10323
84 1 -1.77927 10.092 3.1713
107 3 -6.31624 12.6195 2.78722
108 3 -4.51976 11.9626 0.995856
109 3 -5.56377 11.3366 5.26634
110 3 -3.41424 10.4437 6.77715
111 3 -4.47956 13.0007 6.83249
134 3 -0.97865 12.8506 2.89646
135 3 -2.94492 12.075 4.85846
223 2 -1.68563 7.49806 6.03935
225 2 -1.52139 9.23124 4.9963
261 2 -2.08957 10.3219 2.09117
224 2 -0.399674 8.90634 6.51921
259 2 -2.61773 9.36626 3.62459
289 2 -3.08321 8.35017 4.96029
290 2 -4.16679 8.89018 3.50237
243 2 0.569391 6.98722 5.5706
361 2 -3.55919 9.21085 1.37379
67 1 -1.77484 7.12921 1.54098
260 2 -0.735768 9.61947 3.25176
220 2 -2.65684 7.52905 8.22799
95 1 -4.10629 8.15907 4.38044
132 3 1.76226 8.03625 2.02337
337 1 -3.614 9.25529 0.252195
267 2 3.27643 7.81971 5.52607
142 3 1.6097 10.0894 6.45051
218 2 0.024708 7.33039 7.40637
141 3 -0.0226134 11.4847 4.84847
242 2 0.502098 8.55291 4.41677
38 4 1.28999 11.5151 5.80057
269 2 3.70924 7.28486 7.30584
228 2 -0.287391 7.79325 13.0515
71 1 -3.20799 8.43019 8.69675
299 3 -5.80701 10.6136 16.3429
145 3 3.15247 7.82227 12.9973
338 2 -2.77632 9.37883 17.1917
147 3 1.89233 9.95671 12.2093
226 2 -1.20935 7.83086 11.3436
297 4 -4.4867 10.9429 17.1345
222 2 -3.12098 8.35335 9.82408
300 2 -3.4375 12.9715 16.0037
302 2 -2.09719 11.597 16.2497
301 2 -3.57436 11.4801 14.917
342 2 -1.31525 11.6171 14.1843
73 1 -1.1892 7.39981 12.4032
6 4 -5.24424 13.1612 13.4564
16 4 -2.36295 8.59723 13.2217
18 4 -3.33151 11.2561 11.4721
37 4 -0.941768 11.6132 9.69551
74 1 -1.36843 9.56807 14.5464
75 1 -4.48541 11.061 10.0159
112 3 -3.48494 7.47708 14.1514
113 3 -2.97681 9.66958 12.1043
114 3 -4.09364 12.136 12.6093
140 3 -1.97855 11.9223 10.88
229 2 -2.11034 10.3847 14.952
230 2 -0.524988 9.97848 14.0293
231 2 -1.05916 8.83932 15.4048
232 2 -4.25109 11.8965 9.35052
234 2 -4.04799 10.0507 9.60507
298 1 -3.20671 11.8574 15.9078
340 1 -1.22535 12.8214 14.1087
341 2 -1.25607 13.3429 15.1374
356 3 -6.11289 12.1795 14.3022
329 2 -5.88404 12.5215 9.35299
262 2 -0.487982 11.7534 15.608
362 2 0.0368765 9.98904 16.5454
130 3 -0.20414 7.63607 16.5195
233 2 -5.60755 11.0133 10.3125
144 3 1.31544 8.70332 14.4635
343 2 -2.04929 13.1762 13.4335
85 1 -0.161369 11.1461 16.6926
265 2 0.503974 8.89123 8.88366
39 4 2.49709 9.24077 13.5193
129 3 2.56802 7.12795 16.4135
146 3 0.423111 11.1728 10.3374
266 2 1.91326 8.94596 10.0436
86 1 1.52332 8.54318 9.06521
31 4 1.13494 7.49299 15.6209
264 2 1.76854 7.4714 8.86755
327 1 -6.55887 13.317 8.7862
258 2 3.19586 7.82905 9.91169
339 2 -4.36956 8.40764 17.1023
138 3 -1.41426 10.274 8.65533
139 3 -0.875974 12.7918 8.66008
344 1 13.9596 1.08628 8.18616
304 4 6.75473 6.49994 3.6924
308 1 6.31175 5.94896 5.33892
311 3 6.22673 5.51765 2.55082
321 2 5.20863 5.97932 5.29976
80 1 6.02367 5.76329 8.16478
249 2 5.4048 6.63679 7.75677
323 2 6.77307 4.87361 5.23599
247 2 7.02113 5.59978 7.53995
169 3 9.56459 3.23788 8.50752
151 3 7.86604 2.79732 4.9145
276 2 8.01031 4.42123 6.69133
43 4 11.5804 1.68697 0.106746
273 2 11.3407 6.24614 2.34466
306 1 8.78002 6.72119 3.72918
150 3 8.48614 1.0843 2.84593
277 2 8.80597 5.80405 5.55943
274 2 10.7229 5.25834 4.03249
2 4 14.1129 2.07657 3.54788
42 4 8.97328 2.29297 3.65805
46 4 11.6914 2.23274 5.28112
50 4 10.4018 4.17496 1.69564
52 4 10.1977 4.30753 7.33618
89 1 11.348 5.24661 3.00466
90 1 8.81756 5.3087 6.62698
149 3 13.6334 0.807434 2.78608
153 3 11.7158 0.405488 1.064
156 3 12.8746 2.82316 4.43777
157 3 10.3925 1.95675 4.32497
158 3 12.0434 0.897693 6.18647
165 3 9.2395 3.48072 2.67793
166 3 11.3904 3.10185 1.09728
168 3 9.72136 5.20784 0.581238
170 3 11.2157 3.69227 6.29437
275 2 8.7562 6.06971 7.51331
91 1 11.2933 5.78999 8.08267
211 2 13.0386 3.71695 8.28381
364 2 12.3585 4.7797 3.1143
315 2 9.38692 5.76854 3.81478
271 2 11.6145 6.48502 7.23019
270 2 12.2898 5.23917 8.42883
346 2 14.0526 2.0083 7.54946
345 2 15.0154 0.598789 8.40116
118 3 7.39853 1.16068 6.99821
23 4 6.78665 2.16197 5.9326
309 3 5.94597 3.63027 0.529279
248 2 6.22672 5.80041 9.29395
26 4 6.61927 2.2897 11.4295
128 3 6.17124 3.41445 12.4367
174 3 6.09352 5.08403 14.6049
54 4 6.4083 6.58045 15.3723
162 3 7.43974 1.95775 16.4814
285 2 6.12055 6.50233 10.8941
284 2 6.99172 4.96504 11.7008
93 1 7.19549 5.92249 11.1236
175 3 7.72662 6.56523 16.1798
256 2 4.86043 6.72093 9.54237
155 3 7.81371 2.91897 10.4884
283 2 7.92668 5.81016 10.1399
365 2 10.8619 6.3225 10.6637
203 2 15.0941 0.679159 10.5798
363 2 13.4102 1.27746 9.206
279 2 10.7723 6.33423 9.0455
280 2 13.308 3.77893 10.6216
12 4 11.6131 6.49452 15.2553
7 4 13.9973 1.80928 15.6079
45 4 9.13413 2.27637 9.68679
48 4 8.89802 1.88513 15.5538
49 4 11.5237 2.46797 11.8944
51 4 9.08652 6.59005 17.0628
53 4 9.95672 4.23485 14.0228
88 1 12.9471 3.64301 11.7102
152 3 12.7655 1.7815 16.5265
159 3 13.9523 0.616941 14.2525
160 3 8.75945 0.759805 14.3948
161 3 10.0575 1.57913 16.5739
163 3 10.5737 2.38959 10.6348
164 3 12.2463 1.07085 12.3235
171 3 8.98133 3.45529 14.96
172 3 10.7022 3.17559 13.1175
173 3 11.2606 5.01615 14.7523
177 3 9.17484 5.53507 13.0275
272 2 12.7722 4.52884 12.3785
55 4 8.7148 6.72768 12.0596
154 3 8.88861 0.74798 9.19323
123 3 7.31057 1.03223 12.304
333 2 13.0131 4.03512 15.4723
359 2 13.4661 3.54485 13.6311
176 3 5.27976 6.9033 16.4751
35 4 1.6691 11.7455 -0.0177789
334 1 8.94491 9.78797 3.23861
44 4 5.08215 13.5668 7.24163
268 2 4.70565 8.62069 6.48423
278 2 11.513 7.05307 3.98608
21 4 0.341906 13.7082 7.97344
41 4 5.15511 13.3569 1.94981
318 2 5.15465 8.26479 2.68493
291 2 9.69185 8.90426 6.81534
33 4 2.95777 9.21403 1.71018
240 2 4.0439 6.96794 3.80169
56 4 3.7291 11.2634 3.97907
60 4 6.31957 11.2281 5.65744
87 1 3.67657 8.17981 6.57904
133 3 4.3265 8.63043 1.09187
96 1 9.37135 8.30133 7.80512
143 3 1.19484 12.7182 6.93562
178 3 3.29279 9.79756 3.23563
179 3 4.39134 12.2677 2.90426
180 3 2.41276 11.8571 4.62241
186 3 4.92683 10.7599 5.05258
187 3 6.98039 9.97681 6.70181
188 3 6.13462 12.5221 6.55017
348 2 9.32414 8.96943 0.202684
307 1 5.74019 8.25331 3.6424
319 2 6.52868 9.13255 3.66778
320 2 5.0523 8.22168 4.55897
357 3 6.11575 12.5418 0.992095
322 2 7.02612 7.02321 6.42669
351 1 6.85829 9.85546 0.39569
58 4 7.46936 8.61818 7.49442
185 3 7.42659 11.5025 4.48225
136 3 2.26903 10.3575 0.874956
352 2 7.42715 9.95538 1.37358
354 2 5.81338 9.26862 0.644608
182 3 3.41884 10.335 8.47694
137 3 1.00077 12.8709 0.943808
347 1 9.10418 8.12501 0.90021
316 2 8.93503 7.51903 4.5245
349 2 9.99438 7.93342 1.62748
317 2 8.96821 7.18091 2.6727
336 2 7.907 9.30656 3.29657
13 4 8.87799 11.4746 4.07413
286 2 10.65 8.28916 5.06763
350 2 8.1009 8.15566 1.46042
292 2 10.0522 7.39923 7.95006
335 2 9.3325 10.094 2.17803
360 2 9.76034 9.08052 3.72146
36 4 2.59622 9.41604 7.56265
330 2 8.34625 12.8555 8.02326
183 3 4.16296 12.9248 8.48305
353 2 7.23235 9.31054 16.9446
40 4 1.61423 11.4304 11.3971
257 2 4.96628 7.98629 10.9473
83 1 4.25283 7.25145 10.4149
47 4 5.22439 13.5994 13.293
288 2 7.06755 7.55755 9.88524
17 4 8.62076 11.2742 15.2857
24 4 0.332644 13.6343 13.2539
59 4 3.97705 11.6752 9.46388
62 4 3.71384 11.6678 15.1879
63 4 6.16127 11.1662 11.5424
191 3 7.76735 10.0895 14.4023
148 3 1.1766 12.5124 12.5706
184 3 3.03565 11.8821 10.6792
189 3 6.40774 7.80357 14.3891
192 3 3.48507 10.2635 14.3907
193 3 4.98315 11.3187 16.3051
194 3 4.19782 12.7759 14.1249
195 3 2.38892 12.065 16.0933
196 3 5.33551 11.1027 10.1894
197 3 6.08138 9.69937 12.4552
198 3 6.09625 12.57 12.394
61 4 7.03736 8.91441 13.4995
94 1 6.84748 8.56353 9.26939
97 1 7.96399 11.1523 10.7436
181 3 7.54306 11.9793 16.187
366 2 7.22613 9.50268 9.8397
295 2 7.79445 11.1694 9.66982
296 2 8.4439 10.2442 11.1534
190 3 8.2447 8.15335 12.6354
282 2 9.82781 7.55407 9.63647
92 1 10.13 7.19743 10.7342
294 2 8.46324 12.1404 11.1203
281 2 10.4884 8.09539 11.339
57 4 6.30905 11.5472 17.1836
287 2 5.66479 8.67637 8.87972
293 2 9.3403 9.02734 8.78578
167 3 10.3237 7.09481 16.1428
28 4 3.88101 7.08937 17.2406
ITEM: TIMESTEP
200
ITEM: NUMBER OF ATOMS
366
ITEM: BOX BOUNDS xy xz yz pp pp pp
-7.8433176422501649e+00 1.5672935023048570e+01 -7.7280764795282639e+00
7.2117441858929696e-02 1.3785263820778400e+01 -1.6630613967324059e-01
-7.1564794098771145e-02 1.7318064794098724e+01 -4.5718737362614184e-02
ITEM: ATOMS id type x y z
11 4 -0.837445 4.81901 6.97559
69 1 -2.22708 5.55189 5.8871
102 3 -0.924684 3.32794 2.45583
104 3 -0.668695 4.85219 0.29454
98 3 -0.235093 1.68929 4.55905
215 2 -1.72521 6.13371 5.05481
210 2 -1.61738 5.99097 2.2269
237 2 5.22741 0.357775 4.80478
105 3 0.0130516 3.69193 6.31767
216 2 -3.05378 6.10726 6.38707
70 1 0.482958 6.21358 7.40299
9 4 0.109919 4.08496 1.57289
124 3 0.737104 5.48402 2.58509
5 4 0.755406 2.3565 5.53303
303 4 5.18022 4.66808 1.37041
29 4 5.01164 4.18008 7.85233
64 1 2.10449 3.17298 4.40239
76 1 5.47511 1.51868 4.6884
79 1 3.26603 4.67443 7.02199
99 3 1.64977 1.45986 6.54496
103 3 1.23794 3.14367 0.987439
115 3 6.48532 1.06082 1.206
324 1 3.72165 0.562095 2.83428
126 3 5.86618 3.21324 6.9178
199 2 1.76001 2.77649 3.40116
200 2 2.99417 2.61012 4.82724
201 2 2.23162 4.3267 4.35347
244 2 2.91154 4.21394 6.01851
245 2 3.2853 5.8338 6.83728
246 2 2.45487 4.45553 7.8464
305 1 4.14127 3.60537 2.54146
217 2 0.0767662 6.07594 8.59354
310 3 4.07105 5.64185 0.672854
312 2 3.05564 3.98787 2.36715
313 2 4.37347 3.56136 3.6285
314 2 4.2891 2.58019 2.03117
355 3 1.8197 0.498092 0.830368
236 2 4.57755 2.17594 4.94156
235 2 5.94446 1.72804 3.66098
325 2 3.01357 1.53162 3.24952
219 2 1.49829 5.65669 7.1671
4 4 2.56277 0.563458 7.59023
77 1 3.19346 6.28925 4.0267
239 2 2.77781 6.18429 5.08733
326 2 4.55176 0.896197 2.08598
238 2 3.5009 5.29489 3.55596
27 4 1.51146 6.73109 3.11109
118 3 7.22357 0.861883 6.68299
68 1 -1.58172 4.10143 8.71348
106 3 -2.78738 6.3451 16.4069
332 2 -0.401669 3.89072 14.8821
212 2 -1.75681 5.02268 9.41602
331 1 -1.49403 3.47362 14.7478
213 2 -0.86418 3.38129 9.2298
252 2 -0.144564 5.5934 14.9414
202 2 -1.01619 2.49959 11.1574
65 1 -0.134019 1.90531 10.6605
100 3 -0.0677103 1.63165 16.4088
254 2 0.649636 6.59781 11.8126
253 2 1.84443 5.92299 10.4859
32 4 3.40864 6.57289 12.0294
227 2 -1.36436 6.61076 11.6963
255 2 1.53933 4.76934 12.1337
251 2 1.25984 5.80442 13.6101
207 2 0.23407 3.7178 13.4191
116 3 3.44414 1.30222 8.79076
204 2 0.176192 2.33355 9.61691
206 2 1.10083 2.15073 14.0372
250 2 1.70617 5.17071 15.3552
125 3 4.39518 3.77481 9.31905
8 4 1.52426 1.98805 11.7819
22 4 4.08613 2.2857 9.94479
25 4 3.72203 1.90378 15.3453
328 2 0.883861 0.527147 9.49665
30 4 5.21219 4.30273 13.7723
66 1 1.1485 3.09503 13.3464
81 1 0.948128 5.78457 14.7218
82 1 1.6536 5.89608 11.6359
101 3 1.58745 0.561906 12.3505
117 3 2.77467 2.50216 10.9148
119 3 3.48692 0.643321 14.315
120 3 4.89543 1.45678 16.4586
121 3 2.44216 2.27413 16.1545
122 3 5.43715 1.72216 10.6545
127 3 4.14388 3.37828 14.4574
131 3 4.30218 5.38735 12.7202
205 2 2.04754 3.67748 13.5634
359 2 -1.87025 3.42815 13.5886
333 2 -2.20124 4.01893 15.4525
3 4 1.25991 1.8686 17.235
10 4 -1.40866 6.31284 17.2727
20 4 6.17571 1.93003 17.2826
203 2 -0.398126 0.772069 10.6299
221 2 -4.40038 8.24658 8.42086
208 2 -2.59086 7.55287 1.78054
263 2 -0.777995 11.141 0.159783
241 2 -0.637662 7.34523 3.96003
358 2 -3.65932 13.4907 3.64744
78 1 0.404618 7.53913 4.43042
1 4 -5.163 13.1562 1.82558
209 2 -0.789372 7.74193 1.77778
14 4 -2.32966 9.68495 7.53177
15 4 -4.15557 11.7525 6.00611
34 4 -1.45841 11.7179 4.0002
72 1 -1.37341 8.66072 6.13935
84 1 -1.63127 10.0305 3.21586
107 3 -6.0116 12.5206 3.06218
108 3 -4.33415 11.9113 0.921402
109 3 -5.53914 11.1703 5.34541
110 3 -3.43813 10.5442 6.87105
111 3 -4.35348 12.991 7.00676
134 3 -0.93353 12.6326 2.80647
135 3 -3.0657 12.1396 4.8274
223 2 -1.69375 7.52635 6.11304
225 2 -1.48223 9.22726 5.11352
261 2 -1.775 10.3815 2.10563
224 2 -0.313803 8.86382 6.56242
259 2 -2.56142 9.38981 3.62675
289 2 -3.01029 8.34097 4.89095
290 2 -4.13254 9.02732 3.56502
338 2 -2.51145 9.4619 -0.0479745
361 2 -3.69258 9.27659 1.4124
67 1 -1.6698 6.97425 1.62931
260 2 -0.59912 9.4977 3.32482
220 2 -2.65677 7.48281 8.04659
95 1 -4.02487 8.17376 4.28951
132 3 1.85256 8.02288 2.16797
337 1 -3.55919 9.28542 0.290274
267 2 3.13309 7.83798 5.71756
142 3 1.57441 10.0683 6.6161
218 2 0.642571 7.26713 7.13018
141 3 -0.296259 11.5414 5.14095
242 2 0.672358 8.64961 4.51119
38 4 1.22737 11.6014 5.80338
138 3 -1.41402 10.4702 8.5446
330 2 -7.20373 12.8716 8.10987
19 4 -0.133041 13.7189 1.96267
243 2 0.487184 7.0099 5.52637
71 1 -3.29116 8.32428 8.61306
228 2 -0.409271 7.63889 13.0864
339 2 -4.20862 8.37746 17.1781
299 3 -5.90091 10.554 16.375
145 3 3.19846 7.90751 12.8591
139 3 -0.767363 12.8819 8.77341
147 3 1.93278 9.91945 12.0985
226 2 -0.783493 8.38869 11.2896
297 4 -4.54015 10.9009 17.0447
222 2 -3.01201 8.34441 9.70209
300 2 -3.47357 12.8963 16.0592
302 2 -2.16844 11.5147 16.1902
301 2 -3.51021 11.4705 14.7227
342 2 -1.40066 11.4937 14.2349
73 1 -1.08883 7.62716 12.1235
6 4 -5.20196 13.3508 13.4514
16 4 -2.44506 8.56878 13.1374
18 4 -3.45092 11.3634 11.5635
37 4 -0.91872 11.6031 9.62497
74 1 -1.59137 9.41521 14.6266
75 1 -4.47729 11.0062 10.0458
112 3 -3.56119 7.61839 13.9057
113 3 -3.12818 9.78801 12.2886
114 3 -4.25773 12.4107 12.422
140 3 -2.17599 11.8954 10.8275
229 2 -2.22781 10.2231 15.054
230 2 -0.722144 9.74903 13.9104
231 2 -1.25946 8.60056 15.3591
232 2 -4.18966 11.8991 9.40149
234 2 -4.14561 9.93947 9.50617
298 1 -3.25985 11.8138 15.8144
340 1 -1.17395 12.62 14.0749
341 2 -1.04882 13.1571 15.1272
356 3 -6.09646 12.3423 14.2981
329 2 -5.73939 12.515 9.28065
262 2 -0.538919 11.5369 15.6324
362 2 -0.129401 9.82571 16.4513
130 3 -0.258665 7.56939 16.4856
233 2 -5.62955 10.9664 10.4755
144 3 1.21847 8.68452 14.5927
343 2 -1.98966 13.1622 13.452
85 1 -0.268991 10.9565 16.6395
265 2 0.473231 8.66108 8.72522
39 4 2.43927 9.17619 13.5058
129 3 2.54531 7.34086 16.5283
146 3 0.394337 11.1147 10.3989
266 2 1.83135 8.71744 10.1214
86 1 1.56609 8.46224 8.99697
31 4 1.14685 7.49313 15.677
264 2 1.95513 7.40727 8.70762
327 1 -6.39961 13.3424 8.73899
258 2 3.3031 7.75649 9.81728
344 1 14.0516 1.07298 8.08746
304 4 6.69461 6.39836 3.79463
308 1 6.1901 5.87892 5.40674
311 3 6.05369 5.56567 2.55011
321 2 5.10117 6.0138 5.39679
80 1 6.14649 5.65084 8.31411
249 2 5.39355 6.41708 7.83193
323 2 6.54689 4.82334 5.46276
247 2 7.08392 5.49776 7.69293
169 3 9.62143 3.42667 8.60989
151 3 7.84036 2.72299 4.76546
276 2 8.03543 4.31446 6.74533
43 4 11.6233 1.71187 0.152331
273 2 11.5044 6.23053 2.32328
306 1 8.68689 6.5291 3.67065
150 3 8.45646 0.907686 2.8828
277 2 8.69892 5.62491 5.47971
274 2 10.729 5.50017 3.82012
2 4 14.1333 2.11777 3.51134
42 4 9.01373 2.24457 3.6215
46 4 11.6368 2.31747 5.30712
50 4 10.3137 4.19049 1.62653
52 4 10.2343 4.32244 7.31931
89 1 11.3581 5.31285 2.90681
90 1 8.76575 5.18842 6.59265
149 3 13.5395 0.844023 2.79291
153 3 11.8277 0.347111 1.03844
156 3 12.8956 2.79025 4.36573
157 3 10.4551 1.84955 4.35171
158 3 12.0767 1.06074 6.26936
165 3 9.16692 3.42884 2.60166
166 3 11.3396 3.1634 0.94299
168 3 9.75434 5.32047 0.635838
170 3 11.1116 3.54264 6.22724
275 2 8.77171 6.01667 7.39835
91 1 11.3242 5.70552 8.17575
211 2 13.0523 3.59979 8.46711
364 2 12.2809 4.6836 3.05878
315 2 9.35433 5.52913 3.83498
271 2 11.5917 6.46779 7.35838
270 2 12.3307 5.08408 8.43165
346 2 14.0953 1.94422 7.45395
345 2 15.1394 0.566463 8.33689
214 2 13.0821 4.40923 5.58981
23 4 6.77748 2.14958 5.88794
309 3 5.95734 3.56841 0.400157
248 2 6.35436 5.80006 9.41615