ITEM: TIMESTEP
0
ITEM: NUMBER OF ATOMS
366
ITEM: BOX BOUNDS xy xz yz pp pp pp
-7.8259280126619677e+00 1.5672935023048570e+01 -7.7280764795282639e+00
7.2117441858929696e-02 1.3785263820778400e+01 -1.4891651008504350e-01
-7.1564794098771145e-02 1.7318064794098724e+01 -4.5718737362614184e-02
ITEM: ATOMS id type x y z
11 4 -0.732825 4.92457 7.06488
69 1 -2.09401 5.45902 5.8004
102 3 -0.944794 3.28769 2.40261
104 3 -0.569916 5.03577 0.195375
98 3 -0.271291 1.74308 4.49207
215 2 -2.14251 6.24355 5.04785
210 2 -1.61804 6.32451 2.20496
19 4 7.62067 0.154705 1.90062
105 3 0.0825244 3.7819 6.36086
216 2 -3.04315 5.52411 6.64348
70 1 0.404154 6.37697 7.46222
9 4 0.0929003 4.24794 1.49486
124 3 0.701873 5.40082 2.38365
5 4 0.768618 2.46961 5.56132
303 4 5.32993 4.56564 1.31036
29 4 4.74115 4.26926 7.74032
64 1 2.16569 3.30448 4.47585
76 1 5.49435 1.3339 4.78935
79 1 3.07613 5.07446 7.02064
99 3 1.61557 1.44527 6.66256
103 3 1.2829 3.31029 0.84989
115 3 6.52447 0.96823 1.05631
324 1 3.717 0.21638 2.78228
126 3 5.66291 3.27258 6.80861
199 2 1.72658 2.80334 3.50567
200 2 3.00595 2.71298 4.86318
201 2 2.51188 4.37945 4.3313
244 2 2.71112 4.35288 6.10557
245 2 3.26963 6.28302 6.81267
246 2 2.40426 4.90504 7.9666
305 1 4.24168 3.45174 2.45012
309 3 5.89245 3.54856 0.258524
310 3 4.10351 5.50902 0.852088
312 2 3.12337 3.84779 2.24219
313 2 4.62359 3.66948 3.51867
314 2 4.3022 2.31274 2.1808
355 3 1.98414 0.652988 0.502914
236 2 4.60184 1.99853 4.74423
235 2 6.10717 1.41051 3.81773
325 2 3.05097 1.117 3.24722
219 2 1.33351 6.45363 6.87143
4 4 2.45254 0.411168 7.64221
77 1 3.28952 6.19841 3.89889
239 2 2.96801 5.96255 5.01777
326 2 4.56091 0.514477 2.03678
238 2 3.63678 5.16118 3.40628
214 2 -2.25325 4.48152 5.17417
27 4 1.48601 6.7665 3.0497
237 2 5.15924 0.194994 4.97785
217 2 0.547039 5.97933 8.57423
68 1 -1.63301 4.30045 8.73058
106 3 -2.59528 6.26402 16.2916
332 2 -0.5329 3.95929 15.0073
212 2 -2.06433 5.22098 9.26603
331 1 -1.63385 3.57662 14.8958
213 2 -0.956547 3.73932 9.40733
252 2 -0.423666 6.0872 14.5635
202 2 -1.11225 2.30748 11.2937
65 1 -0.259899 1.62839 10.8541
100 3 -0.0474182 1.85826 16.2558
254 2 1.01787 6.46357 11.6352
253 2 2.19389 5.47913 10.4732
32 4 3.59173 6.38451 12.0314
20 4 6.07218 1.94336 17.2456
255 2 1.58616 4.6288 12.181
251 2 1.23669 5.80008 13.5618
207 2 0.242602 3.6827 13.1281
359 2 -1.99683 3.53012 13.7004
204 2 0.127608 1.95727 9.88602
206 2 0.885884 2.21527 14.0682
250 2 1.05998 5.03693 15.3261
125 3 4.24468 3.63817 9.19913
8 4 1.53159 1.77851 11.8393
22 4 3.93952 2.17138 9.83203
25 4 3.77847 1.82724 15.2613
328 2 0.686229 0.255631 9.63901
30 4 5.2225 4.20517 13.6372
66 1 1.12977 2.97747 13.3322
81 1 0.723117 5.92558 14.6309
82 1 1.86451 5.70868 11.5923
101 3 1.65968 0.274676 12.3484
117 3 2.69779 2.40668 10.8402
119 3 3.29326 0.49222 14.5543
120 3 4.89963 1.34919 16.3083
121 3 2.48995 2.5835 16.1342
122 3 5.268 1.64831 10.5819
127 3 4.3837 2.97067 14.1753
131 3 4.34636 5.16685 12.7997
205 2 2.15749 3.41597 13.4883
10 4 -1.37289 6.42052 17.2988
3 4 1.32802 2.04624 17.078
227 2 -1.07262 6.3726 12.9392
116 3 3.34927 1.2738 8.66141
221 2 -4.34196 8.30749 8.54183
208 2 -3.06518 7.3963 1.59345
263 2 -0.632726 11.2114 0.0825335
241 2 -0.588475 7.23246 3.92851
358 2 -3.60054 13.1431 3.67211
78 1 0.461031 7.47294 4.43246
1 4 -5.42099 13.2907 1.69096
209 2 -1.43549 8.15921 1.6749
14 4 -2.33794 9.55902 7.58212
15 4 -4.13416 11.8123 5.93335
34 4 -1.23484 11.5753 3.9422
72 1 -1.51239 8.62364 6.16023
84 1 -1.63149 9.93932 3.19636
107 3 -6.43701 12.7224 2.77834
108 3 -4.73433 11.7495 0.951636
109 3 -5.37458 11.4649 4.96915
110 3 -3.71927 10.4825 6.90968
111 3 -4.50534 13.0046 6.83034
134 3 -0.954829 12.5608 2.69004
135 3 -2.89826 12.1693 4.95828
223 2 -1.74702 7.44156 6.04458
225 2 -1.57401 9.12403 5.05397
261 2 -1.6914 10.2794 2.05968
224 2 -0.427808 8.82977 6.57068
259 2 -2.63147 9.36304 3.60144
289 2 -3.21573 8.36819 5.04881
290 2 -4.19703 9.07964 3.63758
338 2 -2.34064 9.26952 0.140784
361 2 -3.82212 9.50069 1.3834
67 1 -1.98321 7.18917 1.4833
260 2 -0.637118 9.36867 3.30681
220 2 -2.62496 7.38905 8.18964
95 1 -4.19658 8.28192 4.41132
132 3 1.80036 7.97927 2.02072
337 1 -3.44097 9.36618 0.281124
138 3 -1.32864 10.3287 8.58991
142 3 1.58285 9.95636 6.48689
218 2 -0.231463 7.35796 7.34401
141 3 -0.0785639 11.3787 5.04917
242 2 0.729351 8.62532 4.41693
243 2 0.472047 7.08019 5.55709
267 2 3.59031 7.52996 5.69097
228 2 -0.187935 7.93271 12.3053
71 1 -3.17389 8.27846 8.77728
299 3 -5.87201 10.3478 16.143
145 3 3.25009 7.79284 12.9901
139 3 -0.811642 12.8985 8.75567
147 3 1.88881 10.0599 12.3368
226 2 -1.60862 7.11021 11.2803
297 4 -4.53569 10.874 17.0581
222 2 -3.00814 8.26409 9.86338
300 2 -3.28933 12.9156 16.3764
302 2 -2.07664 11.5477 16.2976
301 2 -3.3772 11.6935 14.9657
342 2 -1.23568 11.5499 14.1296
73 1 -1.15624 7.30622 12.3116
6 4 -5.19087 13.123 13.5115
16 4 -2.42511 8.49063 13.1608
18 4 -3.32929 11.1974 11.6421
37 4 -0.869584 11.521 9.58698
74 1 -1.51428 9.51928 14.4805
75 1 -4.43957 10.984 10.1076
112 3 -3.30579 7.43204 14.0187
113 3 -3.11643 9.59605 12.1728
114 3 -4.11536 12.1338 12.7415
140 3 -1.96882 11.6617 10.9255
229 2 -2.10351 10.4058 15.0546
230 2 -0.701239 9.95505 13.8211
231 2 -1.066 8.76657 15.2447
232 2 -4.13902 11.8831 9.43392
234 2 -4.04472 9.90944 9.63486
298 1 -3.10022 11.8427 16.0647
340 1 -1.3019 12.7754 14.1072
341 2 -1.2764 13.2905 15.1381
356 3 -6.25492 12.2269 14.2932
329 2 -5.80179 12.3499 9.36891
262 2 -0.414541 11.7627 15.6792
362 2 0.0345771 10.0461 16.3044
130 3 -0.285891 7.67069 16.5445
233 2 -5.58453 11.0079 10.4875
144 3 1.32891 8.74039 14.5938
343 2 -2.12529 13.2192 13.4092
85 1 -0.0703726 11.0964 16.6046
265 2 0.429845 8.69145 8.64802
39 4 2.52165 9.2414 13.5676
129 3 2.59521 7.08092 16.4981
146 3 0.559167 11.2149 10.2148
266 2 1.73933 8.98421 9.99496
86 1 1.51701 8.54963 9.00847
31 4 1.23753 7.46293 15.5789
264 2 1.82674 7.45144 8.84121
327 1 -6.53595 13.2081 8.8503
258 2 3.21776 7.68416 9.82364
339 2 -4.09574 8.43903 17.106
344 1 14.1321 1.23115 8.20839
304 4 6.76471 6.54398 3.66054
308 1 6.17344 6.00518 5.3019
311 3 6.28735 5.5628 2.48089
321 2 5.05042 6.17142 5.34373
80 1 6.04287 5.58407 8.12374
249 2 5.48007 6.50132 7.85951
323 2 6.55938 4.89547 5.24276
247 2 7.00355 5.46025 7.41244
169 3 9.47768 3.38689 8.54933
151 3 7.99672 2.93737 4.92217
276 2 7.95486 4.49855 6.49837
43 4 11.5659 1.80507 0.127663
273 2 11.5875 6.46424 2.25721
306 1 8.71162 6.8338 3.63176
150 3 8.31072 1.2053 2.98432
277 2 8.83602 5.84744 5.37537
274 2 10.6809 5.53486 3.79277
2 4 14.0781 2.17144 3.41669
42 4 8.93597 2.39691 3.75039
46 4 11.6279 2.19901 5.29796
50 4 10.3795 4.28795 1.65619
52 4 10.0942 4.22073 7.29575
89 1 11.3893 5.42926 2.84085
90 1 8.79623 5.28251 6.46933
149 3 13.4934 0.891222 2.72852
153 3 11.5307 0.458364 1.19947
156 3 12.9456 2.87806 4.36826
157 3 10.317 1.80129 4.42576
158 3 12.1855 1.04459 6.34429
165 3 9.26503 3.64549 2.71897
166 3 11.389 3.19953 1.04584
168 3 9.94519 5.45971 0.647238
170 3 10.9791 3.3338 6.29655
275 2 8.72034 6.03676 7.3848
91 1 11.1864 5.73162 8.02058
211 2 13.1412 3.5961 8.34975
364 2 12.2855 4.77919 2.9845
315 2 9.32178 5.86748 3.7698
271 2 11.3194 6.49397 7.16247
270 2 12.2486 5.1976 8.30851
346 2 14.3494 2.16974 7.60526
345 2 15.1015 0.581679 8.40992
118 3 7.41765 1.10773 6.88852
23 4 6.64583 2.17902 5.97755
248 2 6.38499 5.6022 9.19417
26 4 6.61845 2.16174 11.3184
128 3 6.36336 3.58555 12.5711
174 3 6.00658 4.98125 14.7151
54 4 6.42772 6.51945 15.3192
162 3 7.55022 1.9305 16.3416
285 2 5.96521 6.42803 10.8213
284 2 6.93405 5.01884 11.7302
93 1 7.0849 5.97219 11.0516
175 3 7.80765 6.37569 16.2034
256 2 4.79394 6.49548 9.54331
155 3 7.73588 2.56999 10.3409
283 2 7.7221 5.78579 10.1124
365 2 10.7309 6.22299 10.6033
203 2 15.028 0.511313 10.8387
363 2 13.5925 1.55018 9.17159
279 2 10.78 6.29397 8.92835
280 2 13.3062 3.83377 10.6365
12 4 11.7588 6.41025 15.2686
7 4 14.096 1.80744 15.5857
45 4 9.17905 2.20287 9.68288
48 4 8.82715 2.04938 15.5109
49 4 11.5251 2.38517 11.9832
51 4 9.3577 6.51934 17.0109
53 4 9.90685 4.34792 13.8724
88 1 12.9747 3.52165 11.7738
152 3 12.7755 1.71466 16.61
159 3 14.036 0.867117 14.2066
160 3 8.7393 0.825031 14.4177
161 3 10.1646 1.90372 16.5225
163 3 10.5214 2.30083 10.6727
164 3 12.2657 0.92985 12.4553
171 3 8.88093 3.55184 14.8186
172 3 10.6498 3.22381 13.0361
173 3 11.1304 5.08278 14.835
177 3 9.37095 5.54269 12.7811
272 2 12.8823 4.32736 12.5438
55 4 8.67916 6.72151 11.9195
154 3 9.13695 0.811522 8.96288
123 3 7.1772 1.11617 12.3752
333 2 13.2513 4.09185 15.6225
35 4 1.64299 11.7878 0.0530676
334 1 8.90859 9.90482 3.14077
44 4 5.14577 13.7307 7.381
268 2 4.4826 9.07209 6.34569
278 2 11.4474 7.17844 3.94661
21 4 0.335509 13.6651 7.90017
41 4 4.9897 13.4053 1.97146
318 2 5.15403 8.29806 2.60313
291 2 9.73838 9.07709 6.94524
33 4 2.81868 9.24078 1.6827
240 2 4.16921 7.0142 3.83248
56 4 3.78792 11.231 4.01049
60 4 6.32448 11.3185 5.80602
87 1 3.82516 8.21284 6.64038
133 3 4.16315 8.49516 0.93996
96 1 9.35269 8.43697 7.79736
143 3 1.2184 12.5793 6.9759
178 3 3.33849 9.93942 3.18416
179 3 4.33166 12.2822 2.95671
180 3 2.59398 11.9383 4.82113
186 3 4.91239 10.8191 5.26234
187 3 6.96176 9.98741 6.45357
188 3 6.24093 12.6094 6.79184
269 2 4.19484 7.67505 7.51578
307 1 5.72995 8.32272 3.5885
319 2 6.59529 9.0955 3.59395
320 2 5.03457 8.48599 4.46058
357 3 6.13326 12.5422 1.00437
322 2 7.05895 7.00823 6.39726
351 1 6.87114 9.95066 0.610904
58 4 7.50795 8.6452 7.34011
185 3 7.42703 11.6693 4.64639
136 3 2.20607 10.4469 0.886443
352 2 7.5303 9.89506 1.56299
354 2 5.90323 9.4546 0.84102
182 3 3.41102 10.487 8.51104
137 3 0.934724 12.9849 1.00046
347 1 9.32879 8.11252 0.769355
316 2 9.01344 7.58517 4.47042
349 2 10.1239 7.92482 1.51915
317 2 8.90195 7.28425 2.54844
336 2 7.92931 9.31346 3.27497
13 4 8.82025 11.6151 3.95684
286 2 10.5489 8.42509 5.12526
350 2 8.27357 8.13425 1.18057
292 2 9.98346 7.38818 7.91505
335 2 9.04843 10.1993 2.04089
360 2 9.90295 9.32686 3.57723
36 4 2.59772 9.51302 7.59357
330 2 8.36576 12.8043 8.04063
28 4 4.09413 7.07473 -0.00459916
348 2 9.53959 9.06115 0.0589803
38 4 1.32563 11.6 5.7929
183 3 4.35585 13.0781 8.62303
176 3 5.21226 7.0035 16.4062
40 4 1.63749 11.4627 11.4996
257 2 4.87838 7.88099 10.8731
83 1 4.16822 7.13826 10.3232
47 4 5.33842 13.5428 13.4317
288 2 6.89797 7.61794 9.85893
17 4 8.66254 11.1292 15.2331
24 4 0.234691 13.7067 13.2964
59 4 3.97487 11.7082 9.56409
62 4 3.85496 11.5923 15.3498
63 4 6.23945 11.1379 11.585
191 3 7.90098 9.99187 14.3349
148 3 0.892603 12.5223 12.4696
184 3 3.00109 12.0359 10.7581
189 3 6.4656 7.73422 14.3429
192 3 3.40544 10.338 14.4981
193 3 5.12436 11.126 16.1858
194 3 4.32289 12.7305 14.3183
195 3 2.5002 12.1483 16.2937
196 3 5.4091 11.186 10.2148
197 3 6.12948 9.77417 12.4692
198 3 6.1268 12.5025 12.5185
61 4 7.11712 8.88756 13.5179
94 1 6.80156 8.60425 9.13896
97 1 8.08327 10.9499 10.9585
181 3 7.56867 11.8283 16.2508
366 2 7.32184 9.50317 9.74219
295 2 8.01583 11.2525 9.80995
296 2 8.47656 9.88232 11.1639
190 3 8.16907 8.07158 12.5153
282 2 9.69819 7.48394 9.58367
92 1 10.0454 7.15822 10.6424
294 2 8.55873 11.7602 11.624
281 2 10.4686 7.99452 11.307
57 4 6.30227 11.5786 17.1873
287 2 5.73658 8.86794 8.85019
293 2 9.29656 9.0692 8.76725
167 3 10.5466 7.21002 16.1501
353 2 7.28077 9.30745 17.2508
ITEM: TIMESTEP
100
ITEM: NUMBER OF ATOMS
366
ITEM: BOX BOUNDS xy xz yz pp pp pp
-7.8172331978678695e+00 1.5672935023048570e+01 -7.7280764795282639e+00
7.2117441858929696e-02 1.3785263820778400e+01 -1.4022169529094519e-01
-7.1564794098771145e-02 1.7318064794098724e+01 -4.5718737362614184e-02
ITEM: ATOMS id type x y z
11 4 -0.808506 4.83105 7.04469
69 1 -2.14759 5.49988 5.75269
102 3 -0.886355 3.26081 2.46868
104 3 -0.539295 4.95063 0.187401
98 3 -0.300043 1.69039 4.58563
215 2 -1.4759 6.10358 5.0714
210 2 -1.12204 6.52308 2.26749
237 2 5.21315 0.313775 4.96174
105 3 -0.0456928 3.66689 6.333
216 2 -2.94036 6.1664 6.28917
70 1 0.449626 6.27791 7.45995
9 4 0.113263 4.16076 1.48635
124 3 0.903155 5.2503 2.35502
5 4 0.736206 2.38908 5.50791
303 4 5.23997 4.70449 1.35854
29 4 4.91376 4.16507 7.74055
64 1 2.07436 3.16884 4.31531
76 1 5.47804 1.40695 4.78049
79 1 3.29142 4.67061 6.86207
99 3 1.57903 1.43442 6.58908
103 3 1.30659 3.10977 1.07246
115 3 6.49669 1.04561 1.15814
324 1 3.89978 0.357371 2.65047
126 3 5.72815 3.29971 6.76256
199 2 1.63868 2.80152 3.31429
200 2 2.9597 2.58446 4.64048
201 2 2.36887 4.34664 4.2621
244 2 2.87008 4.00311 6.02427
245 2 3.57433 5.63087 6.48733
246 2 2.55575 4.76404 7.75643
305 1 4.05931 3.52901 2.25648
217 2 0.479899 5.94389 8.57499
310 3 4.13633 5.83632 0.824299
312 2 2.98701 4.10968 2.12645
313 2 4.47494 3.64363 3.32317
314 2 3.9666 2.47664 1.95679
355 3 1.86521 0.629321 0.755716
236 2 4.62612 2.1204 4.9754
235 2 5.98109 1.60447 3.75415
325 2 3.31657 1.18022 3.06355
219 2 1.50535 6.14338 6.99302
4 4 2.39925 0.505028 7.61585
77 1 3.15071 6.1752 3.89652
239 2 2.91274 5.99955 4.93015
326 2 4.66697 0.701611 1.92596
238 2 3.48957 5.16724 3.30323
27 4 1.4973 6.79915 3.01223
214 2 -2.50424 4.59658 5.22995
19 4 7.61741 0.127265 1.94269
68 1 -1.61733 4.12503 8.70255
106 3 -2.67241 6.26954 16.2981
332 2 -0.732099 3.876 14.8955
212 2 -1.72658 5.06596 9.32698
331 1 -1.83669 3.49966 14.8023
213 2 -1.0139 3.28668 9.28837
252 2 -0.315979 5.74147 14.7199
202 2 -1.15037 2.41166 11.1088
65 1 -0.257342 1.80191 10.6932
100 3 -0.124375 1.89888 16.3816
254 2 0.819885 6.71188 11.6476
253 2 2.01537 5.81428 10.4397
32 4 3.47568 6.5834 12.0319
20 4 6.18599 1.94287 17.283
255 2 1.53951 4.90423 12.149
251 2 1.16219 6.00836 13.5026
207 2 0.567547 4.06243 13.3365
116 3 3.33167 1.38031 8.69395
204 2 0.279196 2.28221 9.82586
206 2 1.04511 2.30524 14.101
250 2 1.42051 5.06742 15.1224
125 3 4.45825 3.65726 9.23023
8 4 1.41987 1.90648 11.8806
22 4 3.96961 2.27795 9.9325
25 4 3.82666 1.88286 15.3828
328 2 0.763595 0.424657 9.54388
30 4 5.35179 4.18103 13.6032
66 1 1.32392 3.23097 13.3106
81 1 0.797843 5.891 14.5984
82 1 1.66961 5.935 11.5337
101 3 1.62051 0.379952 12.4038
117 3 2.67507 2.42256 10.9826
119 3 3.29492 0.696266 14.3286
120 3 5.06167 1.29981 16.3416
121 3 2.56595 2.34246 16.2228
122 3 5.25013 1.75591 10.6834
127 3 4.57413 3.11958 14.4851
131 3 4.40853 5.28046 12.7528
205 2 2.44219 3.52436 13.3517
10 4 -1.38336 6.41096 17.2646
3 4 1.35786 1.92358 17.2977
227 2 -1.40323 6.29036 12.5064
221 2 -4.27858 8.49214 8.43672
208 2 -2.87171 7.05631 1.85085
263 2 -0.749668 11.4126 0.105029
241 2 -0.597319 7.10973 3.93553
358 2 -3.45131 13.2545 3.39767
78 1 0.454235 7.40676 4.44597
1 4 -5.34402 13.2148 1.71092
209 2 -1.2985 8.21043 1.45154
14 4 -2.27769 9.64198 7.52161
15 4 -4.12722 11.7697 5.87802
34 4 -1.35684 11.7593 3.9541
72 1 -1.41223 8.70255 6.10323
84 1 -1.77603 10.092 3.1713
107 3 -6.31338 12.6195 2.78722
108 3 -4.51869 11.9626 0.995856
109 3 -5.55843 11.3366 5.26634
110 3 -3.40739 10.4437 6.77715
111 3 -4.47265 13.0007 6.83249
134 3 -0.975682 12.8506 2.89646
135 3 -2.93999 12.075 4.85846
223 2 -1.67952 7.49806 6.03935
225 2 -1.51632 9.23124 4.9963
261 2 -2.0874 10.3219 2.09117
224 2 -0.393083 8.90634 6.51921
259 2 -2.61404 9.36626 3.62459
289 2 -3.07818 8.35017 4.96029
290 2 -4.16321 8.89018 3.50237
243 2 0.575034 6.98722 5.5706
361 2 -3.55774 9.21085 1.37379
67 1 -1.77323 7.12921 1.54098
260 2 -0.732445 9.61947 3.25176
220 2 -2.64854 7.52905 8.22799
95 1 -4.10184 8.15907 4.38044
132 3 1.76436 8.03625 2.02337
337 1 -3.61367 9.25529 0.252195
267 2 3.28203 7.81971 5.52607
142 3 1.61622 10.0894 6.45051
218 2 0.032186 7.33039 7.40637
141 3 -0.0176934 11.4847 4.84847
242 2 0.506586 8.55291 4.41677
38 4 1.29586 11.5151 5.80057
269 2 3.71662 7.28486 7.30584
228 2 -0.274268 7.79325 13.0515
71 1 -3.19922 8.43019 8.69675
299 3 -5.7906 10.6136 16.3429
145 3 3.16554 7.82227 12.9973
338 2 -2.75906 9.37883 17.1917
147 3 1.90461 9.95671 12.2093
226 2 -1.19794 7.83086 11.3436
297 4 -4.4695 10.9429 17.1345
222 2 -3.11108 8.35335 9.82408
300 2 -3.42142 12.9715 16.0037
302 2 -2.08087 11.597 16.2497
301 2 -3.55937 11.4801 14.917
342 2 -1.30099 11.6171 14.1843
73 1 -1.17672 7.39981 12.4032
6 4 -5.23071 13.1612 13.4564
16 4 -2.34966 8.59723 13.2217
18 4 -3.31997 11.2561 11.4721
37 4 -0.932001 11.6132 9.69551
74 1 -1.35381 9.56807 14.5464
75 1 -4.47532 11.061 10.0159
112 3 -3.47072 7.47708 14.1514
113 3 -2.96464 9.66958 12.1043
114 3 -4.08095 12.136 12.6093
140 3 -1.9676 11.9223 10.88
229 2 -2.09531 10.3847 14.952
230 2 -0.510887 9.97848 14.0293
231 2 -1.04368 8.83932 15.4048
232 2 -4.24167 11.8965 9.35052
234 2 -4.03832 10.0507 9.60507
298 1 -3.19073 11.8574 15.9078
340 1 -1.21117 12.8214 14.1087
341 2 -1.24086 13.3429 15.1374
356 3 -6.09851 12.1795 14.3022
329 2 -5.87461 12.5215 9.35299
262 2 -0.472303 11.7534 15.608
362 2 0.0534934 9.98904 16.5454
130 3 -0.187549 7.63607 16.5195
233 2 -5.59716 11.0133 10.3125
144 3 1.32997 8.70332 14.4635
343 2 -2.03578 13.1762 13.4335
85 1 -0.144605 11.1461 16.6926
265 2 0.512929 8.89123 8.88366
39 4 2.51068 9.24077 13.5193
129 3 2.5845 7.12795 16.4135
146 3 0.43352 11.1728 10.3374
266 2 1.92338 8.94596 10.0436
86 1 1.53246 8.54318 9.06521
31 4 1.15063 7.49299 15.6209
264 2 1.77747 7.4714 8.86755
327 1 -6.55001 13.317 8.7862
258 2 3.20584 7.82905 9.91169
339 2 -4.35239 8.40764 17.1023
138 3 -1.40553 10.274 8.65533
139 3 -0.867242 12.7918 8.66008
344 1 13.9678 1.08628 8.18616
304 4 6.7585 6.49994 3.6924
308 1 6.31716 5.94896 5.33892
311 3 6.22935 5.51765 2.55082
321 2 5.21401 5.97932 5.29976
80 1 6.03191 5.76329 8.16478
249 2 5.41263 6.63679 7.75677
323 2 6.77838 4.87361 5.23599
247 2 7.02874 5.59978 7.53995
169 3 9.57317 3.23788 8.50752
151 3 7.87103 2.79732 4.9145
276 2 8.01708 4.42123 6.69133
43 4 11.5806 1.68697 0.106746
273 2 11.3431 6.24614 2.34466
306 1 8.78382 6.72119 3.72918
150 3 8.48906 1.0843 2.84593
277 2 8.8116 5.80405 5.55943
274 2 10.727 5.25834 4.03249
2 4 14.1165 2.07657 3.54788
42 4 8.97701 2.29297 3.65805
46 4 11.6968 2.23274 5.28112
50 4 10.4035 4.17496 1.69564
52 4 10.2051 4.30753 7.33618
89 1 11.3511 5.24661 3.00466
90 1 8.82426 5.3087 6.62698
149 3 13.6363 0.807434 2.78608
153 3 11.7169 0.405488 1.064
156 3 12.8791 2.82316 4.43777
157 3 10.3969 1.95675 4.32497
158 3 12.0497 0.897693 6.18647
165 3 9.24225 3.48072 2.67793
166 3 11.3916 3.10185 1.09728
168 3 9.72201 5.20784 0.581238
170 3 11.2221 3.69227 6.29437
275 2 8.76378 6.06971 7.51331
91 1 11.3015 5.78999 8.08267
211 2 13.047 3.71695 8.28381
364 2 12.3617 4.7797 3.1143
315 2 9.3908 5.76854 3.81478
271 2 11.6218 6.48502 7.23019
270 2 12.2983 5.23917 8.42883
346 2 14.0603 2.0083 7.54946
345 2 15.0239 0.598789 8.40116
118 3 7.4056 1.16068 6.99821
23 4 6.79265 2.16197 5.9326
309 3 5.94657 3.63027 0.529279
248 2 6.23609 5.80041 9.29395
26 4 6.63077 2.2897 11.4295
128 3 6.18375 3.41445 12.4367
174 3 6.1082 5.08403 14.6049
54 4 6.42374 6.58045 15.3723
162 3 7.4563 1.95775 16.4814
285 2 6.13152 6.50233 10.8941
284 2 7.00349 4.96504 11.7008
93 1 7.20669 5.92249 11.1236
175 3 7.74287 6.56523 16.1798
256 2 4.87005 6.72093 9.54237
155 3 7.82427 2.91897 10.4884
283 2 7.93689 5.81016 10.1399
365 2 10.8726 6.3225 10.6637
203 2 15.1048 0.679159 10.5798
363 2 13.4195 1.27746 9.206
279 2 10.7814 6.33423 9.0455
280 2 13.3187 3.77893 10.6216
12 4 11.6285 6.49452 15.2553
7 4 14.0129 1.80928 15.6079
45 4 9.14389 2.27637 9.68679
48 4 8.91365 1.88513 15.5538
49 4 11.5356 2.46797 11.8944
51 4 9.10366 6.59005 17.0628
53 4 9.97082 4.23485 14.0228
88 1 12.9589 3.64301 11.7102
152 3 12.7821 1.7815 16.5265
159 3 13.9666 0.616941 14.2525
160 3 8.77392 0.759805 14.3948
161 3 10.0741 1.57913 16.5739
163 3 10.5844 2.38959 10.6348
164 3 12.2587 1.07085 12.3235
171 3 8.99637 3.45529 14.96
172 3 10.7154 3.17559 13.1175
173 3 11.2754 5.01615 14.7523
177 3 9.18794 5.53507 13.0275
272 2 12.7846 4.52884 12.3785
55 4 8.72693 6.72768 12.0596
154 3 8.89788 0.74798 9.19323
123 3 7.32294 1.03223 12.304
333 2 13.0287 4.03512 15.4723
359 2 13.4798 3.54485 13.6311
176 3 5.29631 6.9033 16.4751
35 4 1.66916 11.7455 -0.0177789
334 1 8.94822 9.78797 3.23861
44 4 5.08946 13.5668 7.24163
268 2 4.7122 8.62069 6.48423
278 2 11.517 7.05307 3.98608
21 4 0.349951 13.7082 7.97344
41 4 5.15713 13.3569 1.94981
318 2 5.15741 8.26479 2.68493
291 2 9.69873 8.90426 6.81534
33 4 2.95955 9.21403 1.71018
240 2 4.04778 6.96794 3.80169
56 4 3.73315 11.2634 3.97907
60 4 6.3253 11.2281 5.65744
87 1 3.68322 8.17981 6.57904
133 3 4.32766 8.63043 1.09187
96 1 9.37923 8.30133 7.80512
143 3 1.20185 12.7182 6.93562
178 3 3.2961 9.79756 3.23563
179 3 4.39431 12.2677 2.90426
180 3 2.41745 11.8571 4.62241
186 3 4.93196 10.7599 5.05258
187 3 6.98717 9.97681 6.70181
188 3 6.14124 12.5221 6.55017
348 2 9.32441 8.96943 0.202684
307 1 5.7439 8.25331 3.6424
319 2 6.53241 9.13255 3.66778
320 2 5.05693 8.22168 4.55897
357 3 6.11681 12.5418 0.992095
322 2 7.03262 7.02321 6.42669
351 1 6.85875 9.85546 0.39569
58 4 7.47692 8.61818 7.49442
185 3 7.43115 11.5025 4.48225
136 3 2.26998 10.3575 0.874956
352 2 7.4286 9.95538 1.37358
354 2 5.8141 9.26862 0.644608
182 3 3.42739 10.335 8.47694
137 3 1.00179 12.8709 0.943808
347 1 9.10515 8.12501 0.90021
316 2 8.93963 7.51903 4.5245
349 2 9.99608 7.93342 1.62748
317 2 8.97096 7.18091 2.6727
336 2 7.91037 9.30656 3.29657
13 4 8.88213 11.4746 4.07413
286 2 10.6552 8.28916 5.06763
350 2 8.10244 8.15566 1.46042
292 2 10.0602 7.39923 7.95006
335 2 9.33475 10.094 2.17803
360 2 9.76414 9.08052 3.72146
36 4 2.60386 9.41604 7.56265
330 2 8.35435 12.8555 8.02326
183 3 4.17151 12.9248 8.48305
353 2 7.24937 9.31054 16.9446
40 4 1.6257 11.4304 11.3971
257 2 4.9773 7.98629 10.9473
83 1 4.26331 7.25145 10.4149
47 4 5.23775 13.5994 13.293
288 2 7.07751 7.55755 9.88524
17 4 8.63612 11.2742 15.2857
24 4 0.34597 13.6343 13.2539
59 4 3.98659 11.6752 9.46388
62 4 3.7291 11.6678 15.1879
63 4 6.17288 11.1662 11.5424
191 3 7.78183 10.0895 14.4023
148 3 1.18924 12.5124 12.5706
184 3 3.0464 11.8821 10.6792
189 3 6.4222 7.80357 14.3891
192 3 3.49953 10.2635 14.3907
193 3 4.99953 11.3187 16.3051
194 3 4.21202 12.7759 14.1249
195 3 2.40508 12.065 16.0933
196 3 5.34577 11.1027 10.1894
197 3 6.0939 9.69937 12.4552
198 3 6.10871 12.57 12.394
61 4 7.05093 8.91441 13.4995
94 1 6.85682 8.56353 9.26939
97 1 7.97481 11.1523 10.7436
181 3 7.55932 11.9793 16.187
366 2 7.23604 9.50268 9.8397
295 2 7.80419 11.1694 9.66982
296 2 8.45513 10.2442 11.1534
190 3 8.25741 8.15335 12.6354
282 2 9.83752 7.55407 9.63647
92 1 10.1408 7.19743 10.7342
294 2 8.47444 12.1404 11.1203
281 2 10.4998 8.09539 11.339
57 4 6.3263 11.5472 17.1836
287 2 5.67375 8.67637 8.87972
293 2 9.34916 9.02734 8.78578
167 3 10.3399 7.09481 16.1428
28 4 3.89832 7.08937 17.2406
ITEM: TIMESTEP
200
ITEM: NUMBER OF ATOMS
366
ITEM: BOX BOUNDS xy xz yz pp pp pp
-7.8085383830737705e+00 1.5672935023048570e+01 -7.7280764795282639e+00
7.2117441858929696e-02 1.3785263820778400e+01 -1.3152688049684613e-01
-7.1564794098771145e-02 1.7318064794098724e+01 -4.5718737362614184e-02
ITEM: ATOMS id type x y z
11 4 -0.823344 4.81873 6.97539
69 1 -2.21277 5.5516 5.88465
102 3 -0.919694 3.32809 2.45629
104 3 -0.667635 4.85228 0.295443
98 3 -0.224804 1.68904 4.55902
215 2 -1.71164 6.13312 5.0516
210 2 -1.6149 5.99057 2.22707
237 2 5.23828 0.358362 4.80479
105 3 0.0254768 3.69146 6.3177
216 2 -3.03881 6.10687 6.3833
70 1 0.498498 6.21298 7.40242
9 4 0.113169 4.08548 1.5721
124 3 0.742107 5.48456 2.58533
5 4 0.766692 2.35648 5.53321
303 4 5.18366 4.66862 1.37006
29 4 5.02692 4.18064 7.85205
64 1 2.11382 3.17366 4.40374
76 1 5.48463 1.51823 4.68831
79 1 3.2801 4.67236 7.0227
99 3 1.66277 1.45939 6.54534
103 3 1.23979 3.14376 0.987264
115 3 6.48626 1.06111 1.20715
324 1 3.7284 0.561795 2.83332
126 3 5.8807 3.21223 6.91687
199 2 1.76823 2.77604 3.40236
200 2 3.00523 2.61139 4.82803
201 2 2.24129 4.32908 4.35497
244 2 2.92474 4.21255 6.01968
245 2 3.29743 5.83229 6.83764
246 2 2.46862 4.45326 7.84671
305 1 4.14618 3.60595 2.54142
217 2 0.0947643 6.07565 8.59117
310 3 4.07225 5.64179 0.673534
312 2 3.05876 3.98537 2.36936
313 2 4.38234 3.56374 3.62808
314 2 4.29489 2.57926 2.03079
355 3 1.82116 0.498496 0.830382
236 2 4.58395 2.1754 4.94255
235 2 5.95178 1.72861 3.66009
325 2 3.02299 1.53207 3.24771
219 2 1.51278 5.65667 7.1659
4 4 2.5783 0.56381 7.59022
77 1 3.20004 6.28962 4.02728
239 2 2.78628 6.18506 5.08712
326 2 4.55707 0.891718 2.08109
238 2 3.50646 5.29491 3.55699
27 4 1.51732 6.7312 3.11137
118 3 7.23696 0.861893 6.68326
68 1 -1.56289 4.10084 8.71403
106 3 -2.75576 6.34382 16.4071
332 2 -0.372194 3.89068 14.8795
212 2 -1.73312 5.02638 9.41414
331 1 -1.46461 3.47333 14.7472
213 2 -0.852198 3.3789 9.23139
252 2 -0.113083 5.59534 14.9449
202 2 -0.992247 2.49822 11.1644
65 1 -0.112291 1.90597 10.6612
100 3 -0.0346089 1.63116 16.4082
254 2 0.674413 6.59811 11.8137
253 2 1.86854 5.92329 10.4859
32 4 3.43307 6.57274 12.0307
227 2 -1.33493 6.61061 11.6945
255 2 1.56298 4.76776 12.1325
251 2 1.28554 5.80368 13.6095
207 2 0.259551 3.71667 13.4193
116 3 3.46196 1.30186 8.79048
204 2 0.190584 2.33666 9.61619
206 2 1.12774 2.15017 14.0383
250 2 1.73707 5.1708 15.3534
125 3 4.41285 3.7748 9.31891
8 4 1.5465 1.98781 11.7821
22 4 4.10546 2.28514 9.94486
25 4 3.75351 1.90378 15.3453
328 2 0.900965 0.534291 9.50154
30 4 5.23978 4.30312 13.7728
66 1 1.1739 3.09479 13.3469
81 1 0.97829 5.78477 14.7223
82 1 1.67821 5.89466 11.6356
101 3 1.61233 0.5623 12.352
117 3 2.79674 2.5021 10.9148
119 3 3.51686 0.642748 14.3151
120 3 4.92828 1.45609 16.459
121 3 2.47459 2.27371 16.1551
122 3 5.45877 1.72216 10.6547
127 3 4.1736 3.37905 14.4584
131 3 4.32701 5.38822 12.7207
205 2 2.07271 3.67775 13.5638
359 2 -1.84434 3.42844 13.588
333 2 -2.17096 4.01853 15.4534
3 4 1.29424 1.8682 17.2352
10 4 -1.37496 6.31238 17.2739
20 4 6.21002 1.92993 17.283
203 2 -0.378223 0.771989 10.6289
221 2 -4.38398 8.24793 8.42095
208 2 -2.58786 7.55499 1.78191
263 2 -0.780944 11.1434 0.155649
241 2 -0.629792 7.3458 3.95865
358 2 -3.65022 13.4902 3.64848
78 1 0.413281 7.53981 4.43009
1 4 -5.1592 13.1572 1.82585
209 2 -0.78518 7.74115 1.77757
14 4 -2.31427 9.68514 7.53121
15 4 -4.14318 11.7521 6.00632
34 4 -1.44965 11.7179 4.00017
72 1 -1.36084 8.66098 6.13975
84 1 -1.62385 10.0303 3.2162
107 3 -6.00458 12.5214 3.06149
108 3 -4.33221 11.911 0.920726
109 3 -5.52861 11.1704 5.34608
110 3 -3.42454 10.5449 6.87193
111 3 -4.33946 12.9911 7.00687
134 3 -0.926949 12.6335 2.80706
135 3 -3.05592 12.1391 4.82685
223 2 -1.68098 7.5259 6.11317
225 2 -1.4719 9.22696 5.11226
261 2 -1.76928 10.3807 2.10662
224 2 -0.302406 8.86392 6.56115
259 2 -2.55245 9.38902 3.62664
289 2 -2.99984 8.34025 4.88915
290 2 -4.12425 9.02576 3.56505
338 2 -2.50799 9.45399 -0.0448985
361 2 -3.69305 9.27922 1.41015
67 1 -1.66743 6.97465 1.63009
260 2 -0.590838 9.49878 3.32406
220 2 -2.64102 7.48269 8.04712
95 1 -4.01466 8.17275 4.28926
132 3 1.85753 8.02372 2.16825
337 1 -3.55783 9.28469 0.289018
267 2 3.14601 7.8394 5.71643
142 3 1.5876 10.0684 6.61765
218 2 0.658574 7.26642 7.1305
141 3 -0.285624 11.5411 5.14193
242 2 0.680878 8.65115 4.51124
38 4 1.23893 11.6009 5.80336
138 3 -1.39588 10.4701 8.54394
330 2 -7.18365 12.8696 8.10955
19 4 -0.129302 13.7193 1.96286
243 2 0.497235 7.00926 5.5269
71 1 -3.27368 8.32551 8.61385
228 2 -0.377641 7.63678 13.0789
339 2 -4.17024 8.37773 17.1829
299 3 -5.86841 10.5539 16.3746
145 3 3.22393 7.90769 12.8594
139 3 -0.748399 12.882 8.77423
147 3 1.95691 9.9197 12.0985
226 2 -0.76078 8.38881 11.2881
297 4 -4.5064 10.9005 17.0446
222 2 -2.99498 8.34213 9.70237
300 2 -3.44535 12.8955 16.0565
302 2 -2.1365 11.5162 16.1872
301 2 -3.48235 11.4695 14.7217
342 2 -1.36819 11.4941 14.2395
73 1 -1.06287 7.62736 12.1232
6 4 -5.17488 13.3514 13.452
16 4 -2.41801 8.56932 13.1366
18 4 -3.42789 11.3628 11.5628
37 4 -0.899093 11.6023 9.62483
74 1 -1.56154 9.41424 14.6273
75 1 -4.45546 11.008 10.0465
112 3 -3.53227 7.6186 13.9072
113 3 -3.1033 9.7886 12.2884
114 3 -4.23285 12.4101 12.4221
140 3 -2.15366 11.8945 10.8275
229 2 -2.19775 10.2218 15.0546
230 2 -0.695012 9.74968 13.9075
231 2 -1.22711 8.60001 15.3585
232 2 -4.16208 11.9085 9.40843
234 2 -4.12653 9.94226 9.50654
298 1 -3.23008 11.814 15.8131
340 1 -1.14438 12.6216 14.0766
341 2 -1.01592 13.1598 15.1341
356 3 -6.06734 12.3425 14.2984
329 2 -5.72263 12.5164 9.28384
262 2 -0.505513 11.5387 15.638
362 2 -0.0935519 9.82801 16.4568
130 3 -0.225225 7.56931 16.4851
233 2 -5.60378 10.9698 10.4764
144 3 1.24754 8.68527 14.5936
343 2 -1.96308 13.1588 13.4558
85 1 -0.236718 10.9574 16.6387
265 2 0.490778 8.65999 8.72769
39 4 2.46622 9.17652 13.5061
129 3 2.57837 7.34044 16.5284
146 3 0.415286 11.1135 10.3987
266 2 1.85416 8.71638 10.1219
86 1 1.58518 8.46201 8.99777
31 4 1.1786 7.49377 15.6777
264 2 1.97716 7.40713 8.70435
327 1 -6.38141 13.3413 8.74048
258 2 3.32271 7.7571 9.81812
344 1 14.069 1.07184 8.08678
304 4 6.70084 6.39784 3.79431
308 1 6.20397 5.87887 5.4087
311 3 6.05825 5.56563 2.54962
321 2 5.11273 6.02042 5.38617
80 1 6.16284 5.6512 8.31349
249 2 5.41133 6.41765 7.8324
323 2 6.55557 4.82908 5.45941
247 2 7.09999 5.49876 7.69251
169 3 9.63973 3.42689 8.60975
151 3 7.85047 2.72263 4.76592
276 2 8.05063 4.31365 6.74657
43 4 11.6226 1.71154 0.152406
273 2 11.5095 6.23086 2.32298
306 1 8.69352 6.52982 3.66952
150 3 8.46245 0.90774 2.88236
277 2 8.71049 5.62286 5.47801
274 2 10.7352 5.49874 3.82019
2 4 14.1415 2.11811 3.51126
42 4 9.02092 2.24451 3.62235
46 4 11.6476 2.31699 5.30699
50 4 10.3174 4.19124 1.62604
52 4 10.2498 4.32246 7.31877
89 1 11.364 5.31272 2.90624
90 1 8.77984 5.18833 6.5918
149 3 13.5455 0.844751 2.79267
153 3 11.8289 0.347783 1.0395
156 3 12.9044 2.79009 4.36586
157 3 10.4641 1.84816 4.35205
158 3 12.0888 1.06105 6.2698
165 3 9.17298 3.42927 2.6023
166 3 11.3413 3.16379 0.942412
168 3 9.75504 5.32116 0.635583
170 3 11.1247 3.54284 6.22686
275 2 8.78565 6.01685 7.39331
91 1 11.3416 5.70501 8.17571
211 2 13.0689 3.60407 8.46184
364 2 12.2875 4.68358 3.05845
315 2 9.35926 5.52951 3.83233
271 2 11.6075 6.46831 7.35808
270 2 12.3496 5.08409 8.43201
346 2 14.1131 1.94368 7.45367
345 2 15.1574 0.565009 8.33737
309 3 5.95747 3.56884 0.400268
23 4 6.78942 2.1495 5.88869
214 2 13.0957 4.4081 5.58797
248 2 6.37098 5.79846 9.41573