ITEM: TIMESTEP
0
ITEM: NUMBER OF ATOMS
366
ITEM: BOX BOUNDS xy xz yz pp pp pp
-7.8259280126619677e+00 1.5672935023048570e+01 -7.7280764795282639e+00
7.2117441858929696e-02 1.3785263820778400e+01 -1.4891651008504350e-01
-7.1564794098771145e-02 1.7318064794098724e+01 -4.5718737362614184e-02
ITEM: ATOMS id type x y z
11 4 -0.732825 4.92457 7.06488
69 1 -2.09401 5.45902 5.8004
102 3 -0.944794 3.28769 2.40261
104 3 -0.569916 5.03577 0.195375
98 3 -0.271291 1.74308 4.49207
215 2 -2.14251 6.24355 5.04785
210 2 -1.61804 6.32451 2.20496
19 4 7.62067 0.154705 1.90062
105 3 0.0825244 3.7819 6.36086
216 2 -3.04315 5.52411 6.64348
70 1 0.404154 6.37697 7.46222
9 4 0.0929003 4.24794 1.49486
124 3 0.701873 5.40082 2.38365
5 4 0.768618 2.46961 5.56132
303 4 5.32993 4.56564 1.31036
29 4 4.74115 4.26926 7.74032
64 1 2.16569 3.30448 4.47585
76 1 5.49435 1.3339 4.78935
79 1 3.07613 5.07446 7.02064
99 3 1.61557 1.44527 6.66256
103 3 1.2829 3.31029 0.84989
115 3 6.52447 0.96823 1.05631
324 1 3.717 0.21638 2.78228
126 3 5.66291 3.27258 6.80861
199 2 1.72658 2.80334 3.50567
200 2 3.00595 2.71298 4.86318
201 2 2.51188 4.37945 4.3313
244 2 2.71112 4.35288 6.10557
245 2 3.26963 6.28302 6.81267
246 2 2.40426 4.90504 7.9666
305 1 4.24168 3.45174 2.45012
309 3 5.89245 3.54856 0.258524
310 3 4.10351 5.50902 0.852088
312 2 3.12337 3.84779 2.24219
313 2 4.62359 3.66948 3.51867
314 2 4.3022 2.31274 2.1808
355 3 1.98414 0.652988 0.502914
236 2 4.60184 1.99853 4.74423
235 2 6.10717 1.41051 3.81773
325 2 3.05097 1.117 3.24722
219 2 1.33351 6.45363 6.87143
4 4 2.45254 0.411168 7.64221
77 1 3.28952 6.19841 3.89889
239 2 2.96801 5.96255 5.01777
326 2 4.56091 0.514477 2.03678
238 2 3.63678 5.16118 3.40628
214 2 -2.25325 4.48152 5.17417
27 4 1.48601 6.7665 3.0497
237 2 5.15924 0.194994 4.97785
217 2 0.547039 5.97933 8.57423
68 1 -1.63301 4.30045 8.73058
106 3 -2.59528 6.26402 16.2916
332 2 -0.5329 3.95929 15.0073
212 2 -2.06433 5.22098 9.26603
331 1 -1.63385 3.57662 14.8958
213 2 -0.956547 3.73932 9.40733
252 2 -0.423666 6.0872 14.5635
202 2 -1.11225 2.30748 11.2937
65 1 -0.259899 1.62839 10.8541
100 3 -0.0474182 1.85826 16.2558
254 2 1.01787 6.46357 11.6352
253 2 2.19389 5.47913 10.4732
32 4 3.59173 6.38451 12.0314
20 4 6.07218 1.94336 17.2456
255 2 1.58616 4.6288 12.181
251 2 1.23669 5.80008 13.5618
207 2 0.242602 3.6827 13.1281
359 2 -1.99683 3.53012 13.7004
204 2 0.127608 1.95727 9.88602
206 2 0.885884 2.21527 14.0682
250 2 1.05998 5.03693 15.3261
125 3 4.24468 3.63817 9.19913
8 4 1.53159 1.77851 11.8393
22 4 3.93952 2.17138 9.83203
25 4 3.77847 1.82724 15.2613
328 2 0.686229 0.255631 9.63901
30 4 5.2225 4.20517 13.6372
66 1 1.12977 2.97747 13.3322
81 1 0.723117 5.92558 14.6309
82 1 1.86451 5.70868 11.5923
101 3 1.65968 0.274676 12.3484
117 3 2.69779 2.40668 10.8402
119 3 3.29326 0.49222 14.5543
120 3 4.89963 1.34919 16.3083
121 3 2.48995 2.5835 16.1342
122 3 5.268 1.64831 10.5819
127 3 4.3837 2.97067 14.1753
131 3 4.34636 5.16685 12.7997
205 2 2.15749 3.41597 13.4883
10 4 -1.37289 6.42052 17.2988
3 4 1.32802 2.04624 17.078
227 2 -1.07262 6.3726 12.9392
116 3 3.34927 1.2738 8.66141
221 2 -4.34196 8.30749 8.54183
208 2 -3.06518 7.3963 1.59345
263 2 -0.632726 11.2114 0.0825335
241 2 -0.588475 7.23246 3.92851
358 2 -3.60054 13.1431 3.67211
78 1 0.461031 7.47294 4.43246
1 4 -5.42099 13.2907 1.69096
209 2 -1.43549 8.15921 1.6749
14 4 -2.33794 9.55902 7.58212
15 4 -4.13416 11.8123 5.93335
34 4 -1.23484 11.5753 3.9422
72 1 -1.51239 8.62364 6.16023
84 1 -1.63149 9.93932 3.19636
107 3 -6.43701 12.7224 2.77834
108 3 -4.73433 11.7495 0.951636
109 3 -5.37458 11.4649 4.96915
110 3 -3.71927 10.4825 6.90968
111 3 -4.50534 13.0046 6.83034
134 3 -0.954829 12.5608 2.69004
135 3 -2.89826 12.1693 4.95828
223 2 -1.74702 7.44156 6.04458
225 2 -1.57401 9.12403 5.05397
261 2 -1.6914 10.2794 2.05968
224 2 -0.427808 8.82977 6.57068
259 2 -2.63147 9.36304 3.60144
289 2 -3.21573 8.36819 5.04881
290 2 -4.19703 9.07964 3.63758
338 2 -2.34064 9.26952 0.140784
361 2 -3.82212 9.50069 1.3834
67 1 -1.98321 7.18917 1.4833
260 2 -0.637118 9.36867 3.30681
220 2 -2.62496 7.38905 8.18964
95 1 -4.19658 8.28192 4.41132
132 3 1.80036 7.97927 2.02072
337 1 -3.44097 9.36618 0.281124
138 3 -1.32864 10.3287 8.58991
142 3 1.58285 9.95636 6.48689
218 2 -0.231463 7.35796 7.34401
141 3 -0.0785639 11.3787 5.04917
242 2 0.729351 8.62532 4.41693
243 2 0.472047 7.08019 5.55709
267 2 3.59031 7.52996 5.69097
228 2 -0.187935 7.93271 12.3053
71 1 -3.17389 8.27846 8.77728
299 3 -5.87201 10.3478 16.143
145 3 3.25009 7.79284 12.9901
139 3 -0.811642 12.8985 8.75567
147 3 1.88881 10.0599 12.3368
226 2 -1.60862 7.11021 11.2803
297 4 -4.53569 10.874 17.0581
222 2 -3.00814 8.26409 9.86338
300 2 -3.28933 12.9156 16.3764
302 2 -2.07664 11.5477 16.2976
301 2 -3.3772 11.6935 14.9657
342 2 -1.23568 11.5499 14.1296
73 1 -1.15624 7.30622 12.3116
6 4 -5.19087 13.123 13.5115
16 4 -2.42511 8.49063 13.1608
18 4 -3.32929 11.1974 11.6421
37 4 -0.869584 11.521 9.58698
74 1 -1.51428 9.51928 14.4805
75 1 -4.43957 10.984 10.1076
112 3 -3.30579 7.43204 14.0187
113 3 -3.11643 9.59605 12.1728
114 3 -4.11536 12.1338 12.7415
140 3 -1.96882 11.6617 10.9255
229 2 -2.10351 10.4058 15.0546
230 2 -0.701239 9.95505 13.8211
231 2 -1.066 8.76657 15.2447
232 2 -4.13902 11.8831 9.43392
234 2 -4.04472 9.90944 9.63486
298 1 -3.10022 11.8427 16.0647
340 1 -1.3019 12.7754 14.1072
341 2 -1.2764 13.2905 15.1381
356 3 -6.25492 12.2269 14.2932
329 2 -5.80179 12.3499 9.36891
262 2 -0.414541 11.7627 15.6792
362 2 0.0345771 10.0461 16.3044
130 3 -0.285891 7.67069 16.5445
233 2 -5.58453 11.0079 10.4875
144 3 1.32891 8.74039 14.5938
343 2 -2.12529 13.2192 13.4092
85 1 -0.0703726 11.0964 16.6046
265 2 0.429845 8.69145 8.64802
39 4 2.52165 9.2414 13.5676
129 3 2.59521 7.08092 16.4981
146 3 0.559167 11.2149 10.2148
266 2 1.73933 8.98421 9.99496
86 1 1.51701 8.54963 9.00847
31 4 1.23753 7.46293 15.5789
264 2 1.82674 7.45144 8.84121
327 1 -6.53595 13.2081 8.8503
258 2 3.21776 7.68416 9.82364
339 2 -4.09574 8.43903 17.106
344 1 14.1321 1.23115 8.20839
304 4 6.76471 6.54398 3.66054
308 1 6.17344 6.00518 5.3019
311 3 6.28735 5.5628 2.48089
321 2 5.05042 6.17142 5.34373
80 1 6.04287 5.58407 8.12374
249 2 5.48007 6.50132 7.85951
323 2 6.55938 4.89547 5.24276
247 2 7.00355 5.46025 7.41244
169 3 9.47768 3.38689 8.54933
151 3 7.99672 2.93737 4.92217
276 2 7.95486 4.49855 6.49837
43 4 11.5659 1.80507 0.127663
273 2 11.5875 6.46424 2.25721
306 1 8.71162 6.8338 3.63176
150 3 8.31072 1.2053 2.98432
277 2 8.83602 5.84744 5.37537
274 2 10.6809 5.53486 3.79277
2 4 14.0781 2.17144 3.41669
42 4 8.93597 2.39691 3.75039
46 4 11.6279 2.19901 5.29796
50 4 10.3795 4.28795 1.65619
52 4 10.0942 4.22073 7.29575
89 1 11.3893 5.42926 2.84085
90 1 8.79623 5.28251 6.46933
149 3 13.4934 0.891222 2.72852
153 3 11.5307 0.458364 1.19947
156 3 12.9456 2.87806 4.36826
157 3 10.317 1.80129 4.42576
158 3 12.1855 1.04459 6.34429
165 3 9.26503 3.64549 2.71897
166 3 11.389 3.19953 1.04584
168 3 9.94519 5.45971 0.647238
170 3 10.9791 3.3338 6.29655
275 2 8.72034 6.03676 7.3848
91 1 11.1864 5.73162 8.02058
211 2 13.1412 3.5961 8.34975
364 2 12.2855 4.77919 2.9845
315 2 9.32178 5.86748 3.7698
271 2 11.3194 6.49397 7.16247
270 2 12.2486 5.1976 8.30851
346 2 14.3494 2.16974 7.60526
345 2 15.1015 0.581679 8.40992
118 3 7.41765 1.10773 6.88852
23 4 6.64583 2.17902 5.97755
248 2 6.38499 5.6022 9.19417
26 4 6.61845 2.16174 11.3184
128 3 6.36336 3.58555 12.5711
174 3 6.00658 4.98125 14.7151
54 4 6.42772 6.51945 15.3192
162 3 7.55022 1.9305 16.3416
285 2 5.96521 6.42803 10.8213
284 2 6.93405 5.01884 11.7302
93 1 7.0849 5.97219 11.0516
175 3 7.80765 6.37569 16.2034
256 2 4.79394 6.49548 9.54331
155 3 7.73588 2.56999 10.3409
283 2 7.7221 5.78579 10.1124
365 2 10.7309 6.22299 10.6033
203 2 15.028 0.511313 10.8387
363 2 13.5925 1.55018 9.17159
279 2 10.78 6.29397 8.92835
280 2 13.3062 3.83377 10.6365
12 4 11.7588 6.41025 15.2686
7 4 14.096 1.80744 15.5857
45 4 9.17905 2.20287 9.68288
48 4 8.82715 2.04938 15.5109
49 4 11.5251 2.38517 11.9832
51 4 9.3577 6.51934 17.0109
53 4 9.90685 4.34792 13.8724
88 1 12.9747 3.52165 11.7738
152 3 12.7755 1.71466 16.61
159 3 14.036 0.867117 14.2066
160 3 8.7393 0.825031 14.4177
161 3 10.1646 1.90372 16.5225
163 3 10.5214 2.30083 10.6727
164 3 12.2657 0.92985 12.4553
171 3 8.88093 3.55184 14.8186
172 3 10.6498 3.22381 13.0361
173 3 11.1304 5.08278 14.835
177 3 9.37095 5.54269 12.7811
272 2 12.8823 4.32736 12.5438
55 4 8.67916 6.72151 11.9195
154 3 9.13695 0.811522 8.96288
123 3 7.1772 1.11617 12.3752
333 2 13.2513 4.09185 15.6225
35 4 1.64299 11.7878 0.0530676
334 1 8.90859 9.90482 3.14077
44 4 5.14577 13.7307 7.381
268 2 4.4826 9.07209 6.34569
278 2 11.4474 7.17844 3.94661
21 4 0.335509 13.6651 7.90017
41 4 4.9897 13.4053 1.97146
318 2 5.15403 8.29806 2.60313
291 2 9.73838 9.07709 6.94524
33 4 2.81868 9.24078 1.6827
240 2 4.16921 7.0142 3.83248
56 4 3.78792 11.231 4.01049
60 4 6.32448 11.3185 5.80602
87 1 3.82516 8.21284 6.64038
133 3 4.16315 8.49516 0.93996
96 1 9.35269 8.43697 7.79736
143 3 1.2184 12.5793 6.9759
178 3 3.33849 9.93942 3.18416
179 3 4.33166 12.2822 2.95671
180 3 2.59398 11.9383 4.82113
186 3 4.91239 10.8191 5.26234
187 3 6.96176 9.98741 6.45357
188 3 6.24093 12.6094 6.79184
269 2 4.19484 7.67505 7.51578
307 1 5.72995 8.32272 3.5885
319 2 6.59529 9.0955 3.59395
320 2 5.03457 8.48599 4.46058
357 3 6.13326 12.5422 1.00437
322 2 7.05895 7.00823 6.39726
351 1 6.87114 9.95066 0.610904
58 4 7.50795 8.6452 7.34011
185 3 7.42703 11.6693 4.64639
136 3 2.20607 10.4469 0.886443
352 2 7.5303 9.89506 1.56299
354 2 5.90323 9.4546 0.84102
182 3 3.41102 10.487 8.51104
137 3 0.934724 12.9849 1.00046
347 1 9.32879 8.11252 0.769355
316 2 9.01344 7.58517 4.47042
349 2 10.1239 7.92482 1.51915
317 2 8.90195 7.28425 2.54844
336 2 7.92931 9.31346 3.27497
13 4 8.82025 11.6151 3.95684
286 2 10.5489 8.42509 5.12526
350 2 8.27357 8.13425 1.18057
292 2 9.98346 7.38818 7.91505
335 2 9.04843 10.1993 2.04089
360 2 9.90295 9.32686 3.57723
36 4 2.59772 9.51302 7.59357
330 2 8.36576 12.8043 8.04063
28 4 4.09413 7.07473 -0.00459916
348 2 9.53959 9.06115 0.0589803
38 4 1.32563 11.6 5.7929
183 3 4.35585 13.0781 8.62303
176 3 5.21226 7.0035 16.4062
40 4 1.63749 11.4627 11.4996
257 2 4.87838 7.88099 10.8731
83 1 4.16822 7.13826 10.3232
47 4 5.33842 13.5428 13.4317
288 2 6.89797 7.61794 9.85893
17 4 8.66254 11.1292 15.2331
24 4 0.234691 13.7067 13.2964
59 4 3.97487 11.7082 9.56409
62 4 3.85496 11.5923 15.3498
63 4 6.23945 11.1379 11.585
191 3 7.90098 9.99187 14.3349
148 3 0.892603 12.5223 12.4696
184 3 3.00109 12.0359 10.7581
189 3 6.4656 7.73422 14.3429
192 3 3.40544 10.338 14.4981
193 3 5.12436 11.126 16.1858
194 3 4.32289 12.7305 14.3183
195 3 2.5002 12.1483 16.2937
196 3 5.4091 11.186 10.2148
197 3 6.12948 9.77417 12.4692
198 3 6.1268 12.5025 12.5185
61 4 7.11712 8.88756 13.5179
94 1 6.80156 8.60425 9.13896
97 1 8.08327 10.9499 10.9585
181 3 7.56867 11.8283 16.2508
366 2 7.32184 9.50317 9.74219
295 2 8.01583 11.2525 9.80995
296 2 8.47656 9.88232 11.1639
190 3 8.16907 8.07158 12.5153
282 2 9.69819 7.48394 9.58367
92 1 10.0454 7.15822 10.6424
294 2 8.55873 11.7602 11.624
281 2 10.4686 7.99452 11.307
57 4 6.30227 11.5786 17.1873
287 2 5.73658 8.86794 8.85019
293 2 9.29656 9.0692 8.76725
167 3 10.5466 7.21002 16.1501
353 2 7.28077 9.30745 17.2508
ITEM: TIMESTEP
100
ITEM: NUMBER OF ATOMS
366
ITEM: BOX BOUNDS xy xz yz pp pp pp
-7.8259280126619677e+00 1.5672935023048570e+01 -7.7280764795282639e+00
8.0812256653028491e-02 1.3785263820778400e+01 -1.4891651008504350e-01
-7.1564794098771145e-02 1.7318064794098724e+01 -3.7023922568515388e-02
ITEM: ATOMS id type x y z
11 4 -0.812064 4.8346 7.04469
69 1 -2.1505 5.50279 5.75269
102 3 -0.887625 3.26208 2.46868
104 3 -0.539424 4.95076 0.187401
98 3 -0.302372 1.69271 4.58563
215 2 -1.47848 6.10615 5.0714
210 2 -1.12321 6.52425 2.26749
237 2 5.21064 0.316292 4.96174
105 3 -0.0488951 3.67009 6.333
216 2 -2.94354 6.16958 6.28917
70 1 0.445861 6.28168 7.45995
9 4 0.112484 4.16154 1.48635
124 3 0.901942 5.25151 2.35502
5 4 0.733416 2.39187 5.50791
303 4 5.23926 4.7052 1.35854
29 4 4.90986 4.16898 7.74055
64 1 2.07216 3.17104 4.31531
76 1 5.47561 1.40938 4.78049
79 1 3.28795 4.67407 6.86207
99 3 1.5757 1.43775 6.58908
103 3 1.30602 3.11034 1.07246
115 3 6.49608 1.04622 1.15814
324 1 3.89842 0.358732 2.65047
126 3 5.72474 3.30312 6.76256
199 2 1.63699 2.80322 3.31429
200 2 2.95735 2.58681 4.64048
201 2 2.3667 4.34881 4.2621
244 2 2.86703 4.00615 6.02427
245 2 3.57105 5.63415 6.48733
246 2 2.55183 4.76796 7.75643
305 1 4.05814 3.53017 2.25648
217 2 0.475576 5.94821 8.57499
310 3 4.13588 5.83676 0.824299
312 2 2.98591 4.11078 2.12645
313 2 4.47324 3.64533 3.32317
314 2 3.96559 2.47766 1.95679
355 3 1.8648 0.629735 0.755716
236 2 4.6236 2.12292 4.9754
235 2 5.97918 1.60638 3.75415
325 2 3.31501 1.18179 3.06355
219 2 1.50182 6.14691 6.99302
4 4 2.3954 0.508872 7.61585
77 1 3.14873 6.17718 3.89652
239 2 2.91024 6.00205 4.93015
326 2 4.66598 0.70261 1.92596
238 2 3.48788 5.16892 3.30323
27 4 1.49576 6.8007 3.01223
214 2 -2.5069 4.59923 5.22995
19 4 7.6164 0.128272 1.94269
68 1 -1.62172 4.12941 8.70255
106 3 -2.68059 6.27772 16.2981
332 2 -0.739582 3.88349 14.8955
212 2 -1.73128 5.07066 9.32698
331 1 -1.84412 3.5071 14.8023
213 2 -1.01858 3.29136 9.28837
252 2 -0.323375 5.74886 14.7199
202 2 -1.15596 2.41725 11.1088
65 1 -0.262725 1.80729 10.6932
100 3 -0.132601 1.90711 16.3816
254 2 0.814025 6.71774 11.6476
253 2 2.01011 5.81954 10.4397
32 4 3.46963 6.58945 12.0319
20 4 6.17732 1.95155 17.283
255 2 1.53339 4.91034 12.149
251 2 1.1554 6.01515 13.5026
207 2 0.560843 4.06913 13.3365
116 3 3.32729 1.38469 8.69395
204 2 0.274248 2.28716 9.82586
206 2 1.03803 2.31233 14.101
250 2 1.41291 5.07501 15.1224
125 3 4.4536 3.66191 9.23023
8 4 1.41389 1.91246 11.8806
22 4 3.9646 2.28295 9.9325
25 4 3.81893 1.89059 15.3828
328 2 0.758787 0.429465 9.54388
30 4 5.34496 4.18787 13.6032
66 1 1.31722 3.23766 13.3106
81 1 0.790508 5.89834 14.5984
82 1 1.66381 5.9408 11.5337
101 3 1.61427 0.38619 12.4038
117 3 2.66954 2.42809 10.9826
119 3 3.28772 0.703466 14.3286
120 3 5.05347 1.30802 16.3416
121 3 2.5578 2.3506 16.2228
122 3 5.24475 1.76129 10.6834
127 3 4.56686 3.12686 14.4851
131 3 4.40211 5.28687 12.7528
205 2 2.43548 3.53108 13.3517
10 4 -1.39203 6.41963 17.2646
3 4 1.34918 1.93227 17.2977
227 2 -1.40952 6.29665 12.5064
221 2 -4.28283 8.4964 8.43672
208 2 -2.87267 7.05727 1.85085
263 2 -0.749757 11.4126 0.105029
241 2 -0.599323 7.11174 3.93553
358 2 -3.45304 13.2562 3.39767
78 1 0.451976 7.40902 4.44597
1 4 -5.34491 13.2157 1.71092
209 2 -1.29926 8.21119 1.45154
14 4 -2.28149 9.64578 7.52161
15 4 -4.13019 11.7727 5.87802
34 4 -1.35885 11.7613 3.9541
72 1 -1.41532 8.70563 6.10323
84 1 -1.77765 10.0936 3.1713
107 3 -6.31481 12.6209 2.78722
108 3 -4.51923 11.9631 0.995856
109 3 -5.5611 11.3393 5.26634
110 3 -3.41081 10.4472 6.77715
111 3 -4.47611 13.0042 6.83249
134 3 -0.977166 12.852 2.89646
135 3 -2.94245 12.0774 4.85846
223 2 -1.68258 7.50112 6.03935
225 2 -1.51885 9.23378 4.9963
261 2 -2.08849 10.323 2.09117
224 2 -0.396378 8.90964 6.51921
259 2 -2.61588 9.36811 3.62459
289 2 -3.0807 8.35268 4.96029
290 2 -4.165 8.89197 3.50237
243 2 0.572213 6.99004 5.5706
361 2 -3.55846 9.21157 1.37379
67 1 -1.77403 7.13002 1.54098
260 2 -0.734107 9.62113 3.25176
220 2 -2.65269 7.5332 8.22799
95 1 -4.10406 8.1613 4.38044
132 3 1.76331 8.0373 2.02337
337 1 -3.61384 9.25545 0.252195
267 2 3.27923 7.82251 5.52607
142 3 1.61296 10.0927 6.45051
218 2 0.028447 7.33413 7.40637
141 3 -0.0201534 11.4872 4.84847
242 2 0.504342 8.55515 4.41677
38 4 1.29293 11.518 5.80057
269 2 3.71293 7.28855 7.30584
228 2 -0.28083 7.79981 13.0515
71 1 -3.20361 8.43458 8.69675
299 3 -5.79881 10.6218 16.3429
145 3 3.15901 7.8288 12.9973
338 2 -2.76769 9.38746 17.1917
147 3 1.89847 9.96285 12.2093
226 2 -1.20364 7.83656 11.3436
297 4 -4.4781 10.9515 17.1345
222 2 -3.11603 8.3583 9.82408
300 2 -3.42946 12.9796 16.0037
302 2 -2.08903 11.6052 16.2497
301 2 -3.56687 11.4876 14.917
342 2 -1.30812 11.6243 14.1843
73 1 -1.18296 7.40605 12.4032
6 4 -5.23747 13.168 13.4564
16 4 -2.3563 8.60388 13.2217
18 4 -3.32574 11.2619 11.4721
37 4 -0.936885 11.6181 9.69551
74 1 -1.36112 9.57538 14.5464
75 1 -4.48037 11.0661 10.0159
112 3 -3.47783 7.48419 14.1514
113 3 -2.97073 9.67567 12.1043
114 3 -4.08729 12.1423 12.6093
140 3 -1.97308 11.9278 10.88
229 2 -2.10283 10.3922 14.952
230 2 -0.517938 9.98553 14.0293
231 2 -1.05142 8.84706 15.4048
232 2 -4.24638 11.9012 9.35052
234 2 -4.04316 10.0555 9.60507
298 1 -3.19872 11.8654 15.9078
340 1 -1.21826 12.8285 14.1087
341 2 -1.24846 13.3505 15.1374
356 3 -6.1057 12.1867 14.3022
329 2 -5.87933 12.5262 9.35299
262 2 -0.480142 11.7612 15.608
362 2 0.045185 9.99735 16.5454
130 3 -0.195844 7.64437 16.5195
233 2 -5.60236 11.0185 10.3125
144 3 1.32271 8.71059 14.4635
343 2 -2.04254 13.183 13.4335
85 1 -0.152987 11.1544 16.6926
265 2 0.508452 8.89571 8.88366
39 4 2.50389 9.24756 13.5193
129 3 2.57626 7.1362 16.4135
146 3 0.428315 11.178 10.3374
266 2 1.91832 8.95102 10.0436
86 1 1.52789 8.54775 9.06521
31 4 1.14279 7.50084 15.6209
264 2 1.773 7.47587 8.86755
327 1 -6.55444 13.3214 8.7862
258 2 3.20085 7.83404 9.91169
339 2 -4.36097 8.41623 17.1023
138 3 -1.4099 10.2784 8.65533
139 3 -0.871608 12.7961 8.66008
344 1 13.9637 1.0904 8.18616
304 4 6.75661 6.50182 3.6924
308 1 6.31445 5.95166 5.33892
311 3 6.22804 5.51896 2.55082
321 2 5.21132 5.98201 5.29976
80 1 6.02779 5.76741 8.16478
249 2 5.40872 6.6407 7.75677
323 2 6.77573 4.87626 5.23599
247 2 7.02493 5.60359 7.53995
169 3 9.56888 3.24216 8.50752
151 3 7.86853 2.79982 4.9145
276 2 8.01369 4.42461 6.69133
43 4 11.5805 1.68706 0.106746
273 2 11.3419 6.24735 2.34466
306 1 8.78192 6.72309 3.72918
150 3 8.4876 1.08575 2.84593
277 2 8.80879 5.80686 5.55943
274 2 10.7249 5.26039 4.03249
2 4 14.1147 2.07838 3.54788
42 4 8.97514 2.29484 3.65805
46 4 11.6941 2.23541 5.28112
50 4 10.4026 4.17585 1.69564
52 4 10.2014 4.31123 7.33618
89 1 11.3495 5.24815 3.00466
90 1 8.82091 5.31205 6.62698
149 3 13.6348 0.808863 2.78608
153 3 11.7164 0.406056 1.064
156 3 12.8768 2.82541 4.43777
157 3 10.3947 1.95895 4.32497
158 3 12.0466 0.900822 6.18647
165 3 9.24087 3.48209 2.67793
166 3 11.391 3.10243 1.09728
168 3 9.72169 5.20817 0.581238
170 3 11.2189 3.69546 6.29437
275 2 8.75999 6.0735 7.51331
91 1 11.2974 5.79406 8.08267
211 2 13.0428 3.72112 8.28381
364 2 12.3601 4.78129 3.1143
315 2 9.38886 5.77049 3.81478
271 2 11.6182 6.48867 7.23019
270 2 12.294 5.24342 8.42883
346 2 14.0564 2.01211 7.54946
345 2 15.0196 0.603025 8.40116
118 3 7.40207 1.16422 6.99821
23 4 6.78965 2.16498 5.9326
309 3 5.94627 3.63057 0.529279
248 2 6.2314 5.80509 9.29395
26 4 6.62502 2.29545 11.4295
128 3 6.1775 3.4207 12.4367
174 3 6.10086 5.09137 14.6049
54 4 6.41602 6.58817 15.3723
162 3 7.44802 1.96603 16.4814
285 2 6.12603 6.50781 10.8941
284 2 6.99761 4.97093 11.7008
93 1 7.20109 5.92808 11.1236
175 3 7.73474 6.57336 16.1798
256 2 4.86524 6.72574 9.54237
155 3 7.81899 2.92425 10.4884
283 2 7.93179 5.81527 10.1399
365 2 10.8672 6.32786 10.6637
203 2 15.0995 0.684484 10.5798
363 2 13.4149 1.2821 9.206
279 2 10.7769 6.33879 9.0455
280 2 13.3133 3.78428 10.6216
12 4 11.6208 6.50218 15.2553
7 4 14.0051 1.81712 15.6079
45 4 9.13901 2.28125 9.68679
48 4 8.90584 1.89295 15.5538
49 4 11.5296 2.47395 11.8944
51 4 9.09509 6.59862 17.0628
53 4 9.96377 4.2419 14.0228
88 1 12.953 3.6489 11.7102
152 3 12.7738 1.7898 16.5265
159 3 13.9595 0.624103 14.2525
160 3 8.76669 0.767038 14.3948
161 3 10.0658 1.58745 16.5739
163 3 10.5791 2.39494 10.6348
164 3 12.2525 1.07704 12.3235
171 3 8.98885 3.46281 14.96
172 3 10.7088 3.18219 13.1175
173 3 11.268 5.02356 14.7523
177 3 9.18139 5.54162 13.0275
272 2 12.7784 4.53507 12.3785
55 4 8.72086 6.73374 12.0596
154 3 8.89324 0.752613 9.19323
123 3 7.31675 1.03841 12.304
333 2 13.0209 4.04289 15.4723
359 2 13.473 3.5517 13.6311
176 3 5.28804 6.91157 16.4751
35 4 1.66913 11.7456 -0.0177789
334 1 8.94656 9.78963 3.23861
44 4 5.08581 13.5704 7.24163
268 2 4.70893 8.62397 6.48423
278 2 11.515 7.0551 3.98608
21 4 0.345928 13.7123 7.97344
41 4 5.15612 13.3579 1.94981
318 2 5.15603 8.26617 2.68493
291 2 9.69529 8.9077 6.81534
33 4 2.95866 9.21492 1.71018
240 2 4.04584 6.96988 3.80169
56 4 3.73112 11.2655 3.97907
60 4 6.32243 11.2309 5.65744
87 1 3.6799 8.18313 6.57904
133 3 4.32708 8.63101 1.09187
96 1 9.37529 8.30527 7.80512
143 3 1.19834 12.7217 6.93562
178 3 3.29444 9.79921 3.23563
179 3 4.39282 12.2692 2.90426
180 3 2.4151 11.8595 4.62241
186 3 4.92939 10.7625 5.05258
187 3 6.98378 9.98019 6.70181
188 3 6.13793 12.5254 6.55017
348 2 9.32428 8.96957 0.202684
307 1 5.74205 8.25516 3.6424
319 2 6.53055 9.13442 3.66778
320 2 5.05462 8.22399 4.55897
357 3 6.11628 12.5423 0.992095
322 2 7.02937 7.02646 6.42669
351 1 6.85852 9.8557 0.39569
58 4 7.47314 8.62196 7.49442
185 3 7.42887 11.5048 4.48225
136 3 2.2695 10.358 0.874956
352 2 7.42787 9.9561 1.37358
354 2 5.81374 9.26898 0.644608
182 3 3.42311 10.3393 8.47694
137 3 1.00128 12.8714 0.943808
347 1 9.10466 8.1255 0.90021
316 2 8.93733 7.52133 4.5245
349 2 9.99523 7.93427 1.62748
317 2 8.96959 7.18228 2.6727
336 2 7.90869 9.30824 3.29657
13 4 8.88006 11.4767 4.07413
286 2 10.6526 8.29173 5.06763
350 2 8.10167 8.15643 1.46042
292 2 10.0562 7.40324 7.95006
335 2 9.33363 10.0952 2.17803
360 2 9.76224 9.08241 3.72146
36 4 2.60004 9.41986 7.56265
330 2 8.3503 12.8596 8.02326
183 3 4.16724 12.9291 8.48305
353 2 7.24086 9.31904 16.9446
40 4 1.61996 11.4361 11.3971
257 2 4.97179 7.9918 10.9473
83 1 4.25807 7.25669 10.4149
47 4 5.23107 13.6061 13.293
288 2 7.07253 7.56253 9.88524
17 4 8.62844 11.2818 15.2857
24 4 0.339307 13.6409 13.2539
59 4 3.98182 11.68 9.46388
62 4 3.72147 11.6754 15.1879
63 4 6.16708 11.1721 11.5424
191 3 7.77459 10.0967 14.4023
148 3 1.18292 12.5187 12.5706
184 3 3.04103 11.8874 10.6792
189 3 6.41497 7.8108 14.3891
192 3 3.4923 10.2708 14.3907
193 3 4.99134 11.3269 16.3051
194 3 4.20492 12.783 14.1249
195 3 2.397 12.0731 16.0933
196 3 5.34064 11.1078 10.1894
197 3 6.08764 9.70563 12.4552
198 3 6.10248 12.5762 12.394
61 4 7.04414 8.92119 13.4995
94 1 6.85215 8.5682 9.26939
97 1 7.9694 11.1577 10.7436
181 3 7.55119 11.9874 16.187
366 2 7.23108 9.50764 9.8397
295 2 7.79932 11.1742 9.66982
296 2 8.44952 10.2498 11.1534
190 3 8.25105 8.15971 12.6354
282 2 9.83267 7.55893 9.63647
92 1 10.1354 7.20283 10.7342
294 2 8.46884 12.146 11.1203
281 2 10.4941 8.1011 11.339
57 4 6.31767 11.5558 17.1836
287 2 5.66927 8.68084 8.87972
293 2 9.34473 9.03176 8.78578
167 3 10.3318 7.10292 16.1428
28 4 3.88967 7.09803 17.2406
ITEM: TIMESTEP
200
ITEM: NUMBER OF ATOMS
366
ITEM: BOX BOUNDS xy xz yz pp pp pp
-7.8259280126619677e+00 1.5672935023048570e+01 -7.7280764795282639e+00
8.9507071447127551e-02 1.3785263820778400e+01 -1.4891651008504350e-01
-7.1564794098771145e-02 1.7318064794098724e+01 -2.8329107774416329e-02
ITEM: ATOMS id type x y z
11 4 -0.830356 4.82597 6.975
69 1 -2.22041 5.55749 5.88621
102 3 -0.922231 3.33029 2.45575
104 3 -0.668054 4.85277 0.294642
98 3 -0.230382 1.69365 4.55941
215 2 -1.72134 6.14051 5.05319
210 2 -1.61581 5.99187 2.22639
237 2 5.23321 0.362681 4.80369
105 3 0.018927 3.69807 6.31718
216 2 -3.04852 6.11021 6.38728
70 1 0.490374 6.22038 7.40221
9 4 0.111676 4.08688 1.57239
124 3 0.739902 5.48635 2.58452
5 4 0.760861 2.3621 5.53309
303 4 5.18232 4.67002 1.37061
29 4 5.01936 4.18827 7.85214
64 1 2.10865 3.17836 4.40353
76 1 5.47993 1.52317 4.6881
79 1 3.27341 4.68021 7.02269
99 3 1.65595 1.46609 6.54559
103 3 1.23908 3.14483 0.987058
115 3 6.48574 1.06254 1.20682
324 1 3.72533 0.564437 2.8321
126 3 5.87295 3.2207 6.91799
199 2 1.76339 2.78023 3.40163
200 2 2.99962 2.61555 4.82635
201 2 2.23961 4.33449 4.35281
244 2 2.91805 4.21945 6.01934
245 2 3.29182 5.84135 6.83762
246 2 2.46205 4.46255 7.84666
305 1 4.14448 3.60721 2.5414
217 2 0.0854348 6.08268 8.59135
310 3 4.07153 5.64301 0.673618
312 2 3.05816 3.98625 2.36883
313 2 4.37854 3.56348 3.6284
314 2 4.29341 2.58286 2.03088
355 3 1.82025 0.499041 0.830345
236 2 4.58013 2.18085 4.94186
235 2 5.94857 1.73302 3.66044
325 2 3.01967 1.53409 3.24613
219 2 1.50519 5.66263 7.16568
4 4 2.57062 0.571294 7.59057
77 1 3.19563 6.2928 4.02632
239 2 2.78759 6.19037 5.0779
326 2 4.55424 0.894572 2.08112
238 2 3.50374 5.29635 3.55457
27 4 1.5147 6.73376 3.11072
118 3 7.23099 0.869079 6.68335
68 1 -1.57234 4.10939 8.71318
106 3 -2.7718 6.36054 16.4076
332 2 -0.387175 3.90616 14.8804
212 2 -1.7461 5.03227 9.41431
331 1 -1.47914 3.4883 14.7469
213 2 -0.856924 3.38911 9.22967
252 2 -0.127623 5.60764 14.9437
202 2 -1.0054 2.51 11.1579
65 1 -0.123792 1.91593 10.6603
100 3 -0.0512821 1.64833 16.4087
254 2 0.662344 6.61011 11.8139
253 2 1.85592 5.93545 10.4857
32 4 3.42113 6.58518 12.0303
227 2 -1.35324 6.6234 11.6971
255 2 1.5507 4.77993 12.1343
251 2 1.27361 5.81715 13.6104
207 2 0.247707 3.72986 13.4174
116 3 3.45331 1.31036 8.79044
204 2 0.184166 2.34427 9.61695
206 2 1.11409 2.16424 14.0376
250 2 1.72149 5.18713 15.3561
125 3 4.40403 3.78378 9.31881
8 4 1.53527 2 11.782
22 4 4.09542 2.29505 9.94494
25 4 3.73772 1.91935 15.3453
328 2 0.893793 0.53942 9.49915
30 4 5.22627 4.31635 13.773
66 1 1.16164 3.10787 13.3463
81 1 0.963342 5.79931 14.7228
82 1 1.66585 5.90737 11.6364
101 3 1.60016 0.574442 12.3514
117 3 2.78503 2.51323 10.9143
119 3 3.5017 0.657073 14.3149
120 3 4.9114 1.47301 16.4592
121 3 2.45807 2.29058 16.1542
122 3 5.44779 1.73279 10.6553
127 3 4.15885 3.39314 14.4582
131 3 4.31467 5.40044 12.721
205 2 2.06022 3.69078 13.5638
359 2 -1.85682 3.44221 13.5878
333 2 -2.18641 4.0338 15.4519
3 4 1.2771 1.88579 17.2349
10 4 -1.39234 6.32999 17.2733
20 4 6.19256 1.94774 17.2828
203 2 -0.388467 0.782031 10.629
221 2 -4.39239 8.25629 8.42151
208 2 -2.58939 7.55517 1.7831
263 2 -0.778888 11.1403 0.161222
241 2 -0.636291 7.34931 3.95819
358 2 -3.65374 13.4935 3.64679
78 1 0.408527 7.54361 4.43044
1 4 -5.16093 13.1584 1.82538
209 2 -0.787512 7.74292 1.77765
14 4 -2.32207 9.69219 7.53205
15 4 -4.14965 11.7585 6.00656
34 4 -1.45402 11.7223 4.00044
72 1 -1.36754 8.66646 6.14045
84 1 -1.62756 10.0341 3.21615
107 3 -6.00763 12.5241 3.06124
108 3 -4.33276 11.9116 0.921567
109 3 -5.53416 11.1756 5.346
110 3 -3.43142 10.5514 6.87211
111 3 -4.34699 12.9979 7.00694
134 3 -0.930093 12.6362 2.80676
135 3 -3.06052 12.1443 4.82778
223 2 -1.68761 7.53171 6.11349
225 2 -1.47692 9.23269 5.1137
261 2 -1.77209 10.384 2.10684
224 2 -0.308119 8.86917 6.56287
259 2 -2.5564 9.39297 3.62652
289 2 -3.00446 8.34608 4.88978
290 2 -4.12862 9.02996 3.56477
338 2 -2.50925 9.45684 -0.0454796
361 2 -3.69287 9.27933 1.41106
67 1 -1.669 6.9759 1.62988
260 2 -0.595081 9.50176 3.32436
220 2 -2.64845 7.49089 8.0482
95 1 -4.01935 8.17746 4.28924
132 3 1.85534 8.02609 2.16805
337 1 -3.55828 9.28482 0.290098
267 2 3.13932 7.85018 5.718
142 3 1.58116 10.0755 6.61732
218 2 0.65147 7.27371 7.13062
141 3 -0.29095 11.5465 5.1415
242 2 0.676685 8.65631 4.50917
38 4 1.23317 11.6072 5.80352
243 2 0.491479 7.01591 5.52712
330 2 -7.19317 12.8791 8.11047
19 4 -0.13081 13.721 1.9626
138 3 -1.40485 10.4786 8.54455
71 1 -3.28294 8.33393 8.61465
228 2 -0.397841 7.65354 13.0872
339 2 -4.18774 8.39485 17.1826
299 3 -5.88504 10.5703 16.3757
145 3 3.21168 7.92083 12.8596
139 3 -0.757923 12.8908 8.77359
147 3 1.94525 9.93226 12.0988
226 2 -0.770953 8.40177 11.2893
297 4 -4.52279 10.9177 17.0453
222 2 -3.00399 8.35348 9.70349
300 2 -3.4568 12.9116 16.0572
302 2 -2.15463 11.5303 16.19
301 2 -3.49649 11.4852 14.7241
342 2 -1.38482 11.5083 14.2341
73 1 -1.0752 7.64002 12.1234
6 4 -5.18831 13.3643 13.4517
16 4 -2.43092 8.58304 13.1375
18 4 -3.43965 11.3749 11.5631
37 4 -0.909324 11.6121 9.62474
74 1 -1.57612 9.4298 14.6273
75 1 -4.46632 11.0176 10.046
112 3 -3.54689 7.63258 13.9067
113 3 -3.11585 9.80076 12.2886
114 3 -4.24522 12.423 12.4218
140 3 -2.1653 11.9058 10.827
229 2 -2.21033 10.2392 15.0557
230 2 -0.705182 9.76344 13.9092
231 2 -1.24316 8.61552 15.3606
232 2 -4.17421 11.9145 9.4051
234 2 -4.13645 9.95088 9.50602
298 1 -3.24376 11.8297 15.8145
340 1 -1.15943 12.6342 14.0757
341 2 -1.03511 13.1708 15.1271
356 3 -6.08205 12.3565 14.2981
329 2 -5.72996 12.5239 9.28417
262 2 -0.521968 11.5513 15.6331
362 2 -0.114469 9.84113 16.4532
130 3 -0.243273 7.58559 16.4861
233 2 -5.61645 10.9788 10.4759
144 3 1.2326 8.69964 14.5928
343 2 -1.97683 13.1772 13.4519
85 1 -0.252576 10.9725 16.6407
265 2 0.481664 8.67028 8.72595
39 4 2.45314 9.1901 13.506
129 3 2.56196 7.35777 16.5283
146 3 0.40451 11.1246 10.3991
266 2 1.84167 8.72789 10.1222
86 1 1.57517 8.47103 8.99774
31 4 1.16313 7.50917 15.6769
264 2 1.96435 7.41495 8.70863
327 1 -6.38982 13.3507 8.74076
258 2 3.31276 7.76679 9.81731
344 1 14.0607 1.08037 8.08681
304 4 6.69797 6.40222 3.79423
308 1 6.19686 5.88499 5.4078
311 3 6.05606 5.56811 2.54993
321 2 5.10697 6.02272 5.39349
80 1 6.15447 5.65971 8.31315
249 2 5.40135 6.4248 7.83106
323 2 6.55065 4.83085 5.46209
247 2 7.09186 5.50705 7.69209
169 3 9.63106 3.43466 8.60956
151 3 7.84516 2.72781 4.76499
276 2 8.04323 4.32136 6.7468
43 4 11.6229 1.71219 0.152551
273 2 11.5055 6.23451 2.32262
306 1 8.69028 6.53296 3.66918
150 3 8.45984 0.909996 2.88273
277 2 8.70505 5.6297 5.47809
274 2 10.7299 5.50115 3.81889
2 4 14.1373 2.12121 3.51149
42 4 9.01713 2.24822 3.6221
46 4 11.642 2.32314 5.30689
50 4 10.3156 4.19278 1.62607
52 4 10.2423 4.33 7.31894
89 1 11.3615 5.31593 2.90636
90 1 8.77335 5.19552 6.59236
149 3 13.5428 0.846868 2.79283
153 3 11.8287 0.349011 1.03914
156 3 12.8998 2.79487 4.36537
157 3 10.4594 1.85332 4.35224
158 3 12.0829 1.06724 6.26963
165 3 9.17005 3.43152 2.60172
166 3 11.3406 3.16458 0.942093
168 3 9.75503 5.32187 0.635631
170 3 11.1181 3.54953 6.22653
275 2 8.77896 6.0245 7.39494
91 1 11.333 5.71402 8.1751
211 2 13.0604 3.60963 8.46471
364 2 12.2855 4.68824 3.05666
315 2 9.35818 5.53371 3.83147
271 2 11.6 6.47619 7.35762
270 2 12.3408 5.09295 8.43109
346 2 14.1044 1.9511 7.45274
345 2 15.1486 0.5749 8.33765
309 3 5.95722 3.56916 0.400111
23 4 6.78358 2.15554 5.8879
214 2 13.0908 4.41224 5.58892
248 2 6.36186 5.80864 9.41556
26 4 6.75253 2.251 11.3874