LAMMPS (2 Aug 2023 - Update 2)
  using 8 OpenMP thread(s) per MPI task
Reading data file ...
  triclinic box = (0 0 0) to (14.6913 12.723 15.9631) with tilt (-7.3456 0 0)
WARNING: Triclinic box skew is large. LAMMPS will run inefficiently. (src/domain.cpp:220)
  2 by 2 by 2 MPI processor grid
  reading atoms ...
  243 atoms
Finding 1-2 1-3 1-4 neighbors ...
  special bond factors lj:    0        0        0       
  special bond factors coul:  0        0        0       
     0 = max # of 1-2 neighbors
     0 = max # of 1-3 neighbors
     0 = max # of 1-4 neighbors
     1 = max # of special neighbors
  special bonds CPU = 0.001 seconds
  read_data CPU = 0.012 seconds
*****Minimization starts.*****
Setting up cg style minimization ...
  Unit style    : real
  Current step  : 0
WARNING: No pairwise cutoff or binsize set. Atom sorting therefore disabled. (src/atom.cpp:2366)
WARNING: Communication cutoff is 0.0. No ghost atoms will be generated. Atoms may get lost. (src/comm_brick.cpp:210)
Per MPI rank memory allocation (min/avg/max) = 9.864 | 9.864 | 9.864 Mbytes
   Step          Temp          E_pair         E_mol          TotEng         Press     
         0   300            0              0              216.40681      3315.4065    
         1   300            0              0              216.40681      3315.4065    
Loop time of 6.16604e-05 on 64 procs for 1 steps with 243 atoms

79.7% CPU use with 8 MPI tasks x 8 OpenMP threads

Minimization stats:
  Stopping criterion = search direction is not downhill
  Energy initial, next-to-last, final = 
                     0                  0                  0
  Force two-norm initial, final = 0 0
  Force max component initial, final = 0 0
  Final line search alpha, max atom move = 0 0
  Iterations, force evaluations = 1 0

MPI task timing breakdown:
Section |  min time  |  avg time  |  max time  |%varavg| %total
---------------------------------------------------------------
Pair    | 0          | 0          | 0          |   0.0 |  0.00
Bond    | 1.03e-07   | 1.6175e-07 | 2.02e-07   |   0.0 |  0.26
Neigh   | 0          | 0          | 0          |   0.0 |  0.00
Comm    | 3.624e-06  | 4.5571e-06 | 5.572e-06  |   0.0 |  7.39
Output  | 0          | 0          | 0          |   0.0 |  0.00
Modify  | 0          | 0          | 0          |   0.0 |  0.00
Other   |            | 5.694e-05  |            |       | 92.35

Nlocal:         30.375 ave          33 max          24 min
Histogram: 1 0 0 0 0 0 4 0 0 3
Nghost:           2.25 ave           5 max           0 min
Histogram: 2 0 1 0 2 0 0 0 2 1
Neighs:              0 ave           0 max           0 min
Histogram: 8 0 0 0 0 0 0 0 0 0

Total # of neighbors = 0
Ave neighs/atom = 0
Ave special neighs/atom = 0
Neighbor list builds = 0
Dangerous builds = 0
System init for write_data ...
WARNING: Communication cutoff is 0.0. No ghost atoms will be generated. Atoms may get lost. (src/comm_brick.cpp:210)
equil: 1
WARNING: Van der Waals parameters for element SI indicate inner wall+shielding, but earlier atoms indicate a different van der Waals method. This may cause division-by-zero errors. Keeping van der Waals setting for earlier atoms. (src/REAXFF/reaxff_ffield.cpp:251)
md: 1

CITE-CITE-CITE-CITE-CITE-CITE-CITE-CITE-CITE-CITE-CITE-CITE-CITE

Your simulation uses code contributions which should be cited:
- pair reaxff command: doi:10.1016/j.parco.2011.08.005
- fix qeq/reaxff command: doi:10.1016/j.parco.2011.08.005
The log file lists these citations in BibTeX format.

CITE-CITE-CITE-CITE-CITE-CITE-CITE-CITE-CITE-CITE-CITE-CITE-CITE

Neighbor list info ...
  update: every = 10 steps, delay = 0 steps, check = no
  max neighbors/atom: 2000, page size: 100000
  master list distance cutoff = 12
  ghost atom cutoff = 12
  binsize = 6, bins = 4 3 3
  2 neighbor lists, perpetual/occasional/extra = 2 0 0
  (1) pair reaxff, perpetual
      attributes: half, newton off, ghost
      pair build: half/bin/newtoff/ghost
      stencil: full/ghost/bin/3d
      bin: standard
  (2) fix qeq/reaxff, perpetual, copy from (1)
      attributes: half, newton off
      pair build: copy
      stencil: none
      bin: none
Setting up Verlet run ...
  Unit style    : real
  Current step  : 0
  Time step     : 0.5
Per MPI rank memory allocation (min/avg/max) = 114.4 | 114.5 | 114.6 Mbytes
   Step          Temp          PotEng         Press         Density         Volume    
         0   300           -36701.66       32984.73       2.8878482      2983.7813    
      1000   310.23227     -36544.074     -3480.0822      2.8350456      3039.354     
      2000   310.89016     -36528.387     -5824.022       2.8050961      3071.8047    
      3000   279.97415     -36535.701     -641.28941      2.8440051      3029.7791    
      4000   300.93486     -36539.187      3321.1372      2.8087931      3067.7615    
      5000   292.67473     -36521.48      -3841.5314      2.8138109      3062.2908    
Loop time of 182.385 on 64 procs for 5000 steps with 243 atoms

Performance: 1.184 ns/day, 20.265 hours/ns, 27.415 timesteps/s, 6.662 katom-step/s
208.0% CPU use with 8 MPI tasks x 8 OpenMP threads

MPI task timing breakdown:
Section |  min time  |  avg time  |  max time  |%varavg| %total
---------------------------------------------------------------
Pair    | 95.041     | 98.073     | 101.35     |  20.7 | 53.77
Bond    | 0.00091459 | 0.0010912  | 0.0012413  |   0.3 |  0.00
Neigh   | 9.7445     | 9.951      | 10.172     |   4.0 |  5.46
Comm    | 40.743     | 45.996     | 50.485     |  49.3 | 25.22
Output  | 0.0012112  | 0.0016379  | 0.0021018  |   1.0 |  0.00
Modify  | 25.415     | 28.282     | 31.889     |  38.8 | 15.51
Other   |            | 0.08048    |            |       |  0.04

Nlocal:         30.375 ave          33 max          26 min
Histogram: 1 0 1 0 0 1 0 2 2 1
Nghost:           2690 ave        2698 max        2683 min
Histogram: 2 0 2 0 0 0 1 1 1 1
Neighs:        17178.2 ave       18620 max       14793 min
Histogram: 1 0 1 0 0 1 0 2 2 1

Total # of neighbors = 137426
Ave neighs/atom = 565.53909
Ave special neighs/atom = 0
Neighbor list builds = 500
Dangerous builds not checked
main run: 2
WARNING: Van der Waals parameters for element SI indicate inner wall+shielding, but earlier atoms indicate a different van der Waals method. This may cause division-by-zero errors. Keeping van der Waals setting for earlier atoms. (src/REAXFF/reaxff_ffield.cpp:251)
md: 2
Neighbor list info ...
  update: every = 10 steps, delay = 0 steps, check = no
  max neighbors/atom: 2000, page size: 100000
  master list distance cutoff = 12
  ghost atom cutoff = 12
  binsize = 6, bins = 4 3 3
  2 neighbor lists, perpetual/occasional/extra = 2 0 0
  (1) pair reaxff, perpetual
      attributes: half, newton off, ghost
      pair build: half/bin/newtoff/ghost
      stencil: full/ghost/bin/3d
      bin: standard
  (2) fix qeq/reaxff, perpetual, copy from (1)
      attributes: half, newton off
      pair build: copy
      stencil: none
      bin: none
Setting up Verlet run ...
  Unit style    : real
  Current step  : 0
  Time step     : 0.5
Per MPI rank memory allocation (min/avg/max) = 114.4 | 114.9 | 115.3 Mbytes
   Step          Temp          PotEng         Press          f_avp         v_B[11]         v_F11          v_K11     
         0   292.67473     -36521.48      -3843.0231      0             -0              0             -1.0260732e+10
      1000   302.76095     -36496.723     -8788.4167     -1827.3285     -1.2233447e+11  406.75404     -1.0260732e+10
      2000   323.62435     -36527.52      -7833.9408     -2177.2898     -3.1713924e+10  356.51191     -1.0260732e+10
      3000   280.2188      -36530.36      -9311.5415     -2529.4208     -5.3707568e+10  504.45718     -1.0260732e+10
      4000   313.80747     -36526.726     -4374.6068     -2327.5666     -7.2692535e+10  453.54272     -1.0260732e+10
      5000   298.53234     -36515.755     -12973.649     -2359.9701     -6.648142e+10   499.81807     -1.0260732e+10
Loop time of 142.042 on 64 procs for 5000 steps with 243 atoms

Performance: 1.521 ns/day, 15.782 hours/ns, 35.201 timesteps/s, 8.554 katom-step/s
119.6% CPU use with 8 MPI tasks x 8 OpenMP threads

MPI task timing breakdown:
Section |  min time  |  avg time  |  max time  |%varavg| %total
---------------------------------------------------------------
Pair    | 81.206     | 83.887     | 86.752     |  20.7 | 59.06
Bond    | 0.00079534 | 0.00096153 | 0.0011664  |   0.0 |  0.00
Neigh   | 8.947      | 9.0873     | 9.3014     |   3.3 |  6.40
Comm    | 16.563     | 20.151     | 23.473     |  53.1 | 14.19
Output  | 0.00086273 | 0.001133   | 0.0014103  |   0.7 |  0.00
Modify  | 27.666     | 27.903     | 28.378     |   4.0 | 19.64
Other   |            | 1.011      |            |       |  0.71

Nlocal:         30.375 ave          33 max          25 min
Histogram: 1 0 1 0 0 0 0 2 3 1
Nghost:           2687 ave        2697 max        2675 min
Histogram: 1 1 1 0 1 0 0 1 1 2
Neighs:        17163.5 ave       18656 max       14189 min
Histogram: 1 0 1 0 0 0 0 2 3 1

Total # of neighbors = 137308
Ave neighs/atom = 565.0535
Ave special neighs/atom = 0
Neighbor list builds = 500
Dangerous builds not checked
Stress sampling interval = 100
Stress sample count = 50
Born sampling interval = 100
Born sample count = 50

Output the tensor to C.lmp.log
done!
Total wall time: 0:05:24
