LAMMPS data file via write_data, version 2 Aug 2023, timestep = 200000, units = real

386 atoms
4 atom types

0 16.7222 xlo xhi
0 13.589 ylo yhi
0 17.3161 zlo zhi
-7.3464 -0.3071 -0.018 xy xz yz

Masses

1 12.0107
2 1.00794
3 15.9994
4 28.0855

Atoms # full

10 3 4 0.2837061366215324 -0.6927401025137799 2.694178863065133 7.7386808976052155 0 0 0
6 1 1 -0.122160168218857 -0.9048301096290989 2.725999966832602 4.399343183363282 0 0 0
323 11 1 -0.05830360896414472 -0.0665865480445435 2.572297672828724 0.8204314969049465 0 0 0
326 12 2 0.07602661024764273 -1.774898494176345 5.585883775259751 1.421140149079285 0 0 0
225 5 3 -0.6522422579752094 -1.046243537649336 6.27038475875655 7.35915069753288 0 0 0
108 5 2 0.04025414946662251 -2.03494263359665 6.000192259316321 4.134749306616405 0 0 0
109 5 2 0.04519802633593029 -0.43673606015319794 5.901038485467441 3.282779690723835 0 0 0
192 5 1 -0.126146062628657 -1.1836193685571892 6.486721840496108 3.7577301158769996 0 0 0
327 12 1 -0.04339963969485308 -1.9263976393501854 5.6039375778797424 0.38028470574949674 0 0 0
320 11 2 0.09141834108280368 0.09872587385312619 1.8096177315954576 0.06274975742380076 0 0 0
43 5 4 1.012626634090731 5.938786152523917 4.141863173425222 6.854077252839073 0 0 0
322 11 2 0.05392565869778258 0.7792713703678343 3.2463299237916403 0.8460285173367386 0 0 0
121 5 2 0.0653376960655693 7.50810116071018 0.9909759892550175 7.771455412389843 0 0 0
146 5 2 0.09692615541370193 1.3850240080164695 11.47682590041065 8.257072578641282 0 0 0
4 1 2 0.03262516160741145 0.047624359852676185 3.100064955580002 4.083923932728602 0 0 0
91 5 2 0.2815170120676447 1.327877508909226 8.34090252151239 7.969663736071155 0 0 0
12 3 2 0.3139018302631048 -0.349182609383175 6.397046407262262 8.006688845531107 0 0 0
25 5 4 0.4420487601992046 -0.1795789313229269 6.760629681852071 5.607640463239037 0 0 0
44 5 4 0.4454116437794984 3.059621505760943 6.575994437469137 8.53353461956388 0 0 0
92 5 2 0.3006161428101015 1.3916754206524131 6.9894270057719385 0.27757507839097595 0 0 1
329 14 2 0.05962815846392129 0.2707299278229664 0.9186403861872501 6.890727115426909 0 0 0
235 5 3 -0.6417563549514949 4.20789378221375 4.441648823851996 0.5627256584059631 0 0 0
134 5 2 0.07825065844183267 1.6106359409052058 5.151178217771643 6.88779836538281 0 0 0
40 5 4 0.6932503780156576 5.487906262550464 4.747948886652387 1.56601582052025 0 0 0
34 5 4 0.6158020479920843 4.724064971158321 1.4302812559306337 4.099601717306768 0 0 0
37 5 4 0.6008057327682846 7.120127590408182 1.92505506902193 5.481232979956877 0 0 0
90 5 2 0.2950504316400147 4.566378863382946 2.2410830122396312 6.59473869884535 0 0 0
126 5 2 0.09436677536274415 5.011659262023103 4.031676537180364 4.227552611076523 0 0 0
127 5 2 0.0137141711801219 6.236272780551589 3.1249610400748438 3.1473476858667695 0 0 0
128 5 2 0.03354630977810476 4.298718391840835 3.157229781803612 2.6118971545244976 0 0 0
129 5 2 0.03171700605900055 1.2008225471402467 4.322420844860623 4.118539638747143 0 0 0
130 5 2 0.0943401701958701 2.9354613466223722 3.8672635673675737 4.530883143389672 0 0 0
131 5 2 0.06832767193412863 2.4825031724781126 4.355285212940277 2.7952951475826637 0 0 0
133 5 2 0.1327574438190735 3.4460517366386227 5.041969898016581 6.559629510167656 0 0 0
199 5 1 -0.1245138440354442 5.165420368561527 3.420904166560525 3.302875509860822 0 0 0
200 5 1 -0.08787865370360837 2.2463180097461084 4.371623335194153 3.8478351736023546 0 0 0
201 5 1 -0.04287413476231416 2.6193608284862924 4.998976827502257 7.295242567945216 0 0 0
231 5 3 -0.682241419062533 5.787373648061367 1.0099168018869924 5.2612754002710185 0 0 0
236 5 3 -0.6394089482027379 4.226549850562076 3.057244179064294 7.150730505817802 0 0 0
22 4 3 -0.6609599678663192 3.1541260454040145 1.63412096868997 4.569209459606077 0 1 0
330 14 2 0.03114794160245037 1.8633233227888364 1.3528291173642621 7.795331387830101 0 0 0
331 14 1 -0.1280540662449388 1.1823219545624504 1.4850869413059145 6.95198987475428 0 0 0
17 4 4 0.6879748819698269 2.088264033646813 0.6243255899365344 5.146563498450723 0 1 0
332 15 2 0.03360647849773302 1.3364095046499174 2.493271833123951 6.480186648183422 0 1 0
132 5 2 0.08010600988015228 2.6592950142361147 4.13452396731745 7.97332384440379 0 0 0
41 5 4 0.9380082347166647 2.5676690382881415 6.448688045805258 4.284568430845164 0 0 0
238 5 3 -0.8354018036381761 4.098451438474935 6.356645172366907 4.870780955502104 0 0 0
119 5 2 0.05734396857052611 5.586225419814907 0.015686568155717187 7.583976761072999 0 0 0
21 4 3 -0.6649461637120794 0.8992354644264642 0.187938047546202 4.190594254939174 0 1 0
357 23 2 0.03213392614368969 -1.5132311340449778 13.25293045547806 2.6687190595266475 0 0 0
117 5 2 0.02202126022066341 4.635726562173515 0.6274127802939112 1.6835896167936748 0 0 0
321 11 2 0.09425138776228453 -0.2952667218014605 2.0769146859956233 1.7987883499667408 0 0 0
234 5 3 -0.6940470831611933 1.4530044998378921 6.726507588606814 5.504551528833699 0 0 0
111 5 2 0.02262041381286305 -3.6213500082077825 7.467452875398766 5.416132225200986 0 0 0
246 5 3 -0.6490309651889034 1.3325977052122278 6.070621163351504 0.08312223947961957 0 0 0
110 5 2 0.02268584553038826 -1.3914317762498454 7.44187345044898 3.2829595012595543 0 0 0
195 5 1 -0.1281581706896399 4.826696770119082 0.07681593550962185 2.6018303855248166 0 0 0
118 5 2 0.04701391346341526 -3.264798534641946 12.912289776811159 2.844381358682097 0 -1 0
112 5 2 0.01286262859124703 -2.5112651405128497 8.618026775205395 5.337476174997399 0 0 0
341 19 2 0.01917905518708812 -2.220987001362846 8.521850842134128 1.019280828425483 0 0 0
342 19 2 0.05643268816887823 -3.9686304589929784 8.894989870526016 1.3969323547538868 0 0 0
19 4 2 0.04836930096748254 -4.640950655425334 11.692407421202075 5.266158793234661 0 0 0
20 4 1 -0.1188616370344683 -4.333589060742851 12.539938642499614 5.956787616703483 0 0 0
18 4 2 0.05107944499121788 -3.310081788597473 12.817106187931692 5.873183805414129 0 0 0
28 5 4 0.7859744750911417 -2.1134593611840296 8.055183698459585 7.6677952052694796 0 0 0
141 5 2 0.09158289846753342 -1.0195647276914406 12.649245259317258 4.941158658103039 0 0 0
142 5 2 0.03473716451487182 -1.198762426908288 10.890758935664712 5.49874657343012 0 0 0
143 5 2 0.02026095595071142 -1.084382756436906 11.28612246701879 3.791712439797691 0 0 0
193 5 1 -0.1638260620307474 -3.414035893518733 8.380025668949207 5.989833385607677 0 0 0
204 5 1 -0.1248518065261238 -0.8189737579962766 11.595858506697171 4.7657441425378835 0 0 0
328 13 2 0.041311219362206 -4.634956327163707 12.408097424132615 6.976880499446296 1 0 0
252 5 3 -0.6852616399823029 -1.0119691841345408 9.212777161650287 7.769593144703221 0 0 0
344 19 1 -0.1197437323578615 -3.0879380327715946 9.113321889411523 0.8193336302699424 0 0 0
343 19 2 0.03884332305037685 -2.7570802283867963 10.167504507454492 0.7908409829268306 0 0 0
350 21 2 0.05040316611303106 -5.457767294437447 11.986419940670812 0.41527293343025456 0 0 0
205 5 1 -0.09195802848136055 0.31884688200145983 11.69819182205845 8.138090416268321 0 0 0
113 5 2 0.03328071118515447 -3.8132227131422747 9.396856263916744 5.895919467096331 0 0 0
145 5 2 0.05551178126474032 -0.023811852552167223 11.667285217548692 7.125210143779908 0 0 0
140 5 2 0.08744277809705225 2.0352013388019854 9.142101779505735 3.448007264366929 0 0 0
203 5 1 -0.08993939034209994 1.4359062851141493 9.2417647401337 4.435948889493001 0 0 0
5 1 2 0.0192002613092143 -1.1080745959331058 2.843934224437896 5.457979641611178 0 0 0
158 5 2 0.04180134066559682 0.8348669525757152 9.076280862047124 1.1633679851468302 0 0 0
139 5 2 0.08343195170040929 1.9197073727323037 8.894495514906685 5.309868653059091 0 0 0
247 5 3 -0.6608276319273129 1.6974245872968081 12.089847247138074 3.2569519426657974 0 0 0
49 5 4 0.7991877094059922 3.7591769828993096 7.321702531796175 1.7188563135722719 0 0 0
370 31 2 0.05122783768709192 0.6626136984812073 10.860680614993065 1.3681921948540476 0 0 1
245 5 3 -0.7302622822795641 2.4993029084908662 7.014198954597733 2.692138705438011 0 0 0
138 5 2 0.02129616862143307 0.4641304354478923 8.865479248951418 4.237578537394177 0 0 0
210 5 1 -0.1169016966414786 1.0192623885688112 10.040560415836756 0.7399485823274191 0 0 0
50 5 4 0.6105371315908725 1.2112108728990074 11.276196103753604 4.593019585698109 0 0 0
196 5 1 -0.1030186785846447 4.920888323884303 0.18079093411243052 8.3957990840014 0 0 0
324 12 2 0.09819629434996353 -2.9148830347485397 5.781431510950655 0.02390365698786666 0 0 0
3 1 2 0.05958439261639385 -1.7016624710459585 3.0396007569672765 3.7721914094883937 0 0 0
363 26 2 0.04907558003690666 5.2573304053451295 2.08943392803095 0.10906699441729857 0 0 1
120 5 2 0.02357446062164654 3.889212934946155 0.089376368750368 8.183150780407127 0 0 0
364 26 2 0.008516482122718817 6.457759093155432 0.8985762631662965 0.02420804190643098 0 0 1
26 5 4 0.436802800442332 -1.0131553852013886 3.7153584879481802 15.040934638353761 0 0 0
241 5 3 -0.6685857655026213 -0.7389699830422682 5.337945165267095 15.106165250400885 0 0 0
16 3 1 -0.1076282397839657 0.01943663226883685 3.7868736513923307 9.397522527759243 0 0 0
362 25 2 0.05060931108326996 5.742094518596478 1.937798978227034 15.86456671616373 0 0 -1
13 3 2 0.05466594774528485 -0.7170612346317777 4.638992755185649 9.502146074807566 0 0 0
87 5 2 0.05881453359412345 -0.6457452242505171 6.816338376192626 11.050891521672112 0 0 0
381 36 2 0.06616664126945913 4.274559937241235 6.447382638815198 14.951882422702546 0 0 0
334 17 2 0.1127681510886921 -0.3747920328589949 0.9735701242820116 13.036710750473725 0 0 0
250 5 3 -0.6453001558007784 1.392942461415312 7.844117204457046 8.842297037551234 0 0 0
155 5 2 0.06808561063936856 3.599938578522159 8.1226129577833 12.766015979417471 0 0 0
348 20 1 -0.1043348577563813 -7.137478870212005 13.452443349218381 9.631405047711034 0 -1 0
366 27 2 0.04685401381666714 -2.0796877935826927 13.447693464937387 9.375249802923046 0 0 0
48 5 4 0.774311240108203 4.838016969435117 6.094966722341248 10.765706002310923 0 0 0
15 3 2 0.0352368745372237 -0.06481306176549526 3.06232886175645 10.21039753067295 0 0 0
14 3 2 0.01972177478200497 0.9704104254773253 4.028753757587629 8.959067766632035 0 0 0
255 5 3 -0.7173926176923878 0.6791518702475796 7.780901553144733 15.159799305623785 0 0 0
337 18 2 0.0428890586563264 3.477577330748687 0.32275049435493264 16.198953667127192 0 0 0
7 2 4 0.1316932146212286 -1.900238077726545 3.670669068186176 17.164788811548743 0 0 0
148 5 2 0.03148190461007322 -2.9656728537586208 11.121850520839427 8.932137119697943 0 0 0
339 18 2 0.02603746795695706 2.5169284923732858 1.7655648913250193 15.79081940853943 0 0 0
335 17 2 0.02060278744311045 1.4118149861671425 1.456387708550825 12.774620011614221 0 0 0
336 17 1 -0.09276652141583661 0.603940576320684 1.3335581327983907 13.486205553253296 0 0 0
333 16 2 0.01673650619589687 0.6023208485338298 2.0668666519699506 14.239644778998965 1 0 0
135 5 2 0.04419431546583914 4.401258549254816 2.4423120143274564 14.32139451123564 0 0 0
137 5 2 0.07631923492245392 4.7228728718463 3.8626353922342833 15.282209861013945 0 0 0
8 2 2 0.2645638863497706 1.6499566564380033 4.029474596455428 15.775944515071686 0 0 0
85 5 2 0.2567523369690022 2.259901018775293 5.305785137841092 10.568292572265555 0 0 0
123 5 2 0.05841892115254439 3.912267152133483 2.216573531313108 11.207048476562703 0 0 0
124 5 2 0.01909430202334493 2.527959833085591 2.3219356541672433 9.974337420734496 0 0 0
125 5 2 0.07412497661947366 3.5998950648116237 3.789343330311783 10.44659479198114 0 0 0
198 5 1 -0.08933326461271833 3.4912157627253233 2.7287025154433397 10.344733654944939 0 0 0
202 5 1 -0.09212983005730402 4.371354208025121 3.522079787326808 14.35848147950651 0 0 0
242 5 3 -0.6505755191723263 2.17047288104723 4.780473202838333 15.40659366220164 0 0 0
243 5 3 -0.6294798704945207 2.780956206526953 6.146705989455659 10.524874949905396 0 0 0
340 18 1 -0.1269396239260885 2.495896621286589 0.7911894697396777 16.276196246416173 0 0 0
42 5 4 0.5249413905150873 3.0672127726950578 5.6441785245742855 17.14063998600306 0 0 -1
47 5 4 0.9128755871302718 0.6474252356170656 6.166229883258853 15.446650308874755 0 0 0
136 5 2 0.07146554184338907 3.5842868251528257 3.9712989194316473 13.851824274974074 0 0 0
232 5 3 -0.8276644307551047 6.950840583038016 0.8575215641171493 10.750919516157873 0 0 0
298 5 3 -0.7148234376353662 2.7012103309775766 9.44548678108991 15.395045731251573 0 0 0
36 5 4 0.196295209903298 4.8738696460608795 2.1572052921200955 8.897553908996139 0 0 0
11 3 2 0.1070557770580094 -1.0016223469178538 7.189684236883899 10.432958529497995 0 0 0
240 5 3 -0.7892430557697383 6.147098944050544 3.0944919185905087 12.069853938734397 0 0 0
157 5 2 0.04964563130999362 2.642364020017161 6.6208476389337285 13.37921572469577 0 0 0
347 20 2 0.04557336455532879 -0.2047203264372689 0.5977350285727155 10.33175807699806 0 0 0
94 5 2 0.2937790683498089 1.5323552359284238 11.169497000889383 13.726245405058338 0 0 0
156 5 2 0.1046124064405367 1.9151276536899766 7.800773751978545 12.088261494218328 0 0 0
292 5 3 -0.8196071676624151 2.7123430609401082 9.699745941999014 11.158997596965689 0 0 0
38 5 4 1.137713682703677 -0.005873448487612176 13.102085610526867 11.543282016760497 0 0 0
150 5 2 0.02450226191988636 3.0544681476830853 0.29116948736513587 11.536159559678852 0 1 0
325 12 2 0.08540396162982433 -1.5227430413992367 6.179196661007097 17.11149687095202 0 0 -1
23 5 4 0.6341104051591114 -6.007661464580878 13.41067572610994 14.84393105340222 0 0 0
160 5 2 0.02780680889486835 -0.27975419345451974 12.248089106564896 16.325303444140648 0 0 0
351 21 2 0.09553910245829891 -5.0760097391694945 10.729941066149411 16.649954080889444 0 0 -1
368 29 2 0.08624317852111249 -3.0807390438392845 12.608478874683213 11.724939239586888 0 -1 0
116 5 2 0.05498480935911557 -2.3496424258910227 7.266571315368437 13.553316142697643 0 0 0
151 5 2 0.01979473632301196 -4.355406458373004 12.564969457385725 10.408016953939793 0 0 0
102 5 2 0.008757669620170883 -2.894530297152163 7.287787339312091 15.557120217363966 0 0 0
147 5 2 0.09774864847113653 -2.7693506618745003 10.151207025835756 10.491536331939912 0 0 0
115 5 2 0.06506627827431383 -2.342867051253085 8.099848822758895 11.930416438293806 0 0 0
27 5 4 0.5876666250946858 -3.8075837308437874 8.575919505251063 16.223164735958093 0 0 0
30 5 4 0.7745939308539266 -3.1893872208499077 9.830459206142633 13.6751906741011 0 0 0
32 5 4 0.8010988064071768 -5.325629383426583 11.660928575545778 12.566736865577493 0 0 0
53 5 4 0.6408838722255447 -0.6113452932030201 10.137244624266696 9.09093243426555 0 0 0
56 5 4 0.8247128160068882 -0.9327855003975216 11.723264996061248 13.847276774045246 0 0 0
114 5 2 0.08154361740791938 -1.0580130921470146 8.459321183810468 13.051637013301526 0 0 0
194 5 1 -0.09267017493012718 -2.065537387910682 8.131763127048199 12.9848553192403 0 0 0
206 5 1 -0.1048932003173933 -2.3460478471010857 10.975512842141054 9.838210141051116 0 0 0
207 5 1 -0.1163963338735179 -4.072258620190673 12.843330700734834 11.370989377059605 0 0 0
211 5 1 -0.1152328736042481 -1.2642615431700814 12.296832063629136 15.800875889519688 0 0 0
226 5 3 -0.642782144492111 -3.4178702731309745 9.920445505998456 15.29370606457717 0 0 0
229 5 3 -0.6540702550407597 -4.812405435480373 9.65647554080306 12.390196484199334 0 0 0
230 5 3 -0.652639265668865 -5.152154348392938 12.287900432861498 14.068656123306955 0 0 0
256 5 3 -0.7014636146742163 -2.2188450186244273 11.095656987010592 13.175242626440484 0 0 0
257 5 3 -0.7447008716985706 -0.2807106278518319 13.029218343773993 13.101415489668362 0 0 0
149 5 2 0.00975201687450185 -1.8997670582765072 11.877947193921619 10.235344545465567 0 0 0
224 5 3 -0.6737559991651753 -3.00984758537779 7.925649355246883 8.99802912884797 0 0 0
159 5 2 0.04693735977913374 -1.6683636384489762 13.26716520362345 15.612877217993182 0 0 0
161 5 2 0.07162455357585876 -1.9174201564419227 11.536974683860741 16.110187093126527 0 0 0
338 18 2 0.04082348318037295 1.9660447568295387 0.6645755804376067 17.228770342981857 0 0 0
260 5 3 -0.8035872647501255 1.166028682670767 12.107925278970612 11.107849236915147 0 0 0
209 5 1 -0.08524337083602436 2.645834231848726 7.633161618067411 12.906109715559383 0 0 0
369 30 2 0.06367476478941883 0.47337041373608474 10.11918163230596 17.011052901043726 0 0 0
259 5 3 -0.702947210070474 0.7660493504017223 10.405696696795937 13.515531848548086 0 0 0
55 5 4 0.8219270914814854 1.687235321648443 8.764775243888165 14.360816821817616 0 0 0
57 5 4 1.157289769864962 1.3098878913773755 10.448569895977576 11.368539607583527 0 0 0
83 5 2 0.3522951426146131 1.825724225017948 8.526246459896122 9.522439875572008 0 0 0
258 5 3 -0.7136566705583313 0.3093894779167649 9.639277395898695 10.368411457638166 0 0 0
352 21 1 -0.07501089835261276 -5.8484948441623565 11.025588002282163 17.2923438762167 0 0 -1
346 20 2 0.01876461676131458 -6.080003455843705 13.420249246665508 9.581486661594415 0 -1 0
365 26 1 -0.1321313966935671 5.824613104175076 1.846044686311483 16.89306394595575 0 0 0
144 5 2 0.03939929186258867 0.037079683225631405 12.589708721004843 8.679193778842214 0 0 0
86 5 2 -0.02054972835813098 8.189756068672022 2.375896948773173 1.3473203677286836 0 0 0
233 5 3 -0.6511224870169317 6.971129391713879 4.54063157832095 0.752879746057189 0 0 0
89 5 2 0.3210376309057912 8.022007033488558 3.6751198248168047 7.823441700762533 0 0 0
267 5 3 -0.6674165347521727 5.661507586778824 6.63613734984011 2.227817622059775 0 0 0
272 5 3 -0.6971516637084973 7.236784983128548 3.457443453199052 8.380635615433892 0 0 0
239 5 3 -0.7765504934424396 5.711237140479891 5.7114864222168045 6.6111799448106385 0 0 0
88 5 2 -0.006777256483814699 8.01943739805259 1.8740044847143766 3.999011677215198 0 0 0
197 5 1 -0.09856093380726214 8.23303425431551 1.0429864178441501 6.976163764215429 0 0 0
105 5 2 0.2869988325005633 5.514586851282242 6.460888976061274 3.189078917021538 0 0 0
171 5 2 0.08520102943542117 8.223813701451597 5.312679290126305 6.097284851374779 0 0 0
179 5 2 0.08102287158606643 8.401726622557197 6.486525639881887 7.673763202840627 0 0 0
122 5 2 0.07815401854671356 8.616049309815887 0.1587173780090798 6.525788353597756 0 0 0
237 5 3 -0.7294847030398606 6.839565942298892 3.5016402709998657 5.656080010122685 0 0 0
310 7 2 0.03179933500709831 9.105243358642035 5.4928230187953515 2.162983717854885 0 0 0
35 5 4 0.6446514948821919 7.523368878418439 3.2412953739888466 0.034976997653071475 0 0 0
215 5 1 -0.08428929473596586 8.751895863682678 5.343254858308971 5.147152592935148 0 0 0
170 5 2 0.0437520311661888 8.46137734424261 4.670673639748003 4.306384446434044 0 0 0
172 5 2 0.08551513006656204 9.779195454389912 5.518068314193848 5.251176585133577 0 0 0
367 28 2 0.05709741622153577 8.987734951453794 1.7834835944308431 7.153680977381012 0 1 0
311 7 2 0.02145208571900463 9.663663078393403 3.9915650501021585 2.990303943208337 0 0 0
312 7 2 0.1125031414877354 9.552985665094111 4.080000445882294 1.1548104232797252 0 0 0
97 5 2 0.01186455577288255 13.468089038161722 2.9435646737537122 4.6451807315168745 0 0 0
96 5 2 0.2471910918409518 12.641405277205457 3.6833392854645415 2.882458100184691 0 0 0
308 7 4 0.9511578023355881 12.439491174093343 2.695943241826993 0.6778528697085704 0 0 0
359 24 2 0.07037907100856262 10.668202767505804 1.0924018513482958 2.2011265128795037 0 0 0
59 5 4 0.9411249775451664 13.583938327484297 0.8834883260707083 7.5829181408160435 0 0 0
61 5 4 0.6655957318534835 12.16337453605227 2.9238128566359722 5.7921430053059115 0 0 0
67 5 4 0.7981673080263703 11.23374897246477 5.165066875872033 7.388147000918424 0 0 0
263 5 3 -0.6868166004714567 12.446626646918759 2.067068000723933 7.15828651371856 0 0 0
271 5 3 -0.7073968749433618 11.781859123214804 4.449956340059571 6.020425477647723 0 0 0
309 7 4 0.5351017682323514 11.59865862015881 5.393253946596667 1.802046019062114 0 0 0
313 7 1 -0.09884533434043614 9.710094527989465 4.5799937882038195 2.083827646729238 0 0 0
314 7 3 -0.7782042215917598 13.032826930043218 1.5346135730575585 1.6531662758157326 0 0 0
315 7 3 -0.6588744532343992 12.950170596395655 4.264420481650661 2.0969784524764457 0 0 0
353 22 2 0.03130999189114664 9.765942631026148 2.7056804184106564 5.0663633527139655 0 0 0
354 22 2 0.04124579866078885 10.873640645563363 1.9067503150936789 3.7624301258930055 0 0 0
355 22 2 0.07323596687448777 10.467402314317127 1.112463435563135 5.4019610874747235 0 0 0
356 22 1 -0.107389806380198 10.620026007407924 2.0453973506983365 4.821710184795636 0 0 0
270 5 3 -0.6792757687368692 9.881532570367485 3.836980600460983 8.1665091963728 0 0 0
58 5 4 1.176480873770948 14.081993156660175 0.2562518556330813 1.6283266349303827 0 1 0
106 5 2 0.3046437226869999 10.529988606161654 3.042705600927363 8.04350426946073 0 1 0
386 40 3 -0.7496819159579597 15.287895113055713 0.31606306109069987 2.6858071629893 0 0 0
316 7 3 -0.7051163828189834 11.677487154584378 6.158726900659419 0.3574689071732107 0 0 0
264 5 3 -0.7415485032101232 10.823562720735087 2.6565839842119514 0.3292198877442588 0 0 1
361 24 1 -0.07501622901972274 10.365125543695212 0.3342180359854934 1.4909478144621278 0 0 0
358 24 2 0.1033431168163759 11.087859316731983 0.09518677532843711 0.7065464272110547 0 0 0
261 5 3 -0.6499111157693311 14.859611474106538 1.649074927983443 8.291023552630225 0 0 0
378 35 2 0.09302610850036774 10.965049016373145 7.400781962857412 3.252072255102003 -1 0 0
295 5 3 -0.7266948892529391 14.024882140163209 0.043184972369300204 6.2391798682188595 0 0 0
1 1 4 0.6030520592060626 16.01126653205365 0.7084857311404984 4.062630759515345 -1 0 0
274 5 3 -0.674825505116228 10.643627304086516 6.707459422570756 7.136554827565189 0 0 0
360 24 2 0.03516504954978879 9.344735069583681 0.31236378664174347 1.2050511690848646 0 0 0
377 35 2 0.0715419086515358 11.78565261798164 6.135065104012743 4.295439471676798 -1 0 0
294 5 3 -0.6775959913115999 9.282799350532368 12.29090411250949 6.97346860615725 0 0 0
185 5 2 0.04786689886828801 4.3577583727869555 13.00517507354917 8.49191529681966 0 -1 0
218 5 1 -0.08238590285130588 7.767490822318991 6.870545789899229 8.455592781997902 0 0 0
167 5 2 0.0823806001485879 13.204574067675512 5.921194837247958 8.580895230712255 0 0 0
181 5 2 0.09174008653496879 6.775058341178776 7.28606590064612 8.150867001100385 0 0 0
45 5 4 1.26880844474354 5.182190968560927 6.998144986752527 5.82784860582297 0 0 0
65 5 4 0.6933618177503138 7.843044556682191 7.032804398941903 4.376691587277634 0 0 0
183 5 2 0.0694580175291809 7.8562792419292045 8.624948042334807 6.947389369915948 0 0 0
254 5 3 -0.7932205337515363 4.05228875366329 10.085605191942749 6.004901082113587 0 0 0
33 5 4 0.7687816556621642 3.2522001895110306 12.297116025898404 2.7329709069002517 0 0 0
52 5 4 1.021081426218578 3.871930779931812 9.295068466333426 7.46589315360409 0 0 0
54 5 4 0.9778680421777307 3.7881799486647263 11.661403643917668 5.708610750614407 0 0 0
73 5 4 1.105587871736177 8.66566707464568 8.229010575806374 1.799391733278658 0 0 0
74 5 4 0.6360424342501541 6.0514641727498555 11.568494210862973 3.5865172960954093 0 0 0
75 5 4 0.9725339706849344 7.835644612356076 11.002963972382119 1.2756284604560753 0 0 0
78 5 4 0.7897741700618501 7.7621311829964466 12.609966467411027 5.612253061732961 0 0 0
176 5 2 0.1392182221768634 6.554348782329755 9.123426944371358 3.583356276552508 0 0 0
177 5 2 0.1569847748759079 5.426397196261331 9.446623964172623 2.1984629910080526 0 0 0
178 5 2 0.09053439324591996 4.763196830396146 9.253768932558021 3.957342589107134 0 0 0
217 5 1 -0.01333519395406506 5.611154775295591 9.54839653098931 3.2916046893264888 0 0 0
249 5 3 -0.6860658308347012 3.646066447802872 10.860292795848741 2.0118675763308054 0 0 0
251 5 3 -0.7450500428991039 4.4889299764215105 7.855608291104247 7.6617707849887156 0 0 0
268 5 3 -0.7770072289344675 6.547859765132627 7.575768858467608 5.141611435263215 0 0 0
282 5 3 -0.7333880697272686 8.832906098148097 7.929863934421731 3.428586858859134 0 0 0
284 5 3 -0.7360922522715806 6.225320484222529 12.284427848925423 1.6162943995565389 0 0 0
285 5 3 -0.6653565807290063 4.4612874490991565 12.555231438619238 4.485714036266221 0 0 0
287 5 3 -0.7596382405945371 7.642981414665422 9.400025333375114 1.5468450860953327 0 0 0
293 5 3 -0.7135181297588336 7.454003700312188 11.512390584872808 4.465417997057957 0 0 0
184 5 2 0.07266936811852116 7.332083129412773 10.239536142496974 6.4927853728594345 0 0 0
219 5 1 -0.09773548190224837 7.591877905000199 9.61068048920761 7.314898859694549 0 0 0
253 5 3 -0.6831963175653758 2.145060475150081 11.90170728539172 5.790980747036578 0 0 0
283 5 3 -0.7884401814332661 10.070420482503197 8.254984544026808 0.9819455968669684 0 0 0
101 5 2 0.2445350485044639 9.975058979424613 12.087624208005312 6.238170612797405 0 0 0
318 9 2 0.09491255686663989 10.11464974550072 9.551371502354158 4.6683643744086085 0 0 1
349 21 2 0.1172291547284691 10.929488855789572 10.311529955282582 0.6600307834775201 -1 0 0
248 5 3 -0.7197939226444496 3.8136333229483106 8.602774702050661 0.775105806563921 0 0 0
379 35 1 -0.1005665032749191 11.80006145175237 6.726554255518948 3.3655340608400666 -1 0 0
289 5 3 -0.6768877041003135 10.632765911697124 9.609427770654765 7.21414650873894 0 0 0
76 5 4 0.6401453015777043 9.418444013647429 10.427722164069946 7.786623401637753 0 0 0
69 5 4 0.6252040371674981 11.338834037527466 8.150020555751972 7.102568165871011 0 0 0
288 5 3 -0.7107466175095685 9.569785612865193 11.60076358599186 2.3230547849693792 0 0 0
107 5 2 0.334308319603103 9.591138164666503 12.55142341782107 2.1050477668951864 0 0 0
100 5 2 0.319659279251885 9.044385791306645 11.683143824071461 3.226519175163409 0 0 0
104 5 2 0.110511470812378 9.532339043310447 10.093538036175154 4.573700254792827 0 0 0
51 5 4 0.8630639764747414 3.0781243743668525 10.055348549332516 0.7299396494073291 0 0 0
182 5 2 0.04328114357732257 6.92952953368426 9.552677112514418 8.151240522086017 0 0 0
168 5 2 0.08612165136516005 13.2094466328512 4.11198828004686 8.278775257034328 0 0 0
376 35 2 0.03514318364893678 12.724816604608073 7.221369846826617 3.1035516256573605 -1 0 0
214 5 1 -0.07946668295957995 12.73049252334364 4.9904035101978454 8.638208361885189 0 0 0
39 5 4 1.189079072363334 7.090772334327438 2.4537858244321065 10.91456180642534 0 0 0
46 5 4 1.129927578303105 5.949099752759282 4.34179200087443 13.063389071007402 0 0 0
68 5 4 0.6086580970719508 7.16512960806137 5.167670391917992 9.442623449600472 0 0 0
71 5 4 1.053978121391555 8.150178613657877 6.062401993773067 14.200531070978435 0 0 0
277 5 3 -0.744386351773854 7.241691699169412 4.770803646569807 13.984915124494757 0 0 0
265 5 3 -0.644932216847021 8.357465053330499 3.4199027396479433 16.249547175049194 0 0 0
273 5 3 -0.6490250690367614 5.522993835903626 5.213124479493559 9.565145783290763 0 0 0
280 5 3 -0.6873958039146537 8.31614642796736 5.2199954138148055 11.11426334590487 0 0 0
103 5 2 0.3654008837844055 8.488756065975137 5.4124378424388695 16.613068688797654 0 0 0
278 5 3 -0.6912806758146759 8.77720171522624 6.252930791590239 16.168502054495676 0 0 0
383 37 2 0.09140075688520745 5.326484675380891 6.543846652511318 16.43593801932629 0 0 -1
221 5 1 -0.1016330003237766 9.008954975116326 9.851604118711647 14.398523519075924 0 0 0
163 5 2 0.03072023719225735 8.602158675376609 0.15899222691742998 16.379562902113634 0 0 0
162 5 2 0.09174611661694203 9.266422180686744 0.5642022650763802 14.670881720639988 0 0 0
262 5 3 -0.7120854927936801 8.706834560578224 2.6896271215674497 11.082791336129278 0 0 0
212 5 1 -0.07836006780396722 9.432784623348235 0.4638114970217476 15.744409733654791 0 0 0
98 5 2 0.3555499071996504 8.928061360750041 3.3964679051025874 13.887994197788274 0 1 0
60 5 4 0.8925349802053879 9.686555296912134 3.751180395765783 10.28334110892818 0 0 0
63 5 4 0.74194025486314 9.728051354853068 2.4735041259963895 16.224997781483125 0 0 0
64 5 4 0.6555695345720547 12.172894087399275 2.9856799138219943 11.648551426296399 0 0 0
70 5 4 0.7853074167154828 10.853299499360439 4.776518980287992 13.60375456093425 0 0 0
213 5 1 -0.1017605628089535 14.101528950281596 2.8482182110451166 10.933476006074704 0 0 0
216 5 1 -0.05421560001432409 11.95268874060588 5.205593230385086 15.237092989190709 0 0 0
266 5 3 -0.6898035143282737 11.209849537153373 3.1331260458418893 10.356660760853863 0 0 0
275 5 3 -0.6491107062859318 9.907129498257326 3.139631406833997 14.212682060174986 0 0 0
276 5 3 -0.6990996132989534 12.054357466105909 4.278804682410581 12.613569904796714 0 0 0
281 5 3 -0.7137342692202931 10.103754057123131 6.214705535326905 13.306250467515232 0 0 0
305 6 4 0.9874134585143316 13.710860732906843 1.3508463667816948 15.725262136546108 0 0 0
306 6 3 -0.6973692061505674 13.120926661448584 2.773865669729854 16.198083876379723 0 0 0
373 32 1 -0.1054636767402343 11.608440789737058 0.9958052846479558 12.571883896539564 0 0 0
84 5 2 0.289182051416367 13.693446730655063 2.9727246303364656 13.92868386799478 -1 0 0
374 33 2 0.06834204959073896 11.51693283655646 1.5444102755189977 13.47198099817563 0 1 0
371 32 2 0.02507289195264837 12.564574959419204 0.6339905905043014 12.000138061860605 0 0 0
175 5 2 0.1039924474684238 11.364982789853107 4.651963906476426 15.95725653954638 0 0 0
372 32 2 0.08139056771331137 10.68314865246024 0.554071786006869 12.258266484243647 0 0 0
223 5 3 -0.6538147526348336 14.491805198689262 2.3633510924375063 14.081073737130788 -1 0 0
173 5 2 0.09568397947961342 11.83126799560597 6.33379230746734 15.234359399414187 0 0 0
375 34 2 0.05707047243740454 14.58411182474948 2.1305278144167032 11.574286262179418 -1 0 0
307 6 3 -0.7608822452333647 12.668986426427027 0.184261590325644 15.300515385160612 0 0 0
72 5 4 0.9436421035559394 9.31097923905227 6.495858417701069 11.437803430933572 0 0 0
95 5 2 0.1129005126053558 9.568757243913856 0.5398696395347521 10.242321007427385 0 0 0
174 5 2 0.08928722701001107 12.945992970310105 4.810759555599052 15.084906381920709 0 0 0
166 5 2 0.09620497180780174 14.023709571387885 2.5387363725162873 9.920190031508685 0 0 0