ITEM: TIMESTEP
0
ITEM: NUMBER OF ATOMS
310
ITEM: BOX BOUNDS xy xz yz pp pp pp
-8.9189227129867934e+00 1.5435014826195875e+01 -7.6265416956433167e+00
9.8835977962569821e-02 1.3580554735429383e+01 -1.2687661911472270e+00
2.3983829263538503e-01 1.7263561707364509e+01 9.3829071339187675e-01
ITEM: ATOMS id type x y z
74 2 -0.44457 1.42541 2.04574
152 4 -1.10253 5.70848 5.10044
183 3 -0.683388 4.25022 4.31979
27 2 1.93143 3.90879 5.11773
159 2 -1.25152 3.18142 1.8202
154 4 -0.155046 4.09475 2.82855
75 2 0.638392 2.02896 3.61132
76 1 0.287953 2.24065 2.52801
160 2 1.17553 2.51099 1.80482
184 3 0.765849 5.24267 2.09956
182 3 -1.67203 5.7511 6.73007
279 2 1.51767 4.03219 8.16046
227 2 0.584652 1.83347 7.21701
16 2 4.27578 0.24179 1.55681
25 2 2.88757 2.77979 6.32528
125 2 3.74847 1.51914 0.262683
48 3 2.86318 1.35491 3.75938
42 1 2.97398 4.19476 5.01412
241 2 3.14147 5.72846 5.85176
26 2 3.27778 4.51611 3.84964
180 3 0.381967 6.63136 5.35202
3 4 3.676 2.40364 4.77895
49 3 5.25795 2.42877 4.82402
51 3 5.21435 3.10599 2.10346
110 2 4.20285 4.22489 6.4259
215 4 7.07557 0.381652 1.52293
98 4 5.05474 2.67718 0.587186
179 3 -2.12653 6.51436 4.35277
223 2 5.84767 1.01058 6.51028
19 2 -2.12719 3.67516 7.82448
78 4 -0.501207 0.945596 11.8155
134 3 4.88387 1.58796 11.0817
100 4 5.13461 3.09872 14.0216
145 2 -1.47623 6.94472 15.5167
108 2 5.13885 2.27015 15.6707
146 2 -1.64953 3.19548 16.9711
245 1 -2.05703 6.25028 11.9363
83 2 0.456889 4.26891 10.8009
132 3 2.75024 1.57724 9.27707
173 2 0.863128 5.53691 14.1751
124 2 -0.421583 5.95998 15.371
131 1 0.0305102 6.27215 14.4111
126 2 -0.738456 6.22829 13.4973
289 2 2.47458 3.41069 13.8218
94 4 2.09806 4.74685 10.428
81 2 0.204566 3.2037 15.2093
79 4 1.26554 2.16556 14.2475
162 2 -3.29005 5.27233 10.8694
148 1 -1.44548 2.53518 15.9891
242 2 -1.01186 5.87398 11.6832
120 2 2.05981 6.39125 11.2677
90 3 0.348665 1.49037 13.0684
92 2 -0.61559 1.70475 16.0658
290 1 3.25267 1.69224 14.2094
85 2 3.60926 1.7817 15.3973
87 1 0.899811 3.70305 9.01691
89 3 0.242589 1.2195 10.3914
95 4 4.05156 2.50022 10.112
243 2 -3.02388 4.97944 12.6772
147 2 -1.56638 3.10317 15.0138
136 3 4.85635 3.21368 8.93997
133 3 3.16049 3.82308 11.0956
252 2 3.75042 2.77051 12.8435
280 2 -0.164539 3.96021 8.91883
77 4 1.20751 1.74759 9.13337
118 2 2.30338 6.28341 8.76139
141 3 3.96975 4.76308 16.5552
129 1 2.9979 6.66846 9.70905
220 1 4.25573 1.84488 17.2509
216 2 -3.65645 5.63574 16.4812
84 2 1.90261 0.960447 15.3921
196 2 -1.33824 7.11011 0.54248
233 3 -1.55274 12.8893 7.21143
2 4 -3.5228 7.08603 3.80112
231 1 -6.54152 12.7937 7.4443
168 2 1.33536 9.64133 7.5841
287 2 -6.13372 12.1684 2.16919
226 2 -6.86154 12.2821 6.47311
157 2 -7.06683 12.2351 8.32448
161 2 0.772415 7.697 0.588599
41 1 -4.37007 11.0779 5.73073
208 4 -5.68778 10.9869 0.992821
200 3 -4.39968 10.1373 1.26837
219 2 -3.84605 11.3804 3.82081
80 2 -5.02074 10.7305 4.83833
225 2 -5.41238 12.6735 7.54987
156 2 1.81065 7.94708 7.44813
199 3 -3.11246 8.44541 2.92476
193 4 -3.26937 9.0156 1.48423
170 2 -3.35203 8.0906 6.10694
22 2 -3.74405 10.1208 6.17947
23 2 -5.13497 11.4815 6.56435
164 2 -3.20471 8.96046 7.84459
24 2 -3.61493 11.956 5.44584
60 3 -4.63116 7.63247 5.14671
153 4 -1.79801 7.12786 7.61639
230 2 -0.832608 12.0476 4.36382
177 1 -2.61049 8.57902 6.9323
169 2 -1.57494 10.0154 6.41652
158 2 -0.766212 8.42657 6.80101
171 2 -1.20309 11.7516 8.62207
213 2 -1.2661 9.66736 0.579123
229 2 0.144347 9.027 5.2446
228 2 -0.535316 8.49202 1.51459
222 4 -0.807774 11.6199 6.15223
174 2 -0.25878 7.91681 3.32981
172 2 1.35321 9.45212 2.71808
178 1 0.233991 8.25802 2.37491
150 4 1.80419 7.10396 5.83363
155 4 1.3569 6.8897 2.02911
175 1 1.62335 9.00418 5.93328
185 3 2.82921 7.3005 2.36665
310 3 0.120907 11.4449 1.62927
20 2 -6.023 9.74703 8.26094
204 2 -6.20651 10.4226 4.29104
1 4 -4.53639 12.5937 2.84944
203 2 -7.14901 12.0866 3.85393
195 2 -3.4814 7.74779 0.287667
259 2 0.675622 8.98036 14.2826
247 4 -5.36264 8.98305 11.1178
210 2 -3.52212 13.2496 17.1377
198 1 -3.18574 9.80539 17.0996
144 2 0.523366 7.31352 14.5228
257 3 -4.20351 7.93265 10.8296
149 3 -4.12702 7.75954 15.1609
309 3 -7.26846 12.8679 16.3426
88 1 -3.51296 11.4608 13.0036
300 2 -4.08086 12.343 12.5566
114 2 -4.04828 11.0624 13.9139
283 2 -5.28911 10.3737 14.34
250 2 -5.40697 10.2988 9.84059
166 2 -3.33142 10.4717 12.0691
253 2 -5.24233 9.75971 12.6256
142 4 -2.74665 8.1235 15.7623
276 2 -2.44484 11.9575 14.5631
254 2 -7.33334 11.5066 12.9852
181 3 -1.83181 7.20939 9.22714
194 2 -3.59329 10.3567 16.2227
262 2 1.62723 8.11563 15.9407
167 2 -2.18585 7.2214 12.5727
248 2 -7.20466 11.4902 11.0101
119 2 -2.06206 10.4365 9.49581
96 4 -1.56427 11.2774 13.1566
135 3 -0.78572 12.4151 12.2324
38 2 -0.973182 9.1656 9.3857
197 2 -1.84247 9.11729 14.6427
176 1 -1.11055 11.0605 9.51874
143 2 -0.969508 11.6508 10.5579
101 4 0.64163 9.93877 9.30054
122 2 -2.39423e-05 9.30858 12.1897
151 4 -2.94483 6.98493 10.5027
112 2 -0.622199 7.9682 13.4348
121 2 -1.84989 9.08636 12.4361
130 1 -0.824552 9.05618 12.9593
123 2 -0.434925 10.2318 14.2534
284 1 -6.20399 9.70545 14.3715
297 2 1.66799 8.72679 10.8742
93 2 -4.08209 13.2006 13.8567
86 2 -7.28913 12.0555 15.8022
264 1 1.63077 9.02246 14.9865
4 4 6.22388 2.75195 3.37602
50 3 7.09768 1.36757 2.81502
57 3 7.22808 4.12535 3.63153
116 2 7.15051 3.78305 7.06474
117 2 5.64447 6.03017 8.14679
128 1 7.00362 5.12256 8.142
9 4 7.33739 5.66794 4.04484
61 3 8.6279 6.04283 5.05103
99 4 5.44631 4.09755 7.75156
7 4 10.1862 0.578228 5.76177
45 1 5.67029 6.11149 5.02569
109 2 7.85349 5.83837 7.89361
33 2 6.19326 6.34183 6.0098
18 2 8.33208 1.02633 5.8803
274 2 9.16768 2.8956 2.29769
58 3 9.43822 5.2127 0.950825
72 2 12.9178 1.07541 2.41886
295 2 9.27444 2.05308 7.93952
34 2 4.74651 5.26919 5.00935
56 3 11.232 5.98056 2.81718
73 2 10.2783 1.31728 1.62388
31 2 9.66471 3.94744 3.79063
46 1 12.8188 2.92459 7.10511
62 3 10.7071 5.01173 6.27552
12 4 9.91423 6.40169 5.90553
29 2 11.9212 3.32497 3.57372
44 1 10.0955 3.2882 2.88606
71 4 11.3166 1.71297 3.09153
8 4 10.5826 4.90288 1.94183
11 4 11.0564 3.56482 6.87793
53 3 10.8521 0.925486 4.38879
59 3 10.0323 2.4088 6.65832
214 3 9.45957 1.47897 0.396424
30 2 11.8638 4.24289 0.853793
37 2 12.9751 1.76904 7.43417
36 2 11.5973 3.59747 8.50538
35 2 13.085 3.17964 5.92687
106 2 9.60004 2.5814 0.300948
271 3 13.2317 0.881104 11.8473
104 2 4.04482 6.18078 9.64755
111 2 4.65394 6.27314 12.7129
278 2 11.4848 4.03609 16.4097
291 2 6.54867 1.63053 9.0457
293 1 7.61075 2.17017 10.4967
294 2 9.0302 1.37996 10.9865
107 2 7.706 3.23088 10.6828
137 3 6.43913 2.47754 13.2076
139 3 5.11212 4.65127 14.1901
190 2 6.37687 6.50349 12.587
102 4 4.90446 5.61125 15.5901
187 4 7.99697 5.87578 12.8967
140 3 6.23861 6.13398 16.2378
221 4 8.33549 1.19509 9.20204
305 2 8.64922 2.87302 12.5423
307 2 7.80379 4.57038 14.1646
266 4 11.8118 0.864117 12.5212
189 2 8.41568 5.09261 11.3197
308 1 8.86943 3.95955 12.7637
299 2 8.78183 3.16951 14.4502
5 4 9.27981 2.11775 15.9015
105 2 4.18466 6.80931 11.2728
138 3 4.85703 6.96067 12.0465
10 4 7.29859 7.0889 16.8904
52 3 11.032 1.95841 16.2485
91 4 12.409 1.39656 16.6272
192 3 9.13215 6.91851 13.3153
97 4 6.37371 1.59404 11.7484
188 2 7.9412 1.0776 14.1951
103 2 10.088 4.30253 11.2821
306 2 9.92456 4.41288 14.1869
240 4 10.9075 3.86422 12.7597
273 3 11.3356 2.34764 12.7096
55 3 11.7568 4.78009 16.9652
115 2 7.11324 4.75494 9.21915
218 2 6.12895 2.19622 17.0252
239 1 3.53252 9.90208 1.14336
66 3 5.40458 7.77499 1.16395
285 2 7.32955 12.4439 1.47944
232 1 0.881425 11.984 5.11132
224 2 0.765479 11.1608 6.82349
65 3 7.166 9.55498 2.48559
68 3 5.83817 9.69131 4.89388
63 3 7.1842 6.74928 2.83574
238 2 2.53994 9.27539 0.551955
54 3 3.19217 12.2831 6.89227
163 2 3.07918 9.82636 5.26389
67 3 9.41374 7.08646 7.38493
302 2 6.36919 11.5153 8.32577
202 2 8.13276 11.3217 5.59024
43 1 5.71085 12.3669 8.04888
212 2 0.924358 12.2132 3.71452
32 2 5.46812 7.0786 4.43999
207 1 6.20741 12.4953 1.32796
237 2 3.16824 10.8156 1.61602
209 2 8.38833 10.1573 1.62608
235 2 4.11255 9.68616 2.96238
286 2 5.7043 11.4635 1.26452
205 2 5.82255 11.7873 3.10368
234 4 3.99629 8.2231 1.91312
6 4 4.10175 11.2981 7.81001
15 4 5.60034 9.0584 6.29558
40 2 4.83452 7.53151 6.08552
69 3 6.99125 8.69906 7.13799
70 3 4.5727 9.88733 7.10858
201 4 6.70305 10.4243 3.75381
13 4 6.92316 7.79504 1.7385
14 4 8.42147 8.24648 7.96791
165 2 2.66579 8.13656 4.64803
206 1 8.27484 11.1208 4.47586
64 3 7.9425 7.4756 0.539648
301 2 6.12299 12.7824 7.09444
217 2 0.915411 11.7703 1.16928
236 2 4.37014 10.1978 0.42804
211 4 1.4349 10.2243 4.47933
288 2 3.10129 7.77566 9.67797
186 4 9.61223 7.8517 14.6723
277 2 1.93728 12.5467 14.5332
17 2 0.560275 12.5911 15.7762
127 1 1.06624 13.1853 14.9598
292 2 0.693975 11.915 9.23795
191 3 8.45277 7.53563 15.7918
298 1 1.62177 10.0313 10.8397
263 2 1.71337 10.1418 15.5318
260 2 4.35338 10.0962 15.5895
261 2 3.59626 9.29107 13.112
269 2 6.05585 10.3092 15.1148
258 4 3.41894 8.78543 14.7816
272 3 3.06999 12.3833 11.7086
265 4 3.2541 11.0327 10.9206
47 1 4.79125 9.90074 11.6473
281 2 8.58134 9.80899 15.3457
296 2 1.07771 10.6479 11.6749
256 1 7.56114 11.6103 11.9564
21 2 7.90236 7.55719 9.64765
251 2 8.40244 8.26737 11.3816
282 2 8.65249 9.53694 13.3869
82 2 6.53478 10.9654 11.8607
270 3 3.52095 11.2095 9.38223
39 2 5.47517 10.2785 10.7163
249 2 7.63435 9.84551 9.83481
303 2 5.51251 12.5925 15.5289
244 2 6.34831 11.2951 13.5171
246 1 5.59192 11.1206 14.4614
275 2 4.60861 10.8584 14.085
304 2 4.44191 12.6419 14.0771
255 1 8.54008 9.21783 9.80328
268 2 5.17004 10.3154 12.6484
267 2 4.83781 8.70252 11.7189
28 2 5.45744 13.0787 8.88113
113 2 4.12321 7.19289 15.1582
ITEM: TIMESTEP
100
ITEM: NUMBER OF ATOMS
310
ITEM: BOX BOUNDS xy xz yz pp pp pp
-8.9189227129867934e+00 1.5435014826195875e+01 -7.6265416956433167e+00
9.8835977962569821e-02 1.3572042873722017e+01 -1.2687661911472270e+00
2.3983829263538503e-01 1.7263561707364509e+01 9.2977885168451202e-01
ITEM: ATOMS id type x y z
74 2 -0.248909 1.46686 1.99372
152 4 -1.11188 5.74672 5.13542
183 3 -0.854981 4.28445 4.29133
27 2 1.86815 3.87959 5.45893
159 2 -1.06988 3.15313 1.65096
154 4 -0.143029 4.08371 2.84788
75 2 0.788952 2.08028 3.61327
76 1 0.483681 2.30285 2.46611
160 2 1.37932 2.49574 1.80137
184 3 0.724598 5.23647 2.08752
182 3 -1.7422 5.72867 6.70421
279 2 1.75175 3.89816 8.01625
227 2 0.459202 1.57632 7.41578
16 2 4.2709 0.2471 1.51838
25 2 2.93025 2.64542 6.30456
19 2 -2.17765 3.50247 7.59821
48 3 2.95782 1.32297 3.76317
42 1 2.92958 4.23385 5.16482
241 2 3.0547 5.83941 6.13009
26 2 3.01783 4.45594 3.99359
180 3 0.366295 6.52467 5.36957
3 4 3.71742 2.47485 4.71311
49 3 5.25717 2.39415 4.80905
51 3 5.23489 3.04041 2.05924
110 2 4.17974 4.45333 6.54445
215 4 7.07627 0.408559 1.60837
98 4 5.01185 2.69936 0.547562
179 3 -2.27222 6.53517 4.34901
223 2 5.4825 0.80777 6.51957
125 2 3.74958 1.56721 0.275815
78 4 -0.612401 0.791495 11.8258
134 3 4.99873 1.5134 10.9662
100 4 5.08151 3.03712 13.9865
145 2 -1.47669 6.97371 15.4908
108 2 5.12978 2.14774 15.5785
146 2 -1.66333 3.12386 16.8609
245 1 -2.21909 6.30226 11.9024
83 2 0.618477 4.07838 10.9016
132 3 2.77849 1.71392 9.42798
173 2 0.859078 5.71182 14.042
124 2 -0.433302 5.95384 15.3497
131 1 0.00996552 6.36115 14.3541
126 2 -0.86587 6.39998 13.4274
289 2 2.34471 3.40061 13.9212
94 4 2.18338 4.76594 10.4999
81 2 0.316317 3.12299 15.5187
79 4 1.19157 2.12897 14.3873
162 2 -3.38171 5.19209 10.8836
148 1 -1.49119 2.37828 15.9262
242 2 -1.13479 5.96968 11.7099
120 2 2.15416 6.42308 11.2683
90 3 0.262594 1.68001 13.1963
92 2 -0.610012 1.6005 16.087
290 1 3.19834 1.69575 14.2706
85 2 3.57167 1.66401 15.4107
87 1 1.13142 3.77178 9.07018
89 3 0.251049 1.36734 10.2829
95 4 4.16732 2.5681 10.0894
243 2 -3.12963 5.01339 12.6715
147 2 -1.53366 2.82491 14.9019
136 3 5.0208 3.33998 8.95721
133 3 3.42583 3.87358 10.8577
252 2 3.6589 2.74788 12.8989
280 2 -0.0195682 3.89597 8.94479
77 4 1.23273 1.89795 9.21516
151 4 -2.97223 6.86356 10.3476
141 3 3.88245 4.62669 16.325
129 1 3.03439 6.46891 9.59945
220 1 4.29297 1.85982 17.2416
97 4 6.3716 1.50209 11.7493
118 2 2.26356 6.15717 8.76746
196 2 -1.43421 7.18022 0.489433
233 3 -1.29918 12.9091 7.15613
2 4 -3.53758 7.17968 3.7746
231 1 -6.40229 12.7491 7.45541
168 2 1.38679 9.68811 7.67293
287 2 -6.0733 11.8978 2.41607
226 2 -6.89817 12.1206 6.64879
157 2 -6.49623 12.1573 8.40999
161 2 0.728698 7.6642 0.528699
41 1 -4.34438 11.0192 5.59786
208 4 -5.71492 10.8898 0.98161
200 3 -4.38436 10.026 1.16583
219 2 -3.8466 11.252 3.69235
80 2 -4.92741 10.5107 4.69807
225 2 -5.35948 12.9532 7.16943
156 2 2.00545 8.08375 7.46486
199 3 -2.9154 8.55762 2.8514
193 4 -3.17652 9.04496 1.35437
170 2 -3.51366 8.27124 6.25927
22 2 -3.89724 10.1148 6.21857
23 2 -5.1138 11.6401 6.31307
164 2 -3.40435 8.84445 8.05264
24 2 -3.55966 11.7886 5.30531
60 3 -4.59037 7.61188 4.91577
153 4 -1.78774 7.15307 7.63711
230 2 -0.913997 12.0049 4.36915
177 1 -2.78829 8.60835 7.12272
169 2 -1.91876 10.1031 6.56944
158 2 -0.924526 8.6734 7.1697
171 2 -1.2986 11.8653 8.55804
213 2 -1.22285 9.92392 0.634345
229 2 0.125102 9.02509 5.34348
228 2 -0.568642 8.45701 1.47415
222 4 -0.909227 11.6113 6.10432
174 2 -0.413549 7.61959 3.20738
172 2 1.10703 9.47457 2.827
178 1 0.141484 8.14413 2.35516
150 4 1.79241 7.05209 5.78922
155 4 1.36012 6.82417 1.92732
175 1 1.79591 8.89082 5.98191
185 3 2.85913 7.33457 2.21337
310 3 -0.0889608 11.3872 1.606
20 2 -6.04416 9.87426 8.35678
204 2 -6.26675 10.5143 4.3591
1 4 -4.5043 12.599 2.83471
203 2 -7.35876 12.1803 4.07995
195 2 -3.36634 7.70124 0.263929
259 2 0.74077 9.14173 14.4896
247 4 -5.36234 8.85261 10.9917
264 1 1.60911 9.04843 15.3071
198 1 -3.13728 9.89069 17.0591
144 2 0.528241 7.44178 14.6753
257 3 -4.16297 7.91286 10.5676
149 3 -4.16215 7.80256 15.0875
309 3 -7.17604 12.8425 16.47
88 1 -3.7249 11.4113 12.8309
300 2 -3.56534 12.1421 12.0124
114 2 -4.85406 11.3227 13.0894
283 2 -5.61226 10.5295 13.9536
250 2 -5.43145 10.3295 9.89575
166 2 -3.37636 10.185 12.4414
253 2 -5.2452 9.4504 12.605
142 4 -2.79703 8.12029 15.7167
276 2 -2.72223 12.1296 14.245
93 2 -4.17092 13.1579 13.7242
181 3 -1.89524 6.96962 9.16538
194 2 -3.53914 10.2716 15.9908
262 2 1.60717 7.98643 16.1
167 2 -2.36948 7.37713 12.4761
248 2 -7.13085 11.3678 11.3487
119 2 -2.19003 10.5532 9.63594
96 4 -1.59558 11.2611 13.1245
135 3 -0.706504 12.2247 12.0518
38 2 -0.926265 9.21852 9.47431
197 2 -1.92635 9.1224 14.6455
176 1 -1.23952 11.0836 9.464
143 2 -0.889316 11.589 10.5007
101 4 0.622153 10.1263 9.23471
122 2 0.0870566 9.59034 12.2374
86 2 -7.88456 12.0752 16.0335
112 2 -0.361854 8.16298 13.5008
121 2 -1.89731 9.14133 12.5807
130 1 -0.729553 9.26951 13.1027
123 2 -0.634037 10.3267 14.4704
284 1 -6.30451 9.6184 14.3131
297 2 1.31449 9.06867 11.0698
84 2 -5.75265 13.3766 15.4625
254 2 -7.51314 11.5809 13.247
210 2 -3.45015 13.2508 17.1647
4 4 6.27048 2.72394 3.32373
50 3 7.21069 1.28476 3.0015
57 3 7.23313 4.03972 3.87629
116 2 7.04112 3.83632 6.97694
117 2 5.95524 6.31413 8.27453
128 1 7.0279 5.2614 8.22942
9 4 7.2041 5.59764 4.17616
61 3 8.4853 6.07591 5.15926
99 4 5.46131 4.30738 7.80175
7 4 10.1493 0.660159 5.73658
45 1 5.59705 6.05499 5.08873
109 2 7.97324 5.68352 7.82919
33 2 6.00161 6.16644 6.17145
18 2 8.35573 1.0613 5.58772
274 2 9.36582 2.92363 2.59804
58 3 9.24351 5.18212 1.2444
72 2 13.1395 1.19143 2.22968
295 2 9.26567 1.94357 7.95844
34 2 4.58828 5.35652 5.06594
56 3 11.2841 6.05885 2.75361
73 2 10.5982 1.57804 1.67968
31 2 10.0974 3.57815 4.19532
46 1 12.7128 2.89712 6.89867
62 3 10.6904 5.0307 6.17399
12 4 9.86797 6.46759 5.88157
29 2 12.2899 3.3251 3.42303
44 1 10.3638 3.39662 3.12024
71 4 11.5641 1.7609 3.08152
8 4 10.6301 4.80842 1.96007
11 4 10.9431 3.58047 6.7608
53 3 11.045 0.874452 4.38796
59 3 9.84101 2.46946 6.56088
214 3 9.61216 1.49166 0.437831
30 2 11.8643 4.22447 0.895575
37 2 12.854 1.71384 7.29166
36 2 11.6282 3.64401 8.37847
35 2 12.9567 3.0008 5.81843
28 2 13.0418 0.597623 8.59603
271 3 13.2717 1.04619 11.805
104 2 4.00858 5.92968 9.47969
111 2 4.66045 6.34533 12.6174
278 2 11.4787 4.0221 16.5152
291 2 6.65269 1.60651 8.99328
293 1 7.56116 2.16147 10.4944
294 2 9.01566 1.37854 11.0884
107 2 7.55766 3.21694 10.7903
137 3 6.28736 2.4405 13.1325
139 3 5.11248 4.78731 14.136
190 2 6.44386 6.40237 12.4686
102 4 4.97478 5.56429 15.5369
187 4 8.02563 5.8818 12.9663
140 3 6.36444 5.80817 16.1596
221 4 8.44493 1.13533 9.28379
305 2 8.55524 2.84175 12.7938
307 2 7.74497 4.59459 14.2094
266 4 11.9057 0.936977 12.5971
189 2 8.25054 5.01295 11.3624
308 1 8.85376 3.98933 12.8138
299 2 8.74357 3.11462 14.5162
5 4 9.20676 1.98349 15.8514
105 2 4.31442 6.74559 11.0897
138 3 5.00533 6.88498 11.8641
10 4 7.35375 6.89663 16.9071
52 3 10.8333 1.88984 16.0867
91 4 12.3713 1.45593 16.5856
192 3 9.09047 6.9892 13.3234
113 2 4.16066 7.15276 15.2006
216 2 11.3598 5.45187 16.0634
103 2 9.85983 4.23435 11.3385
306 2 9.9462 4.41112 14.2961
240 4 10.8431 3.84246 12.8161
273 3 11.2686 2.35874 12.8025
55 3 11.7171 4.9286 16.7713
115 2 7.24107 4.75558 9.23704
218 2 6.03795 2.32383 17.104
106 2 8.42678 3.49063 17.2024
239 1 3.34705 10.1895 1.45623
66 3 5.37654 7.8964 1.16811
285 2 7.50017 12.4692 1.18863
232 1 0.895336 11.9297 5.0226
211 4 1.50494 10.1611 4.64844
65 3 7.34802 9.22465 2.45383
68 3 5.94372 9.81592 4.97774
63 3 6.96856 6.58694 2.85328
238 2 2.37257 9.89827 0.904808
54 3 2.97446 12.1068 6.76443
163 2 3.21464 9.76509 5.31362
67 3 9.3837 7.25684 7.25868
302 2 6.39979 11.568 8.32656
202 2 8.09985 11.0748 5.78793
43 1 5.7427 12.3438 7.83392
212 2 1.02195 12.1075 3.7713
32 2 5.39183 7.07998 4.56078
207 1 6.39734 12.4907 1.2852
237 2 3.07594 10.975 2.28549
209 2 8.36359 9.91219 1.51916
235 2 4.19354 9.66684 3.13883
286 2 5.98335 11.4267 1.07334
205 2 5.81226 11.6542 2.96299
234 4 4.0147 8.46602 1.88461
6 4 4.11445 11.3416 7.77922
15 4 5.61642 9.1398 6.41396
40 2 4.94075 7.5414 6.20913
69 3 7.04276 8.81078 7.1709
70 3 4.64093 9.88011 7.34645
201 4 6.74023 10.4033 3.75631
13 4 6.9247 7.62674 1.60017
14 4 8.32154 8.394 7.9248
236 2 4.09152 10.5199 0.679761
206 1 8.23096 11.0236 4.63175
64 3 7.86736 7.5194 0.293805
301 2 6.08347 12.8307 6.88472
217 2 0.777966 11.7101 1.14215
224 2 0.737677 11.1474 6.76044
165 2 2.67176 8.09708 4.56071
288 2 3.21901 7.56997 9.51521
186 4 9.57317 7.79847 14.7021
277 2 1.91128 12.2349 14.8492
17 2 0.322428 12.538 16.0048
127 1 1.00258 12.8939 15.1156
292 2 0.694628 11.9166 9.29663
191 3 8.68425 7.24015 15.9281
298 1 1.55816 10.2878 10.899
263 2 1.9243 10.2068 15.8025
260 2 4.59766 9.65893 15.5258
261 2 3.37629 9.01736 13.1416
269 2 5.95044 10.5307 15.4699
258 4 3.31716 8.70962 14.8715
272 3 3.22107 12.3781 11.9216
265 4 3.26971 11.0882 11.1003
47 1 4.70078 9.76991 11.8797
281 2 8.70362 9.79524 15.3868
296 2 1.05237 10.949 11.7446
256 1 7.51144 11.5265 12.191
21 2 7.81547 7.64979 9.60485
251 2 8.47669 8.05785 11.2092
282 2 8.36502 9.48256 13.5313
82 2 6.37877 10.8016 12.0142
270 3 3.51651 11.2388 9.57071
39 2 5.40112 10.1544 10.9434
249 2 7.69463 9.96485 9.95425
303 2 5.65461 12.699 15.5166
244 2 6.20282 11.288 13.7733
246 1 5.5101 11.1704 14.6961
275 2 4.42837 11.0718 14.4832
304 2 4.58212 12.8339 14.1837
255 1 8.52797 9.26713 9.74313
268 2 5.01193 10.3033 12.9773
267 2 4.72759 8.61841 11.9236
188 2 0.416368 13.101 14.1158
ITEM: TIMESTEP
200
ITEM: NUMBER OF ATOMS
310
ITEM: BOX BOUNDS xy xz yz pp pp pp
-8.9189227129867934e+00 1.5435014826195875e+01 -7.6265416956433167e+00
9.8835977962569821e-02 1.3563531012014653e+01 -1.2687661911472270e+00
2.3983829263538503e-01 1.7263561707364509e+01 9.2126698997714840e-01
ITEM: ATOMS id type x y z
74 2 -0.323133 1.41522 2.0063
152 4 -1.05288 5.83032 5.10939
183 3 -0.925394 4.20347 4.31304
27 2 1.87307 3.67447 5.67366
159 2 -1.20185 3.25939 1.72532
154 4 -0.187343 4.11751 2.87698
75 2 0.827959 2.14096 3.49748
76 1 0.378584 2.34727 2.35245
160 2 1.17732 2.52519 1.58464
184 3 0.770126 5.25797 2.42265
182 3 -1.68078 5.78613 6.75539
279 2 1.98714 4.25335 8.33533
227 2 0.538291 1.44011 7.29386
280 2 0.0384179 3.76914 8.67466
25 2 3.08942 2.44582 6.39606
19 2 -2.16327 3.80739 7.41574
48 3 3.14457 1.33253 3.71845
42 1 2.92697 4.03206 5.2311
241 2 3.00964 5.61514 6.14379
26 2 2.81266 4.39108 4.07396
180 3 0.456524 6.44658 5.27339
3 4 3.72897 2.41215 4.75613
49 3 5.28713 2.4476 4.82054
51 3 5.43298 3.24883 2.1674
110 2 4.20375 4.436 6.56036
215 4 7.02099 0.411467 1.58309
98 4 5.09646 2.85095 0.696958
118 2 2.60083 6.17909 8.71494
223 2 6.11102 1.15432 6.50754
125 2 3.73497 1.77603 0.49157
16 2 4.18019 0.20898 1.35151
78 4 -0.539958 0.892144 11.9115
134 3 4.95838 1.47266 10.9277
100 4 4.98976 3.07858 13.8476
145 2 -1.55651 6.90507 15.3795
108 2 4.96261 2.53143 15.6172
146 2 -1.76973 3.28127 16.4445
245 1 -2.30828 6.41187 12.0888
83 2 0.695532 4.05603 10.866
132 3 2.82795 1.92548 9.26619
173 2 0.755274 5.53331 14.0718
124 2 -0.498336 5.93873 15.2941
131 1 0.0352554 6.33336 14.3935
126 2 -0.780678 6.49392 13.5124
289 2 2.28912 3.38536 13.7835
94 4 2.30641 4.78217 10.4626
81 2 0.0628887 3.16975 15.4296
79 4 1.08054 2.17596 14.3993
162 2 -3.07224 5.03891 10.9777
148 1 -1.63334 2.2628 15.7472
242 2 -1.18303 6.30311 11.9431
120 2 2.34541 6.50696 11.1903
90 3 0.331034 1.61528 13.193
92 2 -0.758545 1.49673 16.0336
290 1 3.12528 1.81438 14.3221
85 2 3.3731 1.86811 15.3979
87 1 1.03548 3.66239 9.17024
89 3 0.262577 1.336 10.4262
95 4 4.07144 2.48155 10.0403
243 2 -3.16463 5.10245 13.0176
147 2 -1.69845 2.53859 14.6529
136 3 5.13381 3.24468 8.9926
133 3 3.45646 3.93434 11.0525
252 2 3.60344 2.73894 12.7591
220 1 4.23184 1.98988 17.2446
77 4 1.22729 1.85098 9.23594
151 4 -2.90387 6.75954 10.4613
141 3 3.98591 4.72642 16.514
129 1 3.13213 6.69766 9.59984
97 4 6.39679 1.45898 11.722
196 2 -1.57085 7.1776 0.43628
233 3 -1.45556 12.9306 7.24439
2 4 -3.46256 7.19968 3.73231
231 1 -6.43402 12.6317 7.39505
168 2 1.41141 9.73762 7.56081
287 2 -6.10405 12.1885 2.29263
226 2 -6.67065 12.1338 6.38431
157 2 -6.83963 12.0135 8.29117
161 2 0.548613 7.21042 0.39876
41 1 -4.17926 11.1196 5.60516
208 4 -5.79675 10.9077 1.04689
200 3 -4.51585 10.0477 1.1918
219 2 -3.65537 11.3139 3.65703
80 2 -4.80086 10.596 4.76755
225 2 -5.28176 12.81 7.52114
156 2 1.73675 7.8877 7.51299
199 3 -2.92409 8.58791 2.76873
193 4 -3.30953 8.9869 1.30393
170 2 -3.48567 8.18884 6.31609
22 2 -3.73223 10.2113 6.22303
23 2 -4.9405 11.7099 6.32583
164 2 -3.28139 8.91314 8.16482
24 2 -3.3792 11.881 5.28892
60 3 -4.68975 7.4928 4.85733
153 4 -1.84249 7.09708 7.65477
230 2 -0.898306 11.7623 4.41911
177 1 -2.75221 8.6061 7.10116
169 2 -1.7464 10.0604 6.49732
158 2 -0.913655 8.55325 7.06846
171 2 -1.24524 11.7549 8.65413
213 2 -1.40426 9.91039 0.53646
229 2 0.0890696 9.00109 5.41496
228 2 -0.663148 8.41611 1.30784
222 4 -0.829069 11.6486 6.21918
174 2 -0.431337 7.49077 3.07283
172 2 1.23232 9.13507 2.67722
178 1 0.144352 8.02008 2.09295
150 4 1.81654 7.04005 5.8492
155 4 1.34787 6.69386 1.85317
175 1 1.77633 8.8872 5.99924
185 3 2.8005 7.30143 1.98146
310 3 -0.219271 11.4304 1.46961
20 2 -5.96219 9.94129 8.33263
204 2 -6.09751 10.6994 4.25678
1 4 -4.40899 12.5594 2.80661
203 2 -7.4883 12.2826 4.23672
211 4 1.40879 9.89627 4.51449
179 3 -2.03545 6.74721 4.22211
259 2 0.706149 9.19567 14.6084
247 4 -5.48018 8.90092 10.971
264 1 1.59619 8.9771 15.4874
198 1 -3.27993 9.78334 16.8921
144 2 0.583898 7.35421 14.6908
257 3 -4.35685 7.83561 10.5048
149 3 -4.17524 7.72363 14.976
309 3 -7.32114 12.7895 16.4946
88 1 -3.81916 11.3941 13.0491
300 2 -3.69745 12.2919 12.377
114 2 -4.91281 11.2639 13.4179
283 2 -5.39861 10.3863 14.4111
250 2 -5.47477 10.4411 9.99171
166 2 -3.54698 10.3657 12.4567
253 2 -5.2148 9.34072 12.646
142 4 -2.83529 8.07444 15.6141
276 2 -2.9924 11.6013 14.5415
93 2 -4.20958 13.308 13.8672
181 3 -1.85694 6.98975 9.24733
194 2 -3.71527 10.1876 15.826
262 2 1.50579 7.88251 16.138
167 2 -2.52839 7.51433 12.5344
210 2 -3.63947 13.5265 16.9311
119 2 -1.96254 10.2232 9.53933
96 4 -1.63935 11.2774 13.2316
135 3 -0.943758 12.4285 12.0993
38 2 -0.717323 9.13572 9.22208
197 2 -1.71212 9.12687 14.7391
176 1 -1.1382 10.9958 9.51644
143 2 -1.01946 11.5222 10.5172
101 4 0.745742 10.1195 9.25546
122 2 0.256645 9.64816 12.3399
86 2 -7.76178 12.0081 16.006
112 2 -0.436806 8.2977 13.4781
121 2 -1.97603 9.35796 12.437
130 1 -0.621077 9.35335 13.1335
123 2 -0.446772 10.658 14.4363
284 1 -6.23465 9.58843 14.3423
297 2 1.43455 9.04359 11.1198
195 2 -4.85129 8.637 17.2421
84 2 -5.81407 13.4511 15.4049
4 4 6.36012 2.77758 3.42765
50 3 7.03729 1.33889 2.87847
57 3 7.36696 4.10227 3.91176
116 2 7.05366 3.83833 6.81751
117 2 5.88135 6.21743 8.2669
128 1 7.15267 5.16764 8.02688
9 4 7.14988 5.68356 3.94324
61 3 8.46348 6.1513 4.81357
99 4 5.51093 4.29036 7.85882
7 4 10.1176 0.431018 5.63653
45 1 5.43682 6.07089 4.92354
109 2 7.92974 5.88299 7.5489
33 2 5.8554 6.23433 5.93801
18 2 8.34051 0.986251 5.55107
274 2 9.47955 3.55605 3.36469
58 3 9.30071 5.03062 1.20125
72 2 13.1216 1.04541 2.51476
295 2 9.40081 1.67214 7.82629
34 2 4.46164 5.28767 4.96323
56 3 11.3158 6.11323 2.77304
73 2 10.7042 1.71946 1.52856
31 2 11.1295 3.98303 4.14942
46 1 12.6155 3.11233 6.8327
62 3 10.4255 5.08192 6.32816
12 4 9.78113 6.51308 5.68766
29 2 12.532 3.25927 3.4137
44 1 10.6003 3.51755 3.24922
71 4 11.5942 1.80891 3.08059
8 4 10.7461 4.9071 1.93475
11 4 10.7946 3.5896 6.70113
53 3 11.0617 0.825432 4.33356
59 3 9.8235 2.26555 6.4658
214 3 9.6166 1.46166 0.423806
30 2 12.0186 4.50926 0.845499
37 2 12.8889 1.91026 7.04049
36 2 11.5125 3.52436 8.34714
35 2 12.7224 3.42714 5.67571
28 2 13.4915 0.761173 8.51489
63 3 6.9513 6.45687 2.56192
301 2 13.4456 0.488912 6.57395
271 3 13.2983 1.02874 11.8488
104 2 4.21983 6.28338 9.636
111 2 4.68628 5.89183 12.605
278 2 11.1933 4.21283 16.3114
291 2 6.90244 1.78594 9.09323
293 1 7.6973 2.20165 10.5997
294 2 9.30985 1.6744 11.1008
107 2 7.68703 3.30912 10.7914
137 3 6.25752 2.30124 13.1844
139 3 4.97908 4.63146 14.006
190 2 6.44653 6.45331 12.3611
102 4 4.90542 5.54364 15.5012
187 4 7.95241 5.87062 12.8714
140 3 6.31086 5.80855 16.0535
221 4 8.64626 1.19574 9.38735
305 2 8.73857 2.94462 12.654
307 2 7.63257 4.59849 14.1359
266 4 11.931 0.907798 12.6141
189 2 8.32444 5.01173 11.3023
308 1 8.88967 4.02981 12.8572
299 2 8.85267 3.00728 14.4611
5 4 9.1685 1.87309 15.8339
105 2 4.313 6.72319 11.1926
138 3 4.93875 6.67472 12.0616
10 4 7.32232 6.74467 16.9444
52 3 10.8506 1.60942 16.3053
91 4 12.3848 1.46516 16.8098
192 3 9.01613 6.88218 13.3879
113 2 4.01063 7.03946 15.1247
218 2 6.01683 2.30694 17.0695
103 2 10.016 4.58413 11.4036
306 2 9.92403 4.29993 14.4241
240 4 10.8508 3.96677 12.877
273 3 11.3717 2.44366 12.781
55 3 11.6093 5.03255 16.6347
115 2 7.50984 4.72429 9.04841
106 2 8.24631 3.44365 17.0499
216 2 11.1622 5.57376 15.9574
239 1 3.45318 10.124 1.58982
66 3 5.35662 8.16897 1.03722
285 2 7.54689 12.3222 1.38688
232 1 0.904305 11.8357 5.05181
217 2 0.785166 11.666 1.43057
65 3 7.41732 9.13241 2.59813
68 3 5.89159 9.84759 4.98234
224 2 0.858582 11.2512 6.81356
238 2 2.3633 9.77204 1.29077
54 3 3.09123 12.2658 7.00309
163 2 3.11576 9.70407 4.95659
67 3 9.35906 7.30953 7.10401
302 2 6.49554 11.6499 7.58391
202 2 8.07317 10.8782 5.73981
43 1 5.75331 12.5847 7.60297
212 2 0.838967 11.8498 3.7494
32 2 5.14456 7.01328 4.33009
207 1 6.3737 12.4065 1.42464
237 2 3.49346 10.9287 2.33601
209 2 8.3561 10.0134 1.66906
235 2 4.27248 9.52686 3.2604
286 2 5.80266 11.3688 1.24701
205 2 5.80437 11.6789 3.07967
234 4 4.0644 8.35574 1.97661
6 4 4.22243 11.4652 7.91926
15 4 5.63312 9.16876 6.32079
40 2 4.85581 7.70836 5.906
69 3 7.00901 8.84343 7.05628
70 3 4.58524 9.96501 7.1826
201 4 6.81938 10.3728 3.85479
13 4 6.89642 7.6349 1.61439
14 4 8.4179 8.48596 7.89926
236 2 4.14134 10.3542 0.729103
206 1 8.28582 11.147 4.66759
165 2 3.0083 8.03122 4.88362
64 3 7.72303 7.23541 0.348711
288 2 3.17035 7.82539 9.37924
186 4 9.55092 7.7658 14.7395
277 2 1.79838 11.8778 15.5683
17 2 0.169674 12.5903 16.4288
127 1 0.939285 12.6921 15.5059
292 2 0.89045 11.9739 9.3206
191 3 8.67016 7.33684 16.0494
298 1 1.65266 10.1758 10.8789
263 2 2.06466 9.95435 16.1379
260 2 4.75509 9.45824 15.1589
261 2 3.29001 9.0872 13.1219
269 2 5.94588 10.133 15.2566
258 4 3.22247 8.59701 14.8218
272 3 3.16512 12.3853 11.8997
265 4 3.34745 11.0796 11.0227
47 1 4.69845 9.75247 11.9473
281 2 8.48447 9.7182 15.271
296 2 1.16603 10.8971 11.6882
256 1 7.41375 11.5554 12.1182
21 2 8.08551 7.58503 9.51829
251 2 8.3875 8.06979 11.1635
282 2 8.56293 9.48372 13.3676
82 2 6.3436 10.8589 12.0966
270 3 3.83024 11.3035 9.51896
39 2 5.43111 10.0078 11.1447
249 2 7.53929 9.92708 9.74261
303 2 5.60439 12.439 15.8413
244 2 6.30105 11.4055 13.8326
246 1 5.54799 11.168 14.7416
275 2 4.50412 11.0567 14.2997
304 2 4.56992 12.8116 14.1787
255 1 8.50999 9.31927 9.71821
268 2 4.97215 10.2976 13.0415
267 2 4.64057 8.60654 12.075
188 2 0.429295 12.9777 14.455
248 2 8.05185 11.3574 11.1893
254 2 7.98947 11.4063 13.0715
ITEM: TIMESTEP
300
ITEM: NUMBER OF ATOMS
310
ITEM: BOX BOUNDS xy xz yz pp pp pp
-8.9189227129867934e+00 1.5435014826195875e+01 -7.6265416956433167e+00
9.8835977962569821e-02 1.3555019150307288e+01 -1.2687661911472270e+00
2.3983829263538503e-01 1.7263561707364509e+01 9.1275512826978300e-01
ITEM: ATOMS id type x y z
74 2 -0.410031 1.38706 1.91366
152 4 -1.10396 5.85981 5.20115
183 3 -0.845987 4.30495 4.29687
27 2 1.88229 3.83223 5.31766
159 2 -1.14516 3.35078 1.65581
154 4 -0.084352 4.03593 2.91171
75 2 0.87334 2.0543 3.41724
76 1 0.380215 2.32673 2.31372
160 2 1.24336 2.4737 1.56124
184 3 0.808281 5.14937 2.26203
182 3 -1.74131 5.95545 6.70077
279 2 1.73685 4.3499 8.22112
227 2 0.288305 1.47873 7.47853
125 2 3.70182 1.9154 0.535468
25 2 2.98709 2.55519 6.35704
19 2 -2.65786 3.98177 7.75938
48 3 3.11468 1.30627 3.84882
42 1 2.97174 4.09633 5.20857
241 2 3.17119 5.6021 6.13589
26 2 3.29101 4.39795 4.0456
180 3 0.406397 6.42117 5.50097
3 4 3.8451 2.39228 4.84989
49 3 5.45924 2.50044 4.98733
51 3 5.39656 3.29517 2.23362
110 2 4.22554 4.28487 6.56579
215 4 7.07237 0.485488 1.557
98 4 5.1203 2.99911 0.72255
16 2 4.21705 0.377871 1.54531
223 2 5.62752 0.669004 6.59086
220 1 5.44481 1.27019 0.346036
280 2 -0.134542 3.73618 8.62089
225 2 2.35159 0.567537 7.33917