ITEM: TIMESTEP
0
ITEM: NUMBER OF ATOMS
310
ITEM: BOX BOUNDS xy xz yz pp pp pp
-8.9189227129867934e+00 1.5435014826195875e+01 -7.6265416956433167e+00
9.8835977962569821e-02 1.3580554735429383e+01 -1.2687661911472270e+00
2.3983829263538503e-01 1.7263561707364509e+01 9.3829071339187675e-01
ITEM: ATOMS id type x y z
74 2 -0.44457 1.42541 2.04574
152 4 -1.10253 5.70848 5.10044
183 3 -0.683388 4.25022 4.31979
27 2 1.93143 3.90879 5.11773
159 2 -1.25152 3.18142 1.8202
154 4 -0.155046 4.09475 2.82855
75 2 0.638392 2.02896 3.61132
76 1 0.287953 2.24065 2.52801
160 2 1.17553 2.51099 1.80482
184 3 0.765849 5.24267 2.09956
182 3 -1.67203 5.7511 6.73007
279 2 1.51767 4.03219 8.16046
227 2 0.584652 1.83347 7.21701
16 2 4.27578 0.24179 1.55681
25 2 2.88757 2.77979 6.32528
125 2 3.74847 1.51914 0.262683
48 3 2.86318 1.35491 3.75938
42 1 2.97398 4.19476 5.01412
241 2 3.14147 5.72846 5.85176
26 2 3.27778 4.51611 3.84964
180 3 0.381967 6.63136 5.35202
3 4 3.676 2.40364 4.77895
49 3 5.25795 2.42877 4.82402
51 3 5.21435 3.10599 2.10346
110 2 4.20285 4.22489 6.4259
215 4 7.07557 0.381652 1.52293
98 4 5.05474 2.67718 0.587186
179 3 -2.12653 6.51436 4.35277
223 2 5.84767 1.01058 6.51028
19 2 -2.12719 3.67516 7.82448
78 4 -0.501207 0.945596 11.8155
134 3 4.88387 1.58796 11.0817
100 4 5.13461 3.09872 14.0216
145 2 -1.47623 6.94472 15.5167
108 2 5.13885 2.27015 15.6707
146 2 -1.64953 3.19548 16.9711
245 1 -2.05703 6.25028 11.9363
83 2 0.456889 4.26891 10.8009
132 3 2.75024 1.57724 9.27707
173 2 0.863128 5.53691 14.1751
124 2 -0.421583 5.95998 15.371
131 1 0.0305102 6.27215 14.4111
126 2 -0.738456 6.22829 13.4973
289 2 2.47458 3.41069 13.8218
94 4 2.09806 4.74685 10.428
81 2 0.204566 3.2037 15.2093
79 4 1.26554 2.16556 14.2475
162 2 -3.29005 5.27233 10.8694
148 1 -1.44548 2.53518 15.9891
242 2 -1.01186 5.87398 11.6832
120 2 2.05981 6.39125 11.2677
90 3 0.348665 1.49037 13.0684
92 2 -0.61559 1.70475 16.0658
290 1 3.25267 1.69224 14.2094
85 2 3.60926 1.7817 15.3973
87 1 0.899811 3.70305 9.01691
89 3 0.242589 1.2195 10.3914
95 4 4.05156 2.50022 10.112
243 2 -3.02388 4.97944 12.6772
147 2 -1.56638 3.10317 15.0138
136 3 4.85635 3.21368 8.93997
133 3 3.16049 3.82308 11.0956
252 2 3.75042 2.77051 12.8435
280 2 -0.164539 3.96021 8.91883
77 4 1.20751 1.74759 9.13337
118 2 2.30338 6.28341 8.76139
141 3 3.96975 4.76308 16.5552
129 1 2.9979 6.66846 9.70905
220 1 4.25573 1.84488 17.2509
216 2 -3.65645 5.63574 16.4812
84 2 1.90261 0.960447 15.3921
196 2 -1.33824 7.11011 0.54248
233 3 -1.55274 12.8893 7.21143
2 4 -3.5228 7.08603 3.80112
231 1 -6.54152 12.7937 7.4443
168 2 1.33536 9.64133 7.5841
287 2 -6.13372 12.1684 2.16919
226 2 -6.86154 12.2821 6.47311
157 2 -7.06683 12.2351 8.32448
161 2 0.772415 7.697 0.588599
41 1 -4.37007 11.0779 5.73073
208 4 -5.68778 10.9869 0.992821
200 3 -4.39968 10.1373 1.26837
219 2 -3.84605 11.3804 3.82081
80 2 -5.02074 10.7305 4.83833
225 2 -5.41238 12.6735 7.54987
156 2 1.81065 7.94708 7.44813
199 3 -3.11246 8.44541 2.92476
193 4 -3.26937 9.0156 1.48423
170 2 -3.35203 8.0906 6.10694
22 2 -3.74405 10.1208 6.17947
23 2 -5.13497 11.4815 6.56435
164 2 -3.20471 8.96046 7.84459
24 2 -3.61493 11.956 5.44584
60 3 -4.63116 7.63247 5.14671
153 4 -1.79801 7.12786 7.61639
230 2 -0.832608 12.0476 4.36382
177 1 -2.61049 8.57902 6.9323
169 2 -1.57494 10.0154 6.41652
158 2 -0.766212 8.42657 6.80101
171 2 -1.20309 11.7516 8.62207
213 2 -1.2661 9.66736 0.579123
229 2 0.144347 9.027 5.2446
228 2 -0.535316 8.49202 1.51459
222 4 -0.807774 11.6199 6.15223
174 2 -0.25878 7.91681 3.32981
172 2 1.35321 9.45212 2.71808
178 1 0.233991 8.25802 2.37491
150 4 1.80419 7.10396 5.83363
155 4 1.3569 6.8897 2.02911
175 1 1.62335 9.00418 5.93328
185 3 2.82921 7.3005 2.36665
310 3 0.120907 11.4449 1.62927
20 2 -6.023 9.74703 8.26094
204 2 -6.20651 10.4226 4.29104
1 4 -4.53639 12.5937 2.84944
203 2 -7.14901 12.0866 3.85393
195 2 -3.4814 7.74779 0.287667
259 2 0.675622 8.98036 14.2826
247 4 -5.36264 8.98305 11.1178
210 2 -3.52212 13.2496 17.1377
198 1 -3.18574 9.80539 17.0996
144 2 0.523366 7.31352 14.5228
257 3 -4.20351 7.93265 10.8296
149 3 -4.12702 7.75954 15.1609
309 3 -7.26846 12.8679 16.3426
88 1 -3.51296 11.4608 13.0036
300 2 -4.08086 12.343 12.5566
114 2 -4.04828 11.0624 13.9139
283 2 -5.28911 10.3737 14.34
250 2 -5.40697 10.2988 9.84059
166 2 -3.33142 10.4717 12.0691
253 2 -5.24233 9.75971 12.6256
142 4 -2.74665 8.1235 15.7623
276 2 -2.44484 11.9575 14.5631
254 2 -7.33334 11.5066 12.9852
181 3 -1.83181 7.20939 9.22714
194 2 -3.59329 10.3567 16.2227
262 2 1.62723 8.11563 15.9407
167 2 -2.18585 7.2214 12.5727
248 2 -7.20466 11.4902 11.0101
119 2 -2.06206 10.4365 9.49581
96 4 -1.56427 11.2774 13.1566
135 3 -0.78572 12.4151 12.2324
38 2 -0.973182 9.1656 9.3857
197 2 -1.84247 9.11729 14.6427
176 1 -1.11055 11.0605 9.51874
143 2 -0.969508 11.6508 10.5579
101 4 0.64163 9.93877 9.30054
122 2 -2.39423e-05 9.30858 12.1897
151 4 -2.94483 6.98493 10.5027
112 2 -0.622199 7.9682 13.4348
121 2 -1.84989 9.08636 12.4361
130 1 -0.824552 9.05618 12.9593
123 2 -0.434925 10.2318 14.2534
284 1 -6.20399 9.70545 14.3715
297 2 1.66799 8.72679 10.8742
93 2 -4.08209 13.2006 13.8567
86 2 -7.28913 12.0555 15.8022
264 1 1.63077 9.02246 14.9865
4 4 6.22388 2.75195 3.37602
50 3 7.09768 1.36757 2.81502
57 3 7.22808 4.12535 3.63153
116 2 7.15051 3.78305 7.06474
117 2 5.64447 6.03017 8.14679
128 1 7.00362 5.12256 8.142
9 4 7.33739 5.66794 4.04484
61 3 8.6279 6.04283 5.05103
99 4 5.44631 4.09755 7.75156
7 4 10.1862 0.578228 5.76177
45 1 5.67029 6.11149 5.02569
109 2 7.85349 5.83837 7.89361
33 2 6.19326 6.34183 6.0098
18 2 8.33208 1.02633 5.8803
274 2 9.16768 2.8956 2.29769
58 3 9.43822 5.2127 0.950825
72 2 12.9178 1.07541 2.41886
295 2 9.27444 2.05308 7.93952
34 2 4.74651 5.26919 5.00935
56 3 11.232 5.98056 2.81718
73 2 10.2783 1.31728 1.62388
31 2 9.66471 3.94744 3.79063
46 1 12.8188 2.92459 7.10511
62 3 10.7071 5.01173 6.27552
12 4 9.91423 6.40169 5.90553
29 2 11.9212 3.32497 3.57372
44 1 10.0955 3.2882 2.88606
71 4 11.3166 1.71297 3.09153
8 4 10.5826 4.90288 1.94183
11 4 11.0564 3.56482 6.87793
53 3 10.8521 0.925486 4.38879
59 3 10.0323 2.4088 6.65832
214 3 9.45957 1.47897 0.396424
30 2 11.8638 4.24289 0.853793
37 2 12.9751 1.76904 7.43417
36 2 11.5973 3.59747 8.50538
35 2 13.085 3.17964 5.92687
106 2 9.60004 2.5814 0.300948
271 3 13.2317 0.881104 11.8473
104 2 4.04482 6.18078 9.64755
111 2 4.65394 6.27314 12.7129
278 2 11.4848 4.03609 16.4097
291 2 6.54867 1.63053 9.0457
293 1 7.61075 2.17017 10.4967
294 2 9.0302 1.37996 10.9865
107 2 7.706 3.23088 10.6828
137 3 6.43913 2.47754 13.2076
139 3 5.11212 4.65127 14.1901
190 2 6.37687 6.50349 12.587
102 4 4.90446 5.61125 15.5901
187 4 7.99697 5.87578 12.8967
140 3 6.23861 6.13398 16.2378
221 4 8.33549 1.19509 9.20204
305 2 8.64922 2.87302 12.5423
307 2 7.80379 4.57038 14.1646
266 4 11.8118 0.864117 12.5212
189 2 8.41568 5.09261 11.3197
308 1 8.86943 3.95955 12.7637
299 2 8.78183 3.16951 14.4502
5 4 9.27981 2.11775 15.9015
105 2 4.18466 6.80931 11.2728
138 3 4.85703 6.96067 12.0465
10 4 7.29859 7.0889 16.8904
52 3 11.032 1.95841 16.2485
91 4 12.409 1.39656 16.6272
192 3 9.13215 6.91851 13.3153
97 4 6.37371 1.59404 11.7484
188 2 7.9412 1.0776 14.1951
103 2 10.088 4.30253 11.2821
306 2 9.92456 4.41288 14.1869
240 4 10.9075 3.86422 12.7597
273 3 11.3356 2.34764 12.7096
55 3 11.7568 4.78009 16.9652
115 2 7.11324 4.75494 9.21915
218 2 6.12895 2.19622 17.0252
239 1 3.53252 9.90208 1.14336
66 3 5.40458 7.77499 1.16395
285 2 7.32955 12.4439 1.47944
232 1 0.881425 11.984 5.11132
224 2 0.765479 11.1608 6.82349
65 3 7.166 9.55498 2.48559
68 3 5.83817 9.69131 4.89388
63 3 7.1842 6.74928 2.83574
238 2 2.53994 9.27539 0.551955
54 3 3.19217 12.2831 6.89227
163 2 3.07918 9.82636 5.26389
67 3 9.41374 7.08646 7.38493
302 2 6.36919 11.5153 8.32577
202 2 8.13276 11.3217 5.59024
43 1 5.71085 12.3669 8.04888
212 2 0.924358 12.2132 3.71452
32 2 5.46812 7.0786 4.43999
207 1 6.20741 12.4953 1.32796
237 2 3.16824 10.8156 1.61602
209 2 8.38833 10.1573 1.62608
235 2 4.11255 9.68616 2.96238
286 2 5.7043 11.4635 1.26452
205 2 5.82255 11.7873 3.10368
234 4 3.99629 8.2231 1.91312
6 4 4.10175 11.2981 7.81001
15 4 5.60034 9.0584 6.29558
40 2 4.83452 7.53151 6.08552
69 3 6.99125 8.69906 7.13799
70 3 4.5727 9.88733 7.10858
201 4 6.70305 10.4243 3.75381
13 4 6.92316 7.79504 1.7385
14 4 8.42147 8.24648 7.96791
165 2 2.66579 8.13656 4.64803
206 1 8.27484 11.1208 4.47586
64 3 7.9425 7.4756 0.539648
301 2 6.12299 12.7824 7.09444
217 2 0.915411 11.7703 1.16928
236 2 4.37014 10.1978 0.42804
211 4 1.4349 10.2243 4.47933
288 2 3.10129 7.77566 9.67797
186 4 9.61223 7.8517 14.6723
277 2 1.93728 12.5467 14.5332
17 2 0.560275 12.5911 15.7762
127 1 1.06624 13.1853 14.9598
292 2 0.693975 11.915 9.23795
191 3 8.45277 7.53563 15.7918
298 1 1.62177 10.0313 10.8397
263 2 1.71337 10.1418 15.5318
260 2 4.35338 10.0962 15.5895
261 2 3.59626 9.29107 13.112
269 2 6.05585 10.3092 15.1148
258 4 3.41894 8.78543 14.7816
272 3 3.06999 12.3833 11.7086
265 4 3.2541 11.0327 10.9206
47 1 4.79125 9.90074 11.6473
281 2 8.58134 9.80899 15.3457
296 2 1.07771 10.6479 11.6749
256 1 7.56114 11.6103 11.9564
21 2 7.90236 7.55719 9.64765
251 2 8.40244 8.26737 11.3816
282 2 8.65249 9.53694 13.3869
82 2 6.53478 10.9654 11.8607
270 3 3.52095 11.2095 9.38223
39 2 5.47517 10.2785 10.7163
249 2 7.63435 9.84551 9.83481
303 2 5.51251 12.5925 15.5289
244 2 6.34831 11.2951 13.5171
246 1 5.59192 11.1206 14.4614
275 2 4.60861 10.8584 14.085
304 2 4.44191 12.6419 14.0771
255 1 8.54008 9.21783 9.80328
268 2 5.17004 10.3154 12.6484
267 2 4.83781 8.70252 11.7189
28 2 5.45744 13.0787 8.88113
113 2 4.12321 7.19289 15.1582
ITEM: TIMESTEP
100
ITEM: NUMBER OF ATOMS
310
ITEM: BOX BOUNDS xy xz yz pp pp pp
-8.9189227129867934e+00 1.5435014826195875e+01 -7.6265416956433167e+00
9.8835977962569821e-02 1.3580554735429383e+01 -1.2687661911472270e+00
2.3983829263538503e-01 1.7272073569071875e+01 9.3829071339187675e-01
ITEM: ATOMS id type x y z
74 2 -0.248909 1.46774 1.9946
152 4 -1.11188 5.74917 5.13787
183 3 -0.854981 4.28647 4.29336
27 2 1.86815 3.8822 5.46154
159 2 -1.06988 3.15383 1.65167
154 4 -0.143029 4.08502 2.84918
75 2 0.788952 2.08196 3.61496
76 1 0.483681 2.30396 2.46722
160 2 1.37932 2.49652 1.80215
184 3 0.724598 5.23739 2.08844
182 3 -1.7422 5.7319 6.70744
279 2 1.75175 3.90205 8.02014
227 2 0.459202 1.57991 7.41937
16 2 4.2709 0.247739 1.51902
25 2 2.93025 2.64846 6.30759
19 2 -2.17765 3.50615 7.60189
48 3 2.95782 1.32474 3.76493
42 1 2.92958 4.23631 5.16729
241 2 3.0547 5.84235 6.13303
26 2 3.01783 4.45782 3.99546
180 3 0.366295 6.52723 5.37214
3 4 3.71742 2.47709 4.71535
49 3 5.25717 2.39643 4.81133
51 3 5.23489 3.04132 2.06015
110 2 4.17974 4.45648 6.54761
215 4 7.07627 0.409243 1.60906
98 4 5.01185 2.69952 0.547716
179 3 -2.27222 6.53723 4.35106
223 2 5.4825 0.81091 6.52271
125 2 3.74958 1.56723 0.275833
78 4 -0.612401 0.797288 11.8316
134 3 4.99873 1.51876 10.9716
100 4 5.08151 3.044 13.9934
145 2 -1.47669 6.98133 15.4984
108 2 5.12978 2.15541 15.5862
146 2 -1.66333 3.13217 16.8692
245 1 -2.21909 6.30809 11.9082
83 2 0.618477 4.08371 10.9069
132 3 2.77849 1.71851 9.43258
173 2 0.859078 5.71872 14.0489
124 2 -0.433302 5.96139 15.3572
131 1 0.00996552 6.36821 14.3612
126 2 -0.86587 6.40657 13.434
289 2 2.34471 3.40745 13.9281
94 4 2.18338 4.77107 10.505
81 2 0.316317 3.13063 15.5263
79 4 1.19157 2.13605 14.3943
162 2 -3.38171 5.19741 10.8889
148 1 -1.49119 2.38612 15.9341
242 2 -1.13479 5.97542 11.7157
120 2 2.15416 6.42859 11.2738
90 3 0.262594 1.68649 13.2028
92 2 -0.610012 1.60842 16.0949
290 1 3.19834 1.70276 14.2776
85 2 3.57167 1.67159 15.4183
87 1 1.13142 3.77619 9.07459
89 3 0.251049 1.37236 10.2879
95 4 4.16732 2.57302 10.0943
243 2 -3.12963 5.0196 12.6777
147 2 -1.53366 2.83224 14.9092
136 3 5.0208 3.34434 8.96157
133 3 3.42583 3.87889 10.863
252 2 3.6589 2.75421 12.9052
280 2 -0.0195682 3.90033 8.94914
77 4 1.23273 1.90244 9.21965
151 4 -2.97223 6.86861 10.3527
141 3 3.88245 4.63473 16.3331
129 1 3.03439 6.47359 9.60413
220 1 4.29297 1.86832 17.2501
97 4 6.3716 1.50785 11.7551
118 2 2.26356 6.16144 8.77172
196 2 -1.43421 7.18034 0.489558
233 3 -1.29918 12.9126 7.15959
2 4 -3.53758 7.18145 3.77637
231 1 -6.40229 12.7527 7.45901
168 2 1.38679 9.69183 7.67665
287 2 -6.0733 11.8989 2.41716
226 2 -6.89817 12.1238 6.65199
157 2 -6.49623 12.1614 8.41408
161 2 0.728698 7.66435 0.528844
41 1 -4.34438 11.0219 5.60054
208 4 -5.71492 10.8901 0.981981
200 3 -4.38436 10.0264 1.1663
219 2 -3.8466 11.2537 3.69408
80 2 -4.92741 10.5129 4.7003
225 2 -5.35948 12.9567 7.1729
156 2 2.00545 8.08736 7.46847
199 3 -2.9154 8.55892 2.8527
193 4 -3.17652 9.04552 1.35492
170 2 -3.51366 8.27425 6.26228
22 2 -3.89724 10.1178 6.22156
23 2 -5.1138 11.6431 6.31611
164 2 -3.40435 8.84836 8.05654
24 2 -3.55966 11.7912 5.30784
60 3 -4.59037 7.61421 4.91811
153 4 -1.78774 7.15676 7.64081
230 2 -0.913997 12.0069 4.37122
177 1 -2.78829 8.61179 7.12616
169 2 -1.91876 10.1063 6.5726
158 2 -0.924526 8.67687 7.17317
171 2 -1.2986 11.8694 8.5622
213 2 -1.22285 9.92412 0.634542
229 2 0.125102 9.02764 5.34603
228 2 -0.568642 8.45762 1.47477
222 4 -0.909227 11.6143 6.10725
174 2 -0.413549 7.62108 3.20886
172 2 1.10703 9.47587 2.82829
178 1 0.141484 8.14519 2.35622
150 4 1.79241 7.05487 5.79199
155 4 1.36012 6.82502 1.92816
175 1 1.79591 8.89369 5.98478
185 3 2.85913 7.33555 2.21436
310 3 -0.0889608 11.3878 1.60668
20 2 -6.04416 9.87831 8.36084
204 2 -6.26675 10.5163 4.36116
1 4 -4.5043 12.6003 2.83601
203 2 -7.35876 12.1822 4.08187
195 2 -3.36634 7.70126 0.263941
259 2 0.74077 9.14886 14.4967
247 4 -5.36234 8.85799 10.9971
264 1 1.60911 9.05596 15.3146
198 1 -3.13728 9.8991 17.0675
144 2 0.528241 7.449 14.6825
257 3 -4.16297 7.91803 10.5728
149 3 -4.16215 7.80998 15.0949
309 3 -7.17604 12.8506 16.4781
88 1 -3.7249 11.4176 12.8372
300 2 -3.56534 12.148 12.0183
114 2 -4.85406 11.3291 13.0958
283 2 -5.61226 10.5363 13.9605
250 2 -5.43145 10.3343 9.90058
166 2 -3.37636 10.1911 12.4476
253 2 -5.2452 9.45658 12.6112
142 4 -2.79703 8.12803 15.7244
276 2 -2.72223 12.1366 14.252
93 2 -4.17092 13.1647 13.731
181 3 -1.89524 6.97408 9.16984
194 2 -3.53914 10.2795 15.9986
262 2 1.60717 7.99436 16.1079
167 2 -2.36948 7.38324 12.4822
248 2 -7.13085 11.3734 11.3543
119 2 -2.19003 10.5579 9.64063
96 4 -1.59558 11.2676 13.1309
135 3 -0.706504 12.2306 12.0577
38 2 -0.926265 9.22314 9.47893
197 2 -1.92635 9.1296 14.6527
176 1 -1.23952 11.0882 9.46861
143 2 -0.889316 11.5941 10.5059
101 4 0.622153 10.1308 9.23921
122 2 0.0870566 9.59634 12.2434
86 2 -7.88456 12.0831 16.0414
112 2 -0.361854 8.16961 13.5074
121 2 -1.89731 9.1475 12.5869
130 1 -0.729553 9.27594 13.1091
123 2 -0.634037 10.3338 14.4775
284 1 -6.30451 9.62544 14.3201
297 2 1.31449 9.07408 11.0752
84 2 -5.75265 13.3842 15.4702
254 2 -7.51314 11.5874 13.2535
210 2 -3.45015 13.2593 17.1732
4 4 6.27048 2.72548 3.32528
50 3 7.21069 1.28614 3.00288
57 3 7.23313 4.04153 3.87811
116 2 7.04112 3.83969 6.98031
117 2 5.95524 6.31814 8.27854
128 1 7.0279 5.2654 8.23341
9 4 7.2041 5.59961 4.17812
61 3 8.4853 6.07837 5.16172
99 4 5.46131 4.31116 7.80554
7 4 10.1493 0.662908 5.73933
45 1 5.59705 6.05741 5.09115
109 2 7.97324 5.68732 7.83298
33 2 6.00161 6.16941 6.17441
18 2 8.35573 1.06398 5.59039
274 2 9.36582 2.92481 2.59922
58 3 9.24351 5.18262 1.2449
72 2 13.1395 1.19242 2.23068
295 2 9.26567 1.94743 7.9623
34 2 4.58828 5.35893 5.06835
56 3 11.2841 6.06011 2.75487
73 2 10.5982 1.57876 1.6804
31 2 10.0974 3.58013 4.1973
46 1 12.7128 2.90044 6.902
62 3 10.6904 5.03366 6.17696
12 4 9.86797 6.47041 5.88439
29 2 12.2899 3.32669 3.42462
44 1 10.3638 3.39806 3.12168
71 4 11.5641 1.76232 3.08294
8 4 10.6301 4.80928 1.96093
11 4 10.9431 3.58373 6.76406
53 3 11.045 0.876526 4.39003
59 3 9.84101 2.47262 6.56404
214 3 9.61216 1.49176 0.43793
30 2 11.8643 4.2248 0.895902
37 2 12.854 1.71737 7.29518
36 2 11.6282 3.64808 8.38254
35 2 12.9567 3.00359 5.82122
28 2 13.0418 0.601801 8.60021
271 3 13.2717 1.05197 11.8108
104 2 4.00858 5.9343 9.48431
111 2 4.66045 6.35152 12.6236
278 2 11.4787 4.03023 16.5233
291 2 6.65269 1.61089 8.99766
293 1 7.56116 2.1666 10.4995
294 2 9.01566 1.38396 11.0938
107 2 7.55766 3.22221 10.7955
137 3 6.28736 2.44695 13.1389
139 3 5.11248 4.79426 14.1429
190 2 6.44386 6.40849 12.4747
102 4 4.97478 5.57194 15.5445
187 4 8.02563 5.88816 12.9726
140 3 6.36444 5.81613 16.1676
221 4 8.44493 1.13985 9.28831
305 2 8.55524 2.84803 12.8001
307 2 7.74497 4.60158 14.2164
266 4 11.9057 0.943156 12.6033
189 2 8.25054 5.01851 11.3679
308 1 8.85376 3.99562 12.8201
299 2 8.74357 3.12176 14.5233
5 4 9.20676 1.9913 15.8592
105 2 4.31442 6.75101 11.0952
138 3 5.00533 6.89079 11.8699
10 4 7.35375 6.90496 16.9155
52 3 10.8333 1.89776 16.0946
91 4 12.3713 1.4641 16.5938
192 3 9.09047 6.99574 13.3299
113 2 4.16066 7.16024 15.2081
216 2 11.3598 5.45978 16.0713
103 2 9.85983 4.2399 11.344
306 2 9.9462 4.41815 14.3031
240 4 10.8431 3.84875 12.8224
273 3 11.2686 2.36503 12.8087
55 3 11.7171 4.93687 16.7796
115 2 7.24107 4.76008 9.24154
218 2 6.03795 2.33226 17.1125
106 2 8.42678 3.49912 17.2109
239 1 3.34705 10.1902 1.45684
66 3 5.37654 7.89687 1.16858
285 2 7.50017 12.4697 1.1891
232 1 0.895336 11.9321 5.025
211 4 1.50494 10.1633 4.65065
65 3 7.34802 9.22575 2.45494
68 3 5.94372 9.81829 4.98011
63 3 6.96856 6.58825 2.85458
238 2 2.37257 9.8986 0.90514
54 3 2.97446 12.1101 6.76769
163 2 3.21464 9.76763 5.31616
67 3 9.3837 7.26035 7.26219
302 2 6.39979 11.572 8.33061
202 2 8.09985 11.0776 5.79071
43 1 5.7427 12.3476 7.83772
212 2 1.02195 12.1093 3.77307
32 2 5.39183 7.08214 4.56294
207 1 6.39734 12.4912 1.28573
237 2 3.07594 10.9761 2.28652
209 2 8.36359 9.91283 1.5198
235 2 4.19354 9.66829 3.14028
286 2 5.98335 11.4271 1.07375
205 2 5.81226 11.6556 2.96435
234 4 4.0147 8.46684 1.88543
6 4 4.11445 11.3453 7.78299
15 4 5.61642 9.14289 6.41705
40 2 4.94075 7.54438 6.21211
69 3 7.04276 8.81424 7.17436
70 3 4.64093 9.88366 7.35
201 4 6.74023 10.405 3.75807
13 4 6.9247 7.62742 1.60085
14 4 8.32154 8.39784 7.92864
236 2 4.09152 10.5201 0.679981
206 1 8.23096 11.0258 4.63395
64 3 7.86736 7.51943 0.293832
301 2 6.08347 12.834 6.88804
217 2 0.777966 11.7106 1.1426
224 2 0.737677 11.1507 6.7637
165 2 2.67176 8.09924 4.56287
288 2 3.21901 7.57461 9.51985
186 4 9.57317 7.8057 14.7094
277 2 1.91128 12.2422 14.8565
17 2 0.322428 12.5458 16.0127
127 1 1.00258 12.9013 15.123
292 2 0.694628 11.9212 9.30116
191 3 8.68425 7.24799 15.936
298 1 1.55816 10.2931 10.9043
263 2 1.9243 10.2146 15.8103
260 2 4.59766 9.66657 15.5334
261 2 3.37629 9.02381 13.148
269 2 5.95044 10.5383 15.4776
258 4 3.31716 8.71693 14.8788
272 3 3.22107 12.3839 11.9275
265 4 3.26971 11.0936 11.1058
47 1 4.70078 9.77573 11.8855
281 2 8.70362 9.80282 15.3943
296 2 1.05237 10.9548 11.7503
256 1 7.51144 11.5324 12.197
21 2 7.81547 7.65447 9.60953
251 2 8.47669 8.06333 11.2147
282 2 8.36502 9.48921 13.538
82 2 6.37877 10.8075 12.02
270 3 3.51651 11.2434 9.57538
39 2 5.40112 10.1597 10.9487
249 2 7.69463 9.96971 9.95911
303 2 5.65461 12.7066 15.5242
244 2 6.20282 11.2948 13.7801
246 1 5.5101 11.1776 14.7034
275 2 4.42837 11.0789 14.4903
304 2 4.58212 12.8409 14.1907
255 1 8.52797 9.27188 9.74788
268 2 5.01193 10.3097 12.9836
267 2 4.72759 8.62425 11.9294
188 2 0.416368 13.108 14.1227
ITEM: TIMESTEP
200
ITEM: NUMBER OF ATOMS
310
ITEM: BOX BOUNDS xy xz yz pp pp pp
-8.9189227129867934e+00 1.5435014826195875e+01 -7.6265416956433167e+00
9.8835977962569821e-02 1.3580554735429383e+01 -1.2687661911472270e+00
2.3983829263538503e-01 1.7280585430779240e+01 9.3829071339187675e-01
ITEM: ATOMS id type x y z
74 2 -0.32514 1.41703 2.00683
152 4 -1.0528 5.83536 5.11449
183 3 -0.925248 4.20838 4.31994
27 2 1.87475 3.67813 5.68003
159 2 -1.20565 3.26196 1.72727
154 4 -0.187176 4.1207 2.88047
75 2 0.824856 2.14479 3.5049
76 1 0.3752 2.35282 2.35585
160 2 1.17407 2.53519 1.5898
184 3 0.769865 5.26137 2.42607
182 3 -1.67966 5.79426 6.76157
279 2 1.92771 4.23374 8.36677
227 2 0.534703 1.46587 7.31658
280 2 0.03512 3.79618 8.70436
25 2 3.08986 2.45005 6.40116
19 2 -2.16784 3.81253 7.42105
48 3 3.14407 1.33672 3.72066
42 1 2.92833 4.03678 5.2363
241 2 3.00821 5.62142 6.14757
26 2 2.81472 4.39538 4.0789
180 3 0.455525 6.45201 5.27762
3 4 3.72982 2.41685 4.75944
49 3 5.2871 2.45011 4.82349
51 3 5.43374 3.25037 2.16772
110 2 4.20564 4.44192 6.56638
215 4 7.02098 0.413919 1.58427
98 4 5.09654 2.85128 0.696864
118 2 2.6062 6.18968 8.71398
223 2 6.11064 1.16426 6.51346
125 2 3.73515 1.77487 0.492511
16 2 4.17528 0.214024 1.35124
78 4 -0.539952 0.904344 11.9246
134 3 4.95995 1.48603 10.9394
100 4 4.9909 3.09115 13.8619
145 2 -1.5569 6.92117 15.3958
108 2 4.9626 2.54229 15.6323
146 2 -1.76865 3.29749 16.4593
245 1 -2.30745 6.42413 12.0991
83 2 0.709471 4.08446 10.8705
132 3 2.83131 1.93813 9.27913
173 2 0.752673 5.54776 14.0863
124 2 -0.500478 5.95416 15.3079
131 1 0.0329048 6.34847 14.4072
126 2 -0.783984 6.50715 13.5234
289 2 2.28891 3.3983 13.7968
94 4 2.30636 4.79491 10.4756
81 2 0.0613253 3.18313 15.4432
79 4 1.08084 2.18909 14.4127
162 2 -3.07202 5.04967 10.9897
148 1 -1.63307 2.27699 15.7621
242 2 -1.17814 6.31486 11.9536
120 2 2.35211 6.51326 11.2151
90 3 0.331302 1.62749 13.2056
92 2 -0.759472 1.51133 16.0496
290 1 3.12615 1.82962 14.3383
85 2 3.37109 1.8843 15.4133
87 1 1.03916 3.69558 9.17151
89 3 0.261419 1.34793 10.4414
95 4 4.07554 2.49259 10.0525
243 2 -3.16407 5.11358 13.0327
147 2 -1.69652 2.55321 14.6672
136 3 5.13348 3.25451 9.00173
133 3 3.45707 3.94321 11.0604
252 2 3.60589 2.75323 12.7707
220 1 4.23198 2.00695 17.2625
77 4 1.22094 1.85837 9.25202
151 4 -2.90276 6.7702 10.4715
141 3 3.9865 4.74266 16.5299
129 1 3.13262 6.70342 9.61112
97 4 6.39548 1.47211 11.7337
196 2 -1.56736 7.17759 0.435829
233 3 -1.45405 12.9374 7.25223
2 4 -3.46239 7.20262 3.73563
231 1 -6.41181 12.6497 7.39922
168 2 1.41308 9.74281 7.58132
287 2 -6.10093 12.1805 2.3005
226 2 -6.63327 12.1656 6.33874
157 2 -6.87678 11.9815 8.21974
161 2 0.54835 7.21007 0.398683
41 1 -4.1611 11.1189 5.61035
208 4 -5.79585 10.9082 1.04903
200 3 -4.51476 10.0493 1.19297
219 2 -3.62911 11.3358 3.66993
80 2 -4.75925 10.5716 4.76173
225 2 -5.26114 12.7853 7.59513
156 2 1.73223 7.89709 7.52014
199 3 -2.9245 8.58883 2.77053
193 4 -3.3095 8.98712 1.30449
170 2 -3.47831 8.19447 6.33363
22 2 -3.72579 10.2264 6.23604
23 2 -4.92275 11.7053 6.31483
164 2 -3.27987 8.92249 8.17225
24 2 -3.36149 11.8856 5.30094
60 3 -4.68894 7.49704 4.8622
153 4 -1.84252 7.10459 7.66073
230 2 -0.905735 11.7659 4.43159
177 1 -2.75051 8.61383 7.10773
169 2 -1.73964 10.0615 6.50639
158 2 -0.917082 8.56731 7.0745
171 2 -1.24488 11.7627 8.66259
213 2 -1.40286 9.91194 0.536024
229 2 0.0973246 9.00984 5.41792
228 2 -0.665592 8.41298 1.31085
222 4 -0.829759 11.6537 6.22624
174 2 -0.427747 7.4947 3.07771
172 2 1.23343 9.14231 2.67464
178 1 0.144705 8.0206 2.09405
150 4 1.81606 7.04567 5.8557
155 4 1.34761 6.69515 1.85531
175 1 1.77413 8.89461 6.005
185 3 2.80036 7.30381 1.98306
310 3 -0.21993 11.4318 1.47142
20 2 -5.96179 9.9484 8.33939
204 2 -6.05828 10.8071 4.25906
1 4 -4.40811 12.5623 2.80957
203 2 -7.49845 12.2733 4.35578
211 4 1.40773 9.89959 4.52045
179 3 -2.035 6.75034 4.22652
259 2 0.707024 9.20873 14.6219
247 4 -5.48123 8.91107 10.9802
264 1 1.59567 8.99063 15.5025
198 1 -3.27919 9.8001 16.91
144 2 0.581812 7.36892 14.7034
257 3 -4.35586 7.84608 10.5168
149 3 -4.17607 7.73881 14.9932
309 3 -7.32136 12.805 16.5115
88 1 -3.82076 11.4103 13.0644
300 2 -3.69564 12.3063 12.3886
114 2 -4.91725 11.281 13.4322
283 2 -5.39798 10.3995 14.4196
250 2 -5.47596 10.4515 10.0021
166 2 -3.55022 10.3796 12.4753
253 2 -5.2194 9.3517 12.6568
142 4 -2.83596 8.09162 15.6302
276 2 -2.99278 11.6133 14.5533
93 2 -4.21369 13.3189 13.8821
181 3 -1.85989 6.99852 9.25465
194 2 -3.71707 10.2069 15.8418
262 2 1.50435 7.89481 16.1531
167 2 -2.52553 7.52587 12.546
210 2 -3.64029 13.5451 16.9461
119 2 -1.95959 10.229 9.55066
96 4 -1.63796 11.2898 13.2432
135 3 -0.944861 12.4426 12.1094
38 2 -0.720229 9.14265 9.22473
197 2 -1.71131 9.14088 14.752
176 1 -1.1364 11.0043 9.52573
143 2 -1.01737 11.5305 10.5276
101 4 0.746322 10.1282 9.2639
122 2 0.255588 9.65947 12.35
86 2 -7.76521 12.024 16.0231
112 2 -0.436081 8.31189 13.4897
121 2 -1.98184 9.37596 12.448
130 1 -0.619494 9.36761 13.1453
123 2 -0.444076 10.6702 14.4482
284 1 -6.23472 9.60108 14.3542
297 2 1.4348 9.05539 11.1283
195 2 -4.85196 8.65381 17.2584
84 2 -5.81568 13.4655 15.4206
4 4 6.36037 2.78134 3.42881
50 3 7.03692 1.34245 2.87995
57 3 7.36533 4.10598 3.91441
116 2 7.0522 3.84273 6.82477
117 2 5.87876 6.22614 8.27109
128 1 7.15089 5.17541 8.03268
9 4 7.14933 5.6867 3.94709
61 3 8.46366 6.15546 4.81742
99 4 5.51088 4.29873 7.86665
7 4 10.1186 0.43835 5.64265
45 1 5.43862 6.07617 4.92914
109 2 7.92813 5.89255 7.55381
33 2 5.85884 6.23892 5.94414
18 2 8.3407 0.989005 5.55523
274 2 9.48193 3.55536 3.37473
58 3 9.30132 5.03231 1.2024
72 2 13.1194 1.05195 2.51599
295 2 9.40209 1.68228 7.83576
34 2 4.46042 5.29224 4.96936
56 3 11.3151 6.11606 2.77657
73 2 10.7038 1.72015 1.5332
31 2 11.1324 3.98928 4.15134
46 1 12.6125 3.11912 6.83756
62 3 10.4246 5.08578 6.33329
12 4 9.78113 6.51789 5.69213
29 2 12.5325 3.26007 3.41414
44 1 10.6013 3.52264 3.25253
71 4 11.5934 1.81101 3.0833
8 4 10.7456 4.90978 1.93716
11 4 10.7946 3.59431 6.70728
53 3 11.0614 0.830184 4.33825
59 3 9.82384 2.27148 6.47261
214 3 9.61673 1.46162 0.424357
30 2 12.0171 4.51299 0.848847
37 2 12.8878 1.91861 7.05102
36 2 11.5063 3.53292 8.35131
35 2 12.7253 3.43152 5.67781
28 2 13.4899 0.770211 8.52121
63 3 6.95122 6.45864 2.56535
301 2 13.4448 0.495212 6.58076
271 3 13.2985 1.04143 11.8605
104 2 4.22561 6.30102 9.64317
111 2 4.68544 5.90252 12.616
278 2 11.1919 4.23041 16.3291
291 2 6.88463 1.79708 9.09497
293 1 7.69581 2.21036 10.6137
294 2 9.30481 1.68329 11.1008
107 2 7.68346 3.31726 10.805
137 3 6.25813 2.31315 13.1973
139 3 4.98081 4.64427 14.0202
190 2 6.44689 6.4663 12.3725
102 4 4.90601 5.55907 15.5165
187 4 7.95247 5.88389 12.8856
140 3 6.31067 5.82463 16.0703
221 4 8.64669 1.20488 9.3963
305 2 8.74026 2.95829 12.6666
307 2 7.63121 4.6135 14.1497
266 4 11.9319 0.920734 12.6265
189 2 8.3243 5.02303 11.315
308 1 8.88922 4.04321 12.8707
299 2 8.85513 3.02288 14.4744
5 4 9.16914 1.88855 15.8499
105 2 4.31502 6.73244 11.2037
138 3 4.94005 6.68496 12.0731
10 4 7.32213 6.76098 16.961
52 3 10.8507 1.62582 16.321
91 4 12.3839 1.48142 16.8249
192 3 9.01644 6.8954 13.4028
113 2 4.0111 7.05386 15.1396
218 2 6.01681 2.32375 17.0861
103 2 10.0182 4.59731 11.4168
306 2 9.92493 4.30999 14.4382
240 4 10.8509 3.97902 12.8896
273 3 11.3718 2.45609 12.793
55 3 11.6083 5.04961 16.6523
115 2 7.50987 4.73342 9.05509
106 2 8.24748 3.45976 17.0663
216 2 11.1617 5.59031 15.9751
239 1 3.45375 10.125 1.59126
66 3 5.35606 8.17061 1.03787
285 2 7.54724 12.3268 1.38935
232 1 0.902759 11.8419 5.0565
217 2 0.783446 11.6679 1.42993
65 3 7.42354 9.12122 2.58798
68 3 5.88793 9.84575 4.98965
224 2 0.857671 11.2536 6.82078
238 2 2.36414 9.77292 1.29294
54 3 3.0918 12.2714 7.00974
163 2 3.10982 9.71085 4.96083
67 3 9.35921 7.31456 7.10839
302 2 6.49519 11.6574 7.59152
202 2 8.0483 10.7225 5.76651
43 1 5.75303 12.5927 7.60963
212 2 0.832219 11.8625 3.75901
32 2 5.14744 7.01948 4.3361
207 1 6.37405 12.4069 1.42485
237 2 3.49413 10.9308 2.33658
209 2 8.34743 9.99526 1.67294
235 2 4.26839 9.52762 3.26321
286 2 5.80543 11.3673 1.24392
205 2 5.81829 11.6983 3.10757
234 4 4.06399 8.35722 1.97857
6 4 4.22284 11.4714 7.92719
15 4 5.63009 9.17148 6.33151
40 2 4.85242 7.7054 5.91899
69 3 7.00887 8.85276 7.0633
70 3 4.58545 9.9713 7.19046
201 4 6.79736 10.3825 3.85026
13 4 6.8976 7.63762 1.61652
14 4 8.41677 8.4936 7.90692
236 2 4.14124 10.3544 0.729866
206 1 8.2972 11.1374 4.65226
165 2 3.01212 8.04088 4.89083
64 3 7.72345 7.23483 0.348882
288 2 3.15992 7.83059 9.38914
186 4 9.55052 7.78008 14.7544
277 2 1.79569 11.8916 15.5842
17 2 0.17107 12.6094 16.4464
127 1 0.939506 12.7078 15.5225
292 2 0.89048 11.9778 9.32919
191 3 8.66876 7.35328 16.0642
298 1 1.65356 10.186 10.8871
263 2 2.06176 9.96664 16.1545
260 2 4.75447 9.47255 15.1763
261 2 3.29108 9.10117 13.1378
269 2 5.94342 10.1492 15.2772
258 4 3.22201 8.61096 14.8366
272 3 3.16521 12.3976 11.9104
265 4 3.34713 11.09 11.032
47 1 4.69833 9.76594 11.9595
281 2 8.48413 9.7315 15.2873
296 2 1.16414 10.9087 11.6958
256 1 7.41247 11.5673 12.1303
21 2 8.08234 7.59473 9.52554
251 2 8.38627 8.08077 11.1717
282 2 8.56376 9.50101 13.38
82 2 6.34277 10.8723 12.1084
270 3 3.83125 11.3116 9.52689
39 2 5.43017 10.0175 11.1563
249 2 7.53784 9.93591 9.75147
303 2 5.60045 12.4584 15.8497
244 2 6.30197 11.4128 13.8474
246 1 5.54796 11.1806 14.7546
275 2 4.50582 11.0667 14.3093
304 2 4.56763 12.8206 14.1912
255 1 8.50974 9.32816 9.72613
268 2 4.97292 10.3094 13.0537
267 2 4.63075 8.62157 12.0865
188 2 0.427895 12.9944 14.4711
248 2 8.0498 11.3674 11.2006
254 2 7.98888 11.4176 13.0835
ITEM: TIMESTEP
300
ITEM: NUMBER OF ATOMS
310
ITEM: BOX BOUNDS xy xz yz pp pp pp
-8.9189227129867934e+00 1.5435014826195875e+01 -7.6265416956433167e+00
9.8835977962569821e-02 1.3580554735429383e+01 -1.2687661911472270e+00
2.3983829263538503e-01 1.7289097292486602e+01 9.3829071339187675e-01
ITEM: ATOMS id type x y z
74 2 -0.412944 1.39137 1.92108
152 4 -1.10222 5.86549 5.20474
183 3 -0.845271 4.30905 4.30491
27 2 1.87643 3.84733 5.31149
159 2 -1.14893 3.35437 1.66061
154 4 -0.0858827 4.03979 2.91988
75 2 0.870005 2.04255 3.41443
76 1 0.366563 2.323 2.31304
160 2 1.2291 2.46803 1.55402
184 3 0.808813 5.15194 2.26635
182 3 -1.7356 5.96261 6.7134
279 2 1.76875 4.44946 8.23803
227 2 0.394307 1.45771 7.47467
16 2 4.21899 0.390877 1.53825
25 2 2.99221 2.55134 6.36645
19 2 -2.66763 3.99193 7.78109
48 3 3.1164 1.31137 3.85368
42 1 2.97674 4.10347 5.21329
241 2 3.16063 5.61773 6.14987
26 2 3.30928 4.38901 4.05927
180 3 0.407442 6.42931 5.50241
3 4 3.84554 2.40199 4.85308
49 3 5.45512 2.50455 4.9919
51 3 5.39367 3.30112 2.23292
110 2 4.2262 4.29014 6.58209
215 4 7.07242 0.489617 1.56014
98 4 5.12154 3.00192 0.720893
125 2 3.70289 1.90096 0.528021
223 2 5.63503 0.677325 6.62296
220 1 5.45609 1.27382 0.354852
225 2 2.32832 0.508729 7.23237