ITEM: TIMESTEP
0
ITEM: NUMBER OF ATOMS
310
ITEM: BOX BOUNDS xy xz yz pp pp pp
-8.9189227129867934e+00 1.5435014826195875e+01 -7.6265416956433167e+00
9.8835977962569821e-02 1.3580554735429383e+01 -1.2687661911472270e+00
2.3983829263538503e-01 1.7263561707364509e+01 9.3829071339187675e-01
ITEM: ATOMS id type x y z
74 2 -0.44457 1.42541 2.04574
152 4 -1.10253 5.70848 5.10044
183 3 -0.683388 4.25022 4.31979
27 2 1.93143 3.90879 5.11773
159 2 -1.25152 3.18142 1.8202
154 4 -0.155046 4.09475 2.82855
75 2 0.638392 2.02896 3.61132
76 1 0.287953 2.24065 2.52801
160 2 1.17553 2.51099 1.80482
184 3 0.765849 5.24267 2.09956
182 3 -1.67203 5.7511 6.73007
279 2 1.51767 4.03219 8.16046
227 2 0.584652 1.83347 7.21701
16 2 4.27578 0.24179 1.55681
25 2 2.88757 2.77979 6.32528
125 2 3.74847 1.51914 0.262683
48 3 2.86318 1.35491 3.75938
42 1 2.97398 4.19476 5.01412
241 2 3.14147 5.72846 5.85176
26 2 3.27778 4.51611 3.84964
180 3 0.381967 6.63136 5.35202
3 4 3.676 2.40364 4.77895
49 3 5.25795 2.42877 4.82402
51 3 5.21435 3.10599 2.10346
110 2 4.20285 4.22489 6.4259
215 4 7.07557 0.381652 1.52293
98 4 5.05474 2.67718 0.587186
179 3 -2.12653 6.51436 4.35277
223 2 5.84767 1.01058 6.51028
19 2 -2.12719 3.67516 7.82448
78 4 -0.501207 0.945596 11.8155
134 3 4.88387 1.58796 11.0817
100 4 5.13461 3.09872 14.0216
145 2 -1.47623 6.94472 15.5167
108 2 5.13885 2.27015 15.6707
146 2 -1.64953 3.19548 16.9711
245 1 -2.05703 6.25028 11.9363
83 2 0.456889 4.26891 10.8009
132 3 2.75024 1.57724 9.27707
173 2 0.863128 5.53691 14.1751
124 2 -0.421583 5.95998 15.371
131 1 0.0305102 6.27215 14.4111
126 2 -0.738456 6.22829 13.4973
289 2 2.47458 3.41069 13.8218
94 4 2.09806 4.74685 10.428
81 2 0.204566 3.2037 15.2093
79 4 1.26554 2.16556 14.2475
162 2 -3.29005 5.27233 10.8694
148 1 -1.44548 2.53518 15.9891
242 2 -1.01186 5.87398 11.6832
120 2 2.05981 6.39125 11.2677
90 3 0.348665 1.49037 13.0684
92 2 -0.61559 1.70475 16.0658
290 1 3.25267 1.69224 14.2094
85 2 3.60926 1.7817 15.3973
87 1 0.899811 3.70305 9.01691
89 3 0.242589 1.2195 10.3914
95 4 4.05156 2.50022 10.112
243 2 -3.02388 4.97944 12.6772
147 2 -1.56638 3.10317 15.0138
136 3 4.85635 3.21368 8.93997
133 3 3.16049 3.82308 11.0956
252 2 3.75042 2.77051 12.8435
280 2 -0.164539 3.96021 8.91883
77 4 1.20751 1.74759 9.13337
118 2 2.30338 6.28341 8.76139
141 3 3.96975 4.76308 16.5552
129 1 2.9979 6.66846 9.70905
220 1 4.25573 1.84488 17.2509
216 2 -3.65645 5.63574 16.4812
84 2 1.90261 0.960447 15.3921
196 2 -1.33824 7.11011 0.54248
233 3 -1.55274 12.8893 7.21143
2 4 -3.5228 7.08603 3.80112
231 1 -6.54152 12.7937 7.4443
168 2 1.33536 9.64133 7.5841
287 2 -6.13372 12.1684 2.16919
226 2 -6.86154 12.2821 6.47311
157 2 -7.06683 12.2351 8.32448
161 2 0.772415 7.697 0.588599
41 1 -4.37007 11.0779 5.73073
208 4 -5.68778 10.9869 0.992821
200 3 -4.39968 10.1373 1.26837
219 2 -3.84605 11.3804 3.82081
80 2 -5.02074 10.7305 4.83833
225 2 -5.41238 12.6735 7.54987
156 2 1.81065 7.94708 7.44813
199 3 -3.11246 8.44541 2.92476
193 4 -3.26937 9.0156 1.48423
170 2 -3.35203 8.0906 6.10694
22 2 -3.74405 10.1208 6.17947
23 2 -5.13497 11.4815 6.56435
164 2 -3.20471 8.96046 7.84459
24 2 -3.61493 11.956 5.44584
60 3 -4.63116 7.63247 5.14671
153 4 -1.79801 7.12786 7.61639
230 2 -0.832608 12.0476 4.36382
177 1 -2.61049 8.57902 6.9323
169 2 -1.57494 10.0154 6.41652
158 2 -0.766212 8.42657 6.80101
171 2 -1.20309 11.7516 8.62207
213 2 -1.2661 9.66736 0.579123
229 2 0.144347 9.027 5.2446
228 2 -0.535316 8.49202 1.51459
222 4 -0.807774 11.6199 6.15223
174 2 -0.25878 7.91681 3.32981
172 2 1.35321 9.45212 2.71808
178 1 0.233991 8.25802 2.37491
150 4 1.80419 7.10396 5.83363
155 4 1.3569 6.8897 2.02911
175 1 1.62335 9.00418 5.93328
185 3 2.82921 7.3005 2.36665
310 3 0.120907 11.4449 1.62927
20 2 -6.023 9.74703 8.26094
204 2 -6.20651 10.4226 4.29104
1 4 -4.53639 12.5937 2.84944
203 2 -7.14901 12.0866 3.85393
195 2 -3.4814 7.74779 0.287667
259 2 0.675622 8.98036 14.2826
247 4 -5.36264 8.98305 11.1178
210 2 -3.52212 13.2496 17.1377
198 1 -3.18574 9.80539 17.0996
144 2 0.523366 7.31352 14.5228
257 3 -4.20351 7.93265 10.8296
149 3 -4.12702 7.75954 15.1609
309 3 -7.26846 12.8679 16.3426
88 1 -3.51296 11.4608 13.0036
300 2 -4.08086 12.343 12.5566
114 2 -4.04828 11.0624 13.9139
283 2 -5.28911 10.3737 14.34
250 2 -5.40697 10.2988 9.84059
166 2 -3.33142 10.4717 12.0691
253 2 -5.24233 9.75971 12.6256
142 4 -2.74665 8.1235 15.7623
276 2 -2.44484 11.9575 14.5631
254 2 -7.33334 11.5066 12.9852
181 3 -1.83181 7.20939 9.22714
194 2 -3.59329 10.3567 16.2227
262 2 1.62723 8.11563 15.9407
167 2 -2.18585 7.2214 12.5727
248 2 -7.20466 11.4902 11.0101
119 2 -2.06206 10.4365 9.49581
96 4 -1.56427 11.2774 13.1566
135 3 -0.78572 12.4151 12.2324
38 2 -0.973182 9.1656 9.3857
197 2 -1.84247 9.11729 14.6427
176 1 -1.11055 11.0605 9.51874
143 2 -0.969508 11.6508 10.5579
101 4 0.64163 9.93877 9.30054
122 2 -2.39423e-05 9.30858 12.1897
151 4 -2.94483 6.98493 10.5027
112 2 -0.622199 7.9682 13.4348
121 2 -1.84989 9.08636 12.4361
130 1 -0.824552 9.05618 12.9593
123 2 -0.434925 10.2318 14.2534
284 1 -6.20399 9.70545 14.3715
297 2 1.66799 8.72679 10.8742
93 2 -4.08209 13.2006 13.8567
86 2 -7.28913 12.0555 15.8022
264 1 1.63077 9.02246 14.9865
4 4 6.22388 2.75195 3.37602
50 3 7.09768 1.36757 2.81502
57 3 7.22808 4.12535 3.63153
116 2 7.15051 3.78305 7.06474
117 2 5.64447 6.03017 8.14679
128 1 7.00362 5.12256 8.142
9 4 7.33739 5.66794 4.04484
61 3 8.6279 6.04283 5.05103
99 4 5.44631 4.09755 7.75156
7 4 10.1862 0.578228 5.76177
45 1 5.67029 6.11149 5.02569
109 2 7.85349 5.83837 7.89361
33 2 6.19326 6.34183 6.0098
18 2 8.33208 1.02633 5.8803
274 2 9.16768 2.8956 2.29769
58 3 9.43822 5.2127 0.950825
72 2 12.9178 1.07541 2.41886
295 2 9.27444 2.05308 7.93952
34 2 4.74651 5.26919 5.00935
56 3 11.232 5.98056 2.81718
73 2 10.2783 1.31728 1.62388
31 2 9.66471 3.94744 3.79063
46 1 12.8188 2.92459 7.10511
62 3 10.7071 5.01173 6.27552
12 4 9.91423 6.40169 5.90553
29 2 11.9212 3.32497 3.57372
44 1 10.0955 3.2882 2.88606
71 4 11.3166 1.71297 3.09153
8 4 10.5826 4.90288 1.94183
11 4 11.0564 3.56482 6.87793
53 3 10.8521 0.925486 4.38879
59 3 10.0323 2.4088 6.65832
214 3 9.45957 1.47897 0.396424
30 2 11.8638 4.24289 0.853793
37 2 12.9751 1.76904 7.43417
36 2 11.5973 3.59747 8.50538
35 2 13.085 3.17964 5.92687
106 2 9.60004 2.5814 0.300948
271 3 13.2317 0.881104 11.8473
104 2 4.04482 6.18078 9.64755
111 2 4.65394 6.27314 12.7129
278 2 11.4848 4.03609 16.4097
291 2 6.54867 1.63053 9.0457
293 1 7.61075 2.17017 10.4967
294 2 9.0302 1.37996 10.9865
107 2 7.706 3.23088 10.6828
137 3 6.43913 2.47754 13.2076
139 3 5.11212 4.65127 14.1901
190 2 6.37687 6.50349 12.587
102 4 4.90446 5.61125 15.5901
187 4 7.99697 5.87578 12.8967
140 3 6.23861 6.13398 16.2378
221 4 8.33549 1.19509 9.20204
305 2 8.64922 2.87302 12.5423
307 2 7.80379 4.57038 14.1646
266 4 11.8118 0.864117 12.5212
189 2 8.41568 5.09261 11.3197
308 1 8.86943 3.95955 12.7637
299 2 8.78183 3.16951 14.4502
5 4 9.27981 2.11775 15.9015
105 2 4.18466 6.80931 11.2728
138 3 4.85703 6.96067 12.0465
10 4 7.29859 7.0889 16.8904
52 3 11.032 1.95841 16.2485
91 4 12.409 1.39656 16.6272
192 3 9.13215 6.91851 13.3153
97 4 6.37371 1.59404 11.7484
188 2 7.9412 1.0776 14.1951
103 2 10.088 4.30253 11.2821
306 2 9.92456 4.41288 14.1869
240 4 10.9075 3.86422 12.7597
273 3 11.3356 2.34764 12.7096
55 3 11.7568 4.78009 16.9652
115 2 7.11324 4.75494 9.21915
218 2 6.12895 2.19622 17.0252
239 1 3.53252 9.90208 1.14336
66 3 5.40458 7.77499 1.16395
285 2 7.32955 12.4439 1.47944
232 1 0.881425 11.984 5.11132
224 2 0.765479 11.1608 6.82349
65 3 7.166 9.55498 2.48559
68 3 5.83817 9.69131 4.89388
63 3 7.1842 6.74928 2.83574
238 2 2.53994 9.27539 0.551955
54 3 3.19217 12.2831 6.89227
163 2 3.07918 9.82636 5.26389
67 3 9.41374 7.08646 7.38493
302 2 6.36919 11.5153 8.32577
202 2 8.13276 11.3217 5.59024
43 1 5.71085 12.3669 8.04888
212 2 0.924358 12.2132 3.71452
32 2 5.46812 7.0786 4.43999
207 1 6.20741 12.4953 1.32796
237 2 3.16824 10.8156 1.61602
209 2 8.38833 10.1573 1.62608
235 2 4.11255 9.68616 2.96238
286 2 5.7043 11.4635 1.26452
205 2 5.82255 11.7873 3.10368
234 4 3.99629 8.2231 1.91312
6 4 4.10175 11.2981 7.81001
15 4 5.60034 9.0584 6.29558
40 2 4.83452 7.53151 6.08552
69 3 6.99125 8.69906 7.13799
70 3 4.5727 9.88733 7.10858
201 4 6.70305 10.4243 3.75381
13 4 6.92316 7.79504 1.7385
14 4 8.42147 8.24648 7.96791
165 2 2.66579 8.13656 4.64803
206 1 8.27484 11.1208 4.47586
64 3 7.9425 7.4756 0.539648
301 2 6.12299 12.7824 7.09444
217 2 0.915411 11.7703 1.16928
236 2 4.37014 10.1978 0.42804
211 4 1.4349 10.2243 4.47933
288 2 3.10129 7.77566 9.67797
186 4 9.61223 7.8517 14.6723
277 2 1.93728 12.5467 14.5332
17 2 0.560275 12.5911 15.7762
127 1 1.06624 13.1853 14.9598
292 2 0.693975 11.915 9.23795
191 3 8.45277 7.53563 15.7918
298 1 1.62177 10.0313 10.8397
263 2 1.71337 10.1418 15.5318
260 2 4.35338 10.0962 15.5895
261 2 3.59626 9.29107 13.112
269 2 6.05585 10.3092 15.1148
258 4 3.41894 8.78543 14.7816
272 3 3.06999 12.3833 11.7086
265 4 3.2541 11.0327 10.9206
47 1 4.79125 9.90074 11.6473
281 2 8.58134 9.80899 15.3457
296 2 1.07771 10.6479 11.6749
256 1 7.56114 11.6103 11.9564
21 2 7.90236 7.55719 9.64765
251 2 8.40244 8.26737 11.3816
282 2 8.65249 9.53694 13.3869
82 2 6.53478 10.9654 11.8607
270 3 3.52095 11.2095 9.38223
39 2 5.47517 10.2785 10.7163
249 2 7.63435 9.84551 9.83481
303 2 5.51251 12.5925 15.5289
244 2 6.34831 11.2951 13.5171
246 1 5.59192 11.1206 14.4614
275 2 4.60861 10.8584 14.085
304 2 4.44191 12.6419 14.0771
255 1 8.54008 9.21783 9.80328
268 2 5.17004 10.3154 12.6484
267 2 4.83781 8.70252 11.7189
28 2 5.45744 13.0787 8.88113
113 2 4.12321 7.19289 15.1582
ITEM: TIMESTEP
100
ITEM: NUMBER OF ATOMS
310
ITEM: BOX BOUNDS xy xz yz pp pp pp
-8.9233703669301878e+00 1.5442744141022072e+01 -7.6303549664911383e+00
9.8835977962569821e-02 1.3580554735429383e+01 -1.2694005742428001e+00
2.3983829263538503e-01 1.7263561707364509e+01 9.3829071339187675e-01
ITEM: ATOMS id type x y z
74 2 -0.249022 1.46774 1.99372
152 4 -1.11243 5.74917 5.13542
183 3 -0.855396 4.28647 4.29133
27 2 1.86909 3.8822 5.45893
159 2 -1.0704 3.15383 1.65096
154 4 -0.143089 4.08502 2.84788
75 2 0.789359 2.08196 3.61327
76 1 0.483934 2.30396 2.46611
160 2 1.38003 2.49652 1.80137
184 3 0.724972 5.23739 2.08752
182 3 -1.74306 5.7319 6.70421
279 2 1.75263 3.90205 8.01625
227 2 0.459444 1.57991 7.41578
16 2 4.27305 0.247739 1.51838
25 2 2.93172 2.64846 6.30456
19 2 -2.17872 3.50615 7.59821
48 3 2.95931 1.32474 3.76317
42 1 2.93106 4.23631 5.16482
241 2 3.05624 5.84235 6.13009
26 2 3.01935 4.45782 3.99359
180 3 0.36649 6.52723 5.36957
3 4 3.71929 2.47709 4.71311
49 3 5.25982 2.39643 4.80905
51 3 5.23752 3.04132 2.05924
110 2 4.18185 4.45648 6.54445
215 4 7.07982 0.409243 1.60837
98 4 5.01437 2.69952 0.547562
179 3 -2.27335 6.53723 4.34901
223 2 5.48525 0.81091 6.51957
125 2 3.75147 1.56723 0.275815
78 4 -0.612695 0.797288 11.8258
134 3 5.00124 1.51876 10.9662
100 4 5.08406 3.044 13.9865
145 2 -1.47741 6.98133 15.4908
108 2 5.13235 2.15541 15.5785
146 2 -1.66415 3.13217 16.8609
245 1 -2.22018 6.30809 11.9024
83 2 0.618798 4.08371 10.9016
132 3 2.77989 1.71851 9.42798
173 2 0.85952 5.71872 14.042
124 2 -0.433507 5.96139 15.3497
131 1 0.00998231 6.36821 14.3541
126 2 -0.866291 6.40657 13.4274
289 2 2.34589 3.40745 13.9212
94 4 2.18448 4.77107 10.4999
81 2 0.316487 3.13063 15.5187
79 4 1.19218 2.13605 14.3873
162 2 -3.38339 5.19741 10.8836
148 1 -1.49193 2.38612 15.9262
242 2 -1.13534 5.97542 11.7099
120 2 2.15525 6.42859 11.2683
90 3 0.262737 1.68649 13.1963
92 2 -0.610306 1.60842 16.087
290 1 3.19995 1.70276 14.2706
85 2 3.57346 1.67159 15.4107
87 1 1.132 3.77619 9.07018
89 3 0.251186 1.37236 10.2829
95 4 4.16942 2.57302 10.0894
243 2 -3.13119 5.0196 12.6715
147 2 -1.53441 2.83224 14.9019
136 3 5.02332 3.34434 8.95721
133 3 3.42756 3.87889 10.8577
252 2 3.66074 2.75421 12.8989
280 2 -0.0195662 3.90033 8.94479
77 4 1.23336 1.90244 9.21516
151 4 -2.97371 6.86861 10.3476
141 3 3.8844 4.63473 16.325
129 1 3.03591 6.47359 9.59945
220 1 4.29513 1.86832 17.2416
97 4 6.37479 1.50785 11.7493
118 2 2.2647 6.16144 8.76746
196 2 -1.43492 7.18034 0.489433
233 3 -1.29982 12.9126 7.15613
2 4 -3.53934 7.18145 3.7746
231 1 -6.40548 12.7527 7.45541
168 2 1.3875 9.69183 7.67293
287 2 -6.07632 11.8989 2.41607
226 2 -6.90161 12.1238 6.64879
157 2 -6.49947 12.1614 8.40999
161 2 0.729075 7.66435 0.528699
41 1 -4.34654 11.0219 5.59786
208 4 -5.71776 10.8901 0.98161
200 3 -4.38654 10.0264 1.16583
219 2 -3.84851 11.2537 3.69235
80 2 -4.92986 10.5129 4.69807
225 2 -5.36215 12.9567 7.16943
156 2 2.00647 8.08736 7.46486
199 3 -2.91685 8.55892 2.8514
193 4 -3.1781 9.04552 1.35437
170 2 -3.51541 8.27425 6.25927
22 2 -3.89917 10.1178 6.21857
23 2 -5.11635 11.6431 6.31307
164 2 -3.40604 8.84836 8.05264
24 2 -3.56142 11.7912 5.30531
60 3 -4.59265 7.61421 4.91577
153 4 -1.78862 7.15676 7.63711
230 2 -0.914442 12.0069 4.36915
177 1 -2.78967 8.61179 7.12272
169 2 -1.91971 10.1063 6.56944
158 2 -0.924977 8.67687 7.1697
171 2 -1.29923 11.8694 8.55804
213 2 -1.22345 9.92412 0.634345
229 2 0.125176 9.02764 5.34348
228 2 -0.568915 8.45762 1.47415
222 4 -0.90967 11.6143 6.10432
174 2 -0.413744 7.62108 3.20738
172 2 1.1076 9.47587 2.827
178 1 0.141566 8.14519 2.35516
150 4 1.79332 7.05487 5.78922
155 4 1.36081 6.82502 1.92732
175 1 1.79682 8.89369 5.98191
185 3 2.86057 7.33555 2.21337
310 3 -0.0889935 11.3878 1.606
20 2 -6.04717 9.87831 8.35678
204 2 -6.26987 10.5163 4.3591
1 4 -4.50654 12.6003 2.83471
203 2 -7.36243 12.1822 4.07995
195 2 -3.36801 7.70126 0.263929
259 2 0.741152 9.14886 14.4896
247 4 -5.36501 8.85799 10.9917
264 1 1.60992 9.05596 15.3071
198 1 -3.13884 9.8991 17.0591
144 2 0.528517 7.449 14.6753
257 3 -4.16504 7.91803 10.5676
149 3 -4.16422 7.80998 15.0875
309 3 -7.17962 12.8506 16.47
88 1 -3.72675 11.4176 12.8309
300 2 -3.56711 12.148 12.0124
114 2 -4.85647 11.3291 13.0894
283 2 -5.61506 10.5363 13.9536
250 2 -5.43415 10.3343 9.89575
166 2 -3.37804 10.1911 12.4414
253 2 -5.24781 9.45658 12.605
142 4 -2.79842 8.12803 15.7167
276 2 -2.72358 12.1366 14.245
93 2 -4.17299 13.1647 13.7242
181 3 -1.89618 6.97408 9.16538
194 2 -3.54089 10.2795 15.9908
262 2 1.60798 7.99436 16.1
167 2 -2.37065 7.38324 12.4761
248 2 -7.1344 11.3734 11.3487
119 2 -2.19111 10.5579 9.63594
96 4 -1.59636 11.2676 13.1245
135 3 -0.706845 12.2306 12.0518
38 2 -0.926716 9.22314 9.47431
197 2 -1.9273 9.1296 14.6455
176 1 -1.24013 11.0882 9.464
143 2 -0.889749 11.5941 10.5007
101 4 0.622476 10.1308 9.23471
122 2 0.0871119 9.59634 12.2374
86 2 -7.88849 12.0831 16.0335
112 2 -0.362023 8.16961 13.5008
121 2 -1.89824 9.1475 12.5807
130 1 -0.729906 9.27594 13.1027
123 2 -0.634342 10.3338 14.4704
284 1 -6.30765 9.62544 14.3131
297 2 1.31516 9.07408 11.0698
84 2 -5.75551 13.3842 15.4625
254 2 -7.51688 11.5874 13.247
210 2 -3.45186 13.2593 17.1647
4 4 6.27363 2.72548 3.32373
50 3 7.2143 1.28614 3.0015
57 3 7.23676 4.04153 3.87629
116 2 7.04466 3.83969 6.97694
117 2 5.95823 6.31814 8.27453
128 1 7.03142 5.2654 8.22942
9 4 7.20771 5.59961 4.17616
61 3 8.48956 6.07837 5.15926
99 4 5.46405 4.31116 7.80175
7 4 10.1543 0.662908 5.73658
45 1 5.59986 6.05741 5.08873
109 2 7.97724 5.68732 7.82919
33 2 6.00462 6.16941 6.17145
18 2 8.35992 1.06398 5.58772
274 2 9.37052 2.92481 2.59804
58 3 9.24814 5.18262 1.2444
72 2 13.146 1.19242 2.22968
295 2 9.27031 1.94743 7.95844
34 2 4.59059 5.35893 5.06594
56 3 11.2897 6.06011 2.75361
73 2 10.6035 1.57876 1.67968
31 2 10.1025 3.58013 4.19532
46 1 12.7192 2.90044 6.89867
62 3 10.6958 5.03366 6.17399
12 4 9.87292 6.47041 5.88157
29 2 12.296 3.32669 3.42303
44 1 10.369 3.39806 3.12024
71 4 11.5699 1.76232 3.08152
8 4 10.6354 4.80928 1.96007
11 4 10.9486 3.58373 6.7608
53 3 11.0506 0.876526 4.38796
59 3 9.84594 2.47262 6.56088
214 3 9.61698 1.49176 0.437831
30 2 11.8703 4.2248 0.895575
37 2 12.8604 1.71737 7.29166
36 2 11.634 3.64808 8.37847
35 2 12.9632 3.00359 5.81843
28 2 13.0483 0.601801 8.59603
271 3 13.2784 1.05197 11.805
104 2 4.01059 5.9343 9.47969
111 2 4.66279 6.35152 12.6174
278 2 11.4845 4.03023 16.5152
291 2 6.65603 1.61089 8.99328
293 1 7.56495 2.1666 10.4944
294 2 9.02018 1.38396 11.0884
107 2 7.56145 3.22221 10.7903
137 3 6.29051 2.44695 13.1325
139 3 5.11505 4.79426 14.136
190 2 6.44709 6.40849 12.4686
102 4 4.97728 5.57194 15.5369
187 4 8.02966 5.88816 12.9663
140 3 6.36764 5.81613 16.1596
221 4 8.44916 1.13985 9.28379
305 2 8.55953 2.84803 12.7938
307 2 7.74885 4.60158 14.2094
266 4 11.9116 0.943156 12.5971
189 2 8.25468 5.01851 11.3624
308 1 8.8582 3.99562 12.8138
299 2 8.74795 3.12176 14.5162
5 4 9.21137 1.9913 15.8514
105 2 4.31659 6.75101 11.0897
138 3 5.00785 6.89079 11.8641
10 4 7.35744 6.90496 16.9071
52 3 10.8387 1.89776 16.0867
91 4 12.3775 1.4641 16.5856
192 3 9.09503 6.99574 13.3234
113 2 4.16275 7.16024 15.2006
216 2 11.3655 5.45978 16.0634
103 2 9.86477 4.2399 11.3385
306 2 9.95119 4.41815 14.2961
240 4 10.8485 3.84875 12.8161
273 3 11.2742 2.36503 12.8025
55 3 11.723 4.93687 16.7713
115 2 7.2447 4.76008 9.23704
218 2 6.04098 2.33226 17.104
106 2 8.43101 3.49912 17.2024
239 1 3.34874 10.1902 1.45623
66 3 5.37924 7.89687 1.16811
285 2 7.50393 12.4697 1.18863
232 1 0.895795 11.9321 5.0226
211 4 1.5057 10.1633 4.64844
65 3 7.3517 9.22575 2.45383
68 3 5.9467 9.81829 4.97774
63 3 6.97206 6.58825 2.85328
238 2 2.37377 9.8986 0.904808
54 3 2.97596 12.1101 6.76443
163 2 3.21626 9.76763 5.31362
67 3 9.3884 7.26035 7.25868
302 2 6.403 11.572 8.32656
202 2 8.10391 11.0776 5.78793
43 1 5.74559 12.3476 7.83392
212 2 1.02247 12.1093 3.7713
32 2 5.39454 7.08214 4.56078
207 1 6.40055 12.4912 1.2852
237 2 3.07749 10.9761 2.28549
209 2 8.36779 9.91283 1.51916
235 2 4.19565 9.66829 3.13883
286 2 5.98636 11.4271 1.07334
205 2 5.81518 11.6556 2.96299
234 4 4.01672 8.46684 1.88461
6 4 4.11652 11.3453 7.77922
15 4 5.61924 9.14289 6.41396
40 2 4.94323 7.54438 6.20913
69 3 7.04629 8.81424 7.1709
70 3 4.64326 9.88366 7.34645
201 4 6.74361 10.405 3.75631
13 4 6.92818 7.62742 1.60017
14 4 8.32571 8.39784 7.9248
236 2 4.09358 10.5201 0.679761
206 1 8.23509 11.0258 4.63175
64 3 7.87131 7.51943 0.293805
301 2 6.08653 12.834 6.88472
217 2 0.778367 11.7106 1.14215
224 2 0.738058 11.1507 6.76044
165 2 2.67311 8.09924 4.56071
288 2 3.22063 7.57461 9.51521
186 4 9.57797 7.8057 14.7021
277 2 1.91225 12.2422 14.8492
17 2 0.322601 12.5458 16.0048
127 1 1.00309 12.9013 15.1156
292 2 0.694987 11.9212 9.29663
191 3 8.6886 7.24799 15.9281
298 1 1.55895 10.2931 10.899
263 2 1.92527 10.2146 15.8025
260 2 4.59997 9.66657 15.5258
261 2 3.37799 9.02381 13.1416
269 2 5.95343 10.5383 15.4699
258 4 3.31883 8.71693 14.8715
272 3 3.22269 12.3839 11.9216
265 4 3.27136 11.0936 11.1003
47 1 4.70314 9.77573 11.8797
281 2 8.70798 9.80282 15.3868
296 2 1.05291 10.9548 11.7446
256 1 7.51521 11.5324 12.191
21 2 7.81939 7.65447 9.60485
251 2 8.48094 8.06333 11.2092
282 2 8.36921 9.48921 13.5313
82 2 6.38197 10.8075 12.0142
270 3 3.51828 11.2434 9.57071
39 2 5.40383 10.1597 10.9434
249 2 7.69849 9.96971 9.95425
303 2 5.65745 12.7066 15.5166
244 2 6.20593 11.2948 13.7733
246 1 5.51287 11.1776 14.6961
275 2 4.4306 11.0789 14.4832
304 2 4.58443 12.8409 14.1837
255 1 8.53225 9.27188 9.74313
268 2 5.01445 10.3097 12.9773
267 2 4.72996 8.62425 11.9236
188 2 0.416588 13.108 14.1158
ITEM: TIMESTEP
200
ITEM: NUMBER OF ATOMS
310
ITEM: BOX BOUNDS xy xz yz pp pp pp
-8.9278180208735840e+00 1.5450473455848266e+01 -7.6341682373389599e+00
9.8835977962569821e-02 1.3580554735429383e+01 -1.2700349573383747e+00
2.3983829263538503e-01 1.7263561707364509e+01 9.3829071339187675e-01
ITEM: ATOMS id type x y z
74 2 -0.323247 1.41658 2.00569
152 4 -1.05386 5.83502 5.10949
183 3 -0.926323 4.20832 4.31398
27 2 1.87774 3.67915 5.67155
159 2 -1.20318 3.26488 1.72573
154 4 -0.186391 4.12112 2.87801
75 2 0.828728 2.14479 3.49711
76 1 0.377164 2.35141 2.35187
160 2 1.17549 2.53188 1.58404
184 3 0.771605 5.26141 2.42372
182 3 -1.68209 5.79369 6.75559
279 2 1.93326 4.23367 8.35007
227 2 0.569601 1.43823 7.319
280 2 0.0356676 3.79259 8.69357
25 2 3.093 2.45171 6.39638
19 2 -2.17374 3.81315 7.41767
48 3 3.14709 1.33637 3.71845
42 1 2.9325 4.03713 5.23032
241 2 3.01113 5.61786 6.14032
26 2 2.81988 4.39773 4.07125
180 3 0.455016 6.45157 5.27325
3 4 3.73363 2.41691 4.75556
49 3 5.29262 2.45077 4.81995
51 3 5.43884 3.25046 2.16646
110 2 4.20908 4.44378 6.56351
215 4 7.02767 0.41347 1.5837
98 4 5.10198 2.85159 0.696626
118 2 2.6082 6.1908 8.70456
223 2 6.11612 1.1646 6.51063
125 2 3.74037 1.77517 0.493126
16 2 4.18034 0.2112 1.34986
78 4 -0.54091 0.903843 11.9128
134 3 4.96536 1.48459 10.9284
100 4 4.99536 3.09237 13.8467
145 2 -1.55846 6.92087 15.3821
108 2 4.96632 2.54491 15.6157
146 2 -1.77236 3.29654 16.4438
245 1 -2.31177 6.4254 12.089
83 2 0.708263 4.08069 10.8643
132 3 2.83291 1.93599 9.2689
173 2 0.751412 5.54579 14.0741
124 2 -0.501063 5.95453 15.2965
131 1 0.0328204 6.34789 14.3956
126 2 -0.784378 6.50876 13.5121
289 2 2.29333 3.3975 13.782
94 4 2.31009 4.79515 10.4661
81 2 0.0647415 3.1794 15.4264
79 4 1.08206 2.18852 14.3987
162 2 -3.07664 5.05164 10.9768
148 1 -1.63492 2.27831 15.7463
242 2 -1.18109 6.31627 11.9418
120 2 2.35359 6.51449 11.2068
90 3 0.330871 1.62646 13.1933
92 2 -0.760291 1.51246 16.0326
290 1 3.12784 1.82963 14.323
85 2 3.3762 1.88491 15.395
87 1 1.04175 3.69166 9.16192
89 3 0.261445 1.34721 10.4287
95 4 4.07812 2.49141 10.0421
243 2 -3.16914 5.11419 13.0138
147 2 -1.69915 2.55437 14.6524
136 3 5.13874 3.25369 8.99215
133 3 3.46077 3.94387 11.0497
252 2 3.60615 2.75186 12.7582
220 1 4.23608 2.00676 17.2456
77 4 1.22537 1.8585 9.23915
151 4 -2.90719 6.77051 10.4625
141 3 3.9916 4.74272 16.5136
129 1 3.1355 6.70271 9.60214
97 4 6.40154 1.47306 11.7215
196 2 -1.57145 7.17766 0.43697
233 3 -1.45535 12.9363 7.24438
2 4 -3.46569 7.2023 3.73228
231 1 -6.43793 12.6355 7.39303
168 2 1.41449 9.74523 7.57102
287 2 -6.10733 12.1877 2.29306
226 2 -6.68782 12.1537 6.37474
157 2 -6.8448 12.0101 8.28497
161 2 0.548364 7.21111 0.397999
41 1 -4.17724 11.1208 5.60335
208 4 -5.80175 10.9079 1.04786
200 3 -4.51926 10.0492 1.19143
219 2 -3.6472 11.3239 3.66017
80 2 -4.81023 10.5917 4.75758
225 2 -5.27448 12.7749 7.49808
156 2 1.73742 7.89283 7.5128
199 3 -2.92834 8.58969 2.76887
193 4 -3.31269 8.98752 1.30354
170 2 -3.48317 8.19525 6.3193
22 2 -3.73442 10.2213 6.22081
23 2 -4.94848 11.7126 6.32118
164 2 -3.28439 8.92378 8.16464
24 2 -3.3788 11.8839 5.29102
60 3 -4.69324 7.49589 4.85793
153 4 -1.84423 7.10498 7.65398
230 2 -0.901358 11.7674 4.42402
177 1 -2.75345 8.61383 7.09991
169 2 -1.7431 10.0655 6.49682
158 2 -0.915914 8.5642 7.06815
171 2 -1.24378 11.7623 8.65298
213 2 -1.40441 9.9117 0.537072
229 2 0.0983335 9.00767 5.41043
228 2 -0.665353 8.41367 1.30911
222 4 -0.829724 11.6541 6.2187
174 2 -0.428114 7.49713 3.07444
172 2 1.23564 9.14455 2.67147
178 1 0.14539 8.02228 2.0911
150 4 1.81718 7.04577 5.84946
155 4 1.34947 6.69582 1.85285
175 1 1.77637 8.89387 5.99903
185 3 2.80256 7.30413 1.97898
310 3 -0.219821 11.4321 1.47015
20 2 -5.96894 9.94838 8.3311
204 2 -6.07901 10.7383 4.2473
1 4 -4.41351 12.562 2.80671
203 2 -7.51411 12.2868 4.25797
211 4 1.41008 9.89914 4.51537
179 3 -2.03715 6.75084 4.22131
259 2 0.706866 9.20805 14.6081
247 4 -5.48465 8.91082 10.9694
264 1 1.59821 8.99063 15.4866
198 1 -3.28293 9.80011 16.8931
144 2 0.583537 7.3684 14.6917
257 3 -4.35981 7.8456 10.5055
149 3 -4.1799 7.73716 14.9772
309 3 -7.3305 12.8048 16.4957
88 1 -3.82287 11.4074 13.0503
300 2 -3.69901 12.3051 12.3781
114 2 -4.91686 11.28 13.4181
283 2 -5.4048 10.4005 14.4088
250 2 -5.48025 10.4505 9.99051
166 2 -3.55134 10.3792 12.4592
253 2 -5.21995 9.35211 12.6436
142 4 -2.83959 8.09063 15.6149
276 2 -2.99557 11.6135 14.5407
93 2 -4.21413 13.3229 13.868
181 3 -1.86174 6.99939 9.24672
194 2 -3.72052 10.2057 15.8257
262 2 1.50855 7.89394 16.1387
167 2 -2.52946 7.52592 12.5375
210 2 -3.64289 13.5434 16.9292
119 2 -1.96054 10.2293 9.5401
96 4 -1.64001 11.2902 13.2312
135 3 -0.944581 12.4426 12.0988
38 2 -0.718094 9.14166 9.21837
197 2 -1.71627 9.14143 14.7377
176 1 -1.13697 11.0041 9.51653
143 2 -1.01759 11.5304 10.5166
101 4 0.747523 10.1284 9.25549
122 2 0.255635 9.65882 12.3397
86 2 -7.77332 12.0228 16.0049
112 2 -0.439383 8.3111 13.4806
121 2 -1.98315 9.37486 12.4363
130 1 -0.621455 9.36657 13.1337
123 2 -0.445386 10.6703 14.4344
284 1 -6.23933 9.60169 14.34
297 2 1.439 9.05649 11.1191
195 2 -4.85648 8.65322 17.2418
84 2 -5.81904 13.4652 15.4068
4 4 6.36589 2.78112 3.42705
50 3 7.04338 1.34189 2.87874
57 3 7.37214 4.10663 3.91243
116 2 7.05583 3.84247 6.81491
117 2 5.88585 6.22635 8.26802
128 1 7.15862 5.17616 8.02634
9 4 7.15685 5.68687 3.94292
61 3 8.47271 6.15572 4.8128
99 4 5.51549 4.29835 7.85878
7 4 10.1288 0.437113 5.63679
45 1 5.44444 6.0769 4.92449
109 2 7.93659 5.89151 7.54849
33 2 5.86335 6.24136 5.93825
18 2 8.35129 0.992175 5.55281
274 2 9.49136 3.5542 3.36535
58 3 9.30986 5.03284 1.20214
72 2 13.1354 1.04935 2.51558
295 2 9.41249 1.68225 7.82626
34 2 4.46417 5.29262 4.96427
56 3 11.3268 6.11609 2.77374
73 2 10.716 1.72008 1.53107
31 2 11.1409 3.98517 4.14946
46 1 12.6236 3.11974 6.83123
62 3 10.4351 5.08599 6.32849
12 4 9.79099 6.51829 5.68712
29 2 12.5433 3.26116 3.41312
44 1 10.6121 3.52074 3.24795
71 4 11.6055 1.81132 3.08013
8 4 10.7562 4.91022 1.93476
11 4 10.8061 3.59496 6.70205
53 3 11.0729 0.829791 4.33351
59 3 9.83496 2.27166 6.46646
214 3 9.62627 1.46095 0.424322
30 2 12.0278 4.5134 0.846545
37 2 12.899 1.91881 7.0431
36 2 11.5202 3.53219 8.34522
35 2 12.7429 3.43295 5.66969
28 2 13.5024 0.769609 8.51419
63 3 6.95767 6.45871 2.56225
301 2 13.4562 0.496186 6.57378
271 3 13.3122 1.04189 11.8496
104 2 4.22898 6.29917 9.63294
111 2 4.69336 5.9031 12.606
278 2 11.2035 4.22921 16.3122
291 2 6.89257 1.79808 9.08717
293 1 7.70078 2.21021 10.6023
294 2 9.31748 1.68412 11.0946
107 2 7.68561 3.31783 10.8011
137 3 6.26261 2.31429 13.1836
139 3 4.98609 4.64535 14.0051
190 2 6.45559 6.46586 12.3589
102 4 4.91114 5.55941 15.501
187 4 7.96137 5.88343 12.8716
140 3 6.31686 5.8252 16.0546
221 4 8.65463 1.20515 9.38724
305 2 8.74684 2.95902 12.6514
307 2 7.63942 4.61201 14.136
266 4 11.9434 0.920825 12.6139
189 2 8.33272 5.02255 11.3022
308 1 8.89791 4.04225 12.8574
299 2 8.86387 3.02053 14.4591
5 4 9.17853 1.88801 15.8345
105 2 4.32073 6.73296 11.1928
138 3 4.94755 6.68498 12.0604
10 4 7.32855 6.76144 16.9448
52 3 10.8627 1.62592 16.3054
91 4 12.3973 1.48156 16.8094
192 3 9.02463 6.89617 13.3889
113 2 4.01508 7.05433 15.1241
218 2 6.02274 2.32491 17.0697
103 2 10.0266 4.5946 11.4026
306 2 9.92919 4.30928 14.4247
240 4 10.8604 3.97889 12.8761
273 3 11.3832 2.45634 12.7798
55 3 11.6195 5.04887 16.6353
115 2 7.51434 4.73362 9.04648
106 2 8.25644 3.45981 17.0499
216 2 11.1729 5.58932 15.9576
239 1 3.45826 10.124 1.59048
66 3 5.36203 8.16968 1.03683
285 2 7.55565 12.3242 1.3871
232 1 0.904889 11.8419 5.05146
217 2 0.784707 11.6688 1.42896
65 3 7.42513 9.13332 2.59603
68 3 5.89907 9.85072 4.98283
224 2 0.856233 11.2559 6.81499
238 2 2.36768 9.77356 1.29329
54 3 3.09439 12.2705 7.00317
163 2 3.11235 9.7108 4.95669
67 3 9.36739 7.31561 7.10203
302 2 6.50082 11.6568 7.58366
202 2 8.10824 10.8516 5.74381
43 1 5.75763 12.5927 7.60224
212 2 0.83317 11.8612 3.75352
32 2 5.15307 7.01885 4.33097
207 1 6.3808 12.4079 1.42409
237 2 3.50165 10.9317 2.33361
209 2 8.36287 10.0073 1.67423
235 2 4.27817 9.52789 3.26145
286 2 5.80858 11.371 1.24773
205 2 5.81127 11.6755 3.0877
234 4 4.06928 8.35596 1.97732
6 4 4.22676 11.4715 7.91943
15 4 5.63867 9.17365 6.32294
40 2 4.85952 7.71083 5.90913
69 3 7.01625 8.85056 7.05727
70 3 4.59124 9.97147 7.18309
201 4 6.81958 10.377 3.84961
13 4 6.9029 7.63685 1.61466
14 4 8.42483 8.49348 7.89959
236 2 4.14721 10.3499 0.725504
206 1 8.29911 11.1433 4.66515
165 2 3.01339 8.0415 4.88294
64 3 7.72988 7.23599 0.348324
288 2 3.16329 7.82989 9.3822
186 4 9.55938 7.78021 14.7397
277 2 1.79819 11.8904 15.5687
17 2 0.174359 12.6098 16.4309
127 1 0.941958 12.7075 15.5071
292 2 0.891039 11.9779 9.32089
191 3 8.67751 7.35386 16.0485
298 1 1.65456 10.1901 10.8797
263 2 2.06642 9.96787 16.1372
260 2 4.75876 9.47226 15.1602
261 2 3.29247 9.10298 13.1239
269 2 5.94941 10.1491 15.2597
258 4 3.22558 8.61076 14.8214
272 3 3.16955 12.3973 11.8979
265 4 3.35094 11.0906 11.0216
47 1 4.70161 9.76532 11.9471
281 2 8.49378 9.73385 15.2698
296 2 1.17794 10.91 11.6947
256 1 7.41815 11.5668 12.1179
21 2 8.09205 7.59438 9.51899
251 2 8.39832 8.08042 11.1629
282 2 8.57363 9.49668 13.3652
82 2 6.34637 10.8723 12.096
270 3 3.83455 11.3111 9.51856
39 2 5.43451 10.0173 11.1463
249 2 7.54711 9.93515 9.74311
303 2 5.60814 12.4563 15.838
244 2 6.30527 11.4163 13.8324
246 1 5.55113 11.1819 14.7412
275 2 4.50746 11.0693 14.2986
304 2 4.57359 12.8255 14.1797
255 1 8.51885 9.32806 9.7177
268 2 4.9757 10.31 13.0415
267 2 4.63789 8.62044 12.0742
188 2 0.430145 12.993 14.4562
248 2 8.05591 11.3668 11.1888
254 2 7.995 11.4169 13.0711
ITEM: TIMESTEP
300
ITEM: NUMBER OF ATOMS
310
ITEM: BOX BOUNDS xy xz yz pp pp pp
-8.9322656748169802e+00 1.5458202770674463e+01 -7.6379815081867832e+00
9.8835977962569821e-02 1.3580554735429383e+01 -1.2706693404339475e+00
2.3983829263538503e-01 1.7263561707364509e+01 9.3829071339187675e-01
ITEM: ATOMS id type x y z
74 2 -0.410075 1.39132 1.91517
152 4 -1.10511 5.86652 5.20038
183 3 -0.845453 4.31033 4.29921
27 2 1.88632 3.8444 5.29948
159 2 -1.14476 3.35747 1.65713
154 4 -0.0826148 4.04254 2.91448
75 2 0.879987 2.05384 3.40973
76 1 0.378113 2.33198 2.30897
160 2 1.23731 2.47573 1.55268
184 3 0.810957 5.15632 2.26311
182 3 -1.73904 5.966 6.70165
279 2 1.73882 4.49766 8.23998
227 2 0.29505 1.47824 7.52899
16 2 4.22654 0.398255 1.54676
25 2 3.00626 2.54392 6.35919
19 2 -2.66705 4.00607 7.77571
48 3 3.12354 1.3106 3.85114
42 1 2.98719 4.10473 5.20352
241 2 3.16249 5.60888 6.13521
26 2 3.3238 4.38382 4.05013
180 3 0.405643 6.42881 5.49755
3 4 3.85151 2.39966 4.84771
49 3 5.46749 2.50689 4.9888
51 3 5.40263 3.30007 2.23074
110 2 4.23282 4.29953 6.57649
215 4 7.08182 0.488248 1.5558
98 4 5.1301 3.00157 0.721008
125 2 3.7116 1.91604 0.529414
223 2 5.64608 0.680663 6.61169
220 1 5.4591 1.26993 0.342863
225 2 2.33711 0.581182 7.37947