ITEM: TIMESTEP
0
ITEM: NUMBER OF ATOMS
310
ITEM: BOX BOUNDS xy xz yz pp pp pp
-8.9189227129867934e+00 1.5435014826195875e+01 -7.6265416956433167e+00
9.8835977962569821e-02 1.3580554735429383e+01 -1.2687661911472270e+00
2.3983829263538503e-01 1.7263561707364509e+01 9.3829071339187675e-01
ITEM: ATOMS id type x y z
74 2 -0.44457 1.42541 2.04574
152 4 -1.10253 5.70848 5.10044
183 3 -0.683388 4.25022 4.31979
27 2 1.93143 3.90879 5.11773
159 2 -1.25152 3.18142 1.8202
154 4 -0.155046 4.09475 2.82855
75 2 0.638392 2.02896 3.61132
76 1 0.287953 2.24065 2.52801
160 2 1.17553 2.51099 1.80482
184 3 0.765849 5.24267 2.09956
182 3 -1.67203 5.7511 6.73007
279 2 1.51767 4.03219 8.16046
227 2 0.584652 1.83347 7.21701
16 2 4.27578 0.24179 1.55681
25 2 2.88757 2.77979 6.32528
125 2 3.74847 1.51914 0.262683
48 3 2.86318 1.35491 3.75938
42 1 2.97398 4.19476 5.01412
241 2 3.14147 5.72846 5.85176
26 2 3.27778 4.51611 3.84964
180 3 0.381967 6.63136 5.35202
3 4 3.676 2.40364 4.77895
49 3 5.25795 2.42877 4.82402
51 3 5.21435 3.10599 2.10346
110 2 4.20285 4.22489 6.4259
215 4 7.07557 0.381652 1.52293
98 4 5.05474 2.67718 0.587186
179 3 -2.12653 6.51436 4.35277
223 2 5.84767 1.01058 6.51028
19 2 -2.12719 3.67516 7.82448
78 4 -0.501207 0.945596 11.8155
134 3 4.88387 1.58796 11.0817
100 4 5.13461 3.09872 14.0216
145 2 -1.47623 6.94472 15.5167
108 2 5.13885 2.27015 15.6707
146 2 -1.64953 3.19548 16.9711
245 1 -2.05703 6.25028 11.9363
83 2 0.456889 4.26891 10.8009
132 3 2.75024 1.57724 9.27707
173 2 0.863128 5.53691 14.1751
124 2 -0.421583 5.95998 15.371
131 1 0.0305102 6.27215 14.4111
126 2 -0.738456 6.22829 13.4973
289 2 2.47458 3.41069 13.8218
94 4 2.09806 4.74685 10.428
81 2 0.204566 3.2037 15.2093
79 4 1.26554 2.16556 14.2475
162 2 -3.29005 5.27233 10.8694
148 1 -1.44548 2.53518 15.9891
242 2 -1.01186 5.87398 11.6832
120 2 2.05981 6.39125 11.2677
90 3 0.348665 1.49037 13.0684
92 2 -0.61559 1.70475 16.0658
290 1 3.25267 1.69224 14.2094
85 2 3.60926 1.7817 15.3973
87 1 0.899811 3.70305 9.01691
89 3 0.242589 1.2195 10.3914
95 4 4.05156 2.50022 10.112
243 2 -3.02388 4.97944 12.6772
147 2 -1.56638 3.10317 15.0138
136 3 4.85635 3.21368 8.93997
133 3 3.16049 3.82308 11.0956
252 2 3.75042 2.77051 12.8435
280 2 -0.164539 3.96021 8.91883
77 4 1.20751 1.74759 9.13337
118 2 2.30338 6.28341 8.76139
141 3 3.96975 4.76308 16.5552
129 1 2.9979 6.66846 9.70905
220 1 4.25573 1.84488 17.2509
216 2 -3.65645 5.63574 16.4812
84 2 1.90261 0.960447 15.3921
196 2 -1.33824 7.11011 0.54248
233 3 -1.55274 12.8893 7.21143
2 4 -3.5228 7.08603 3.80112
231 1 -6.54152 12.7937 7.4443
168 2 1.33536 9.64133 7.5841
287 2 -6.13372 12.1684 2.16919
226 2 -6.86154 12.2821 6.47311
157 2 -7.06683 12.2351 8.32448
161 2 0.772415 7.697 0.588599
41 1 -4.37007 11.0779 5.73073
208 4 -5.68778 10.9869 0.992821
200 3 -4.39968 10.1373 1.26837
219 2 -3.84605 11.3804 3.82081
80 2 -5.02074 10.7305 4.83833
225 2 -5.41238 12.6735 7.54987
156 2 1.81065 7.94708 7.44813
199 3 -3.11246 8.44541 2.92476
193 4 -3.26937 9.0156 1.48423
170 2 -3.35203 8.0906 6.10694
22 2 -3.74405 10.1208 6.17947
23 2 -5.13497 11.4815 6.56435
164 2 -3.20471 8.96046 7.84459
24 2 -3.61493 11.956 5.44584
60 3 -4.63116 7.63247 5.14671
153 4 -1.79801 7.12786 7.61639
230 2 -0.832608 12.0476 4.36382
177 1 -2.61049 8.57902 6.9323
169 2 -1.57494 10.0154 6.41652
158 2 -0.766212 8.42657 6.80101
171 2 -1.20309 11.7516 8.62207
213 2 -1.2661 9.66736 0.579123
229 2 0.144347 9.027 5.2446
228 2 -0.535316 8.49202 1.51459
222 4 -0.807774 11.6199 6.15223
174 2 -0.25878 7.91681 3.32981
172 2 1.35321 9.45212 2.71808
178 1 0.233991 8.25802 2.37491
150 4 1.80419 7.10396 5.83363
155 4 1.3569 6.8897 2.02911
175 1 1.62335 9.00418 5.93328
185 3 2.82921 7.3005 2.36665
310 3 0.120907 11.4449 1.62927
20 2 -6.023 9.74703 8.26094
204 2 -6.20651 10.4226 4.29104
1 4 -4.53639 12.5937 2.84944
203 2 -7.14901 12.0866 3.85393
195 2 -3.4814 7.74779 0.287667
259 2 0.675622 8.98036 14.2826
247 4 -5.36264 8.98305 11.1178
210 2 -3.52212 13.2496 17.1377
198 1 -3.18574 9.80539 17.0996
144 2 0.523366 7.31352 14.5228
257 3 -4.20351 7.93265 10.8296
149 3 -4.12702 7.75954 15.1609
309 3 -7.26846 12.8679 16.3426
88 1 -3.51296 11.4608 13.0036
300 2 -4.08086 12.343 12.5566
114 2 -4.04828 11.0624 13.9139
283 2 -5.28911 10.3737 14.34
250 2 -5.40697 10.2988 9.84059
166 2 -3.33142 10.4717 12.0691
253 2 -5.24233 9.75971 12.6256
142 4 -2.74665 8.1235 15.7623
276 2 -2.44484 11.9575 14.5631
254 2 -7.33334 11.5066 12.9852
181 3 -1.83181 7.20939 9.22714
194 2 -3.59329 10.3567 16.2227
262 2 1.62723 8.11563 15.9407
167 2 -2.18585 7.2214 12.5727
248 2 -7.20466 11.4902 11.0101
119 2 -2.06206 10.4365 9.49581
96 4 -1.56427 11.2774 13.1566
135 3 -0.78572 12.4151 12.2324
38 2 -0.973182 9.1656 9.3857
197 2 -1.84247 9.11729 14.6427
176 1 -1.11055 11.0605 9.51874
143 2 -0.969508 11.6508 10.5579
101 4 0.64163 9.93877 9.30054
122 2 -2.39423e-05 9.30858 12.1897
151 4 -2.94483 6.98493 10.5027
112 2 -0.622199 7.9682 13.4348
121 2 -1.84989 9.08636 12.4361
130 1 -0.824552 9.05618 12.9593
123 2 -0.434925 10.2318 14.2534
284 1 -6.20399 9.70545 14.3715
297 2 1.66799 8.72679 10.8742
93 2 -4.08209 13.2006 13.8567
86 2 -7.28913 12.0555 15.8022
264 1 1.63077 9.02246 14.9865
4 4 6.22388 2.75195 3.37602
50 3 7.09768 1.36757 2.81502
57 3 7.22808 4.12535 3.63153
116 2 7.15051 3.78305 7.06474
117 2 5.64447 6.03017 8.14679
128 1 7.00362 5.12256 8.142
9 4 7.33739 5.66794 4.04484
61 3 8.6279 6.04283 5.05103
99 4 5.44631 4.09755 7.75156
7 4 10.1862 0.578228 5.76177
45 1 5.67029 6.11149 5.02569
109 2 7.85349 5.83837 7.89361
33 2 6.19326 6.34183 6.0098
18 2 8.33208 1.02633 5.8803
274 2 9.16768 2.8956 2.29769
58 3 9.43822 5.2127 0.950825
72 2 12.9178 1.07541 2.41886
295 2 9.27444 2.05308 7.93952
34 2 4.74651 5.26919 5.00935
56 3 11.232 5.98056 2.81718
73 2 10.2783 1.31728 1.62388
31 2 9.66471 3.94744 3.79063
46 1 12.8188 2.92459 7.10511
62 3 10.7071 5.01173 6.27552
12 4 9.91423 6.40169 5.90553
29 2 11.9212 3.32497 3.57372
44 1 10.0955 3.2882 2.88606
71 4 11.3166 1.71297 3.09153
8 4 10.5826 4.90288 1.94183
11 4 11.0564 3.56482 6.87793
53 3 10.8521 0.925486 4.38879
59 3 10.0323 2.4088 6.65832
214 3 9.45957 1.47897 0.396424
30 2 11.8638 4.24289 0.853793
37 2 12.9751 1.76904 7.43417
36 2 11.5973 3.59747 8.50538
35 2 13.085 3.17964 5.92687
106 2 9.60004 2.5814 0.300948
271 3 13.2317 0.881104 11.8473
104 2 4.04482 6.18078 9.64755
111 2 4.65394 6.27314 12.7129
278 2 11.4848 4.03609 16.4097
291 2 6.54867 1.63053 9.0457
293 1 7.61075 2.17017 10.4967
294 2 9.0302 1.37996 10.9865
107 2 7.706 3.23088 10.6828
137 3 6.43913 2.47754 13.2076
139 3 5.11212 4.65127 14.1901
190 2 6.37687 6.50349 12.587
102 4 4.90446 5.61125 15.5901
187 4 7.99697 5.87578 12.8967
140 3 6.23861 6.13398 16.2378
221 4 8.33549 1.19509 9.20204
305 2 8.64922 2.87302 12.5423
307 2 7.80379 4.57038 14.1646
266 4 11.8118 0.864117 12.5212
189 2 8.41568 5.09261 11.3197
308 1 8.86943 3.95955 12.7637
299 2 8.78183 3.16951 14.4502
5 4 9.27981 2.11775 15.9015
105 2 4.18466 6.80931 11.2728
138 3 4.85703 6.96067 12.0465
10 4 7.29859 7.0889 16.8904
52 3 11.032 1.95841 16.2485
91 4 12.409 1.39656 16.6272
192 3 9.13215 6.91851 13.3153
97 4 6.37371 1.59404 11.7484
188 2 7.9412 1.0776 14.1951
103 2 10.088 4.30253 11.2821
306 2 9.92456 4.41288 14.1869
240 4 10.9075 3.86422 12.7597
273 3 11.3356 2.34764 12.7096
55 3 11.7568 4.78009 16.9652
115 2 7.11324 4.75494 9.21915
218 2 6.12895 2.19622 17.0252
239 1 3.53252 9.90208 1.14336
66 3 5.40458 7.77499 1.16395
285 2 7.32955 12.4439 1.47944
232 1 0.881425 11.984 5.11132
224 2 0.765479 11.1608 6.82349
65 3 7.166 9.55498 2.48559
68 3 5.83817 9.69131 4.89388
63 3 7.1842 6.74928 2.83574
238 2 2.53994 9.27539 0.551955
54 3 3.19217 12.2831 6.89227
163 2 3.07918 9.82636 5.26389
67 3 9.41374 7.08646 7.38493
302 2 6.36919 11.5153 8.32577
202 2 8.13276 11.3217 5.59024
43 1 5.71085 12.3669 8.04888
212 2 0.924358 12.2132 3.71452
32 2 5.46812 7.0786 4.43999
207 1 6.20741 12.4953 1.32796
237 2 3.16824 10.8156 1.61602
209 2 8.38833 10.1573 1.62608
235 2 4.11255 9.68616 2.96238
286 2 5.7043 11.4635 1.26452
205 2 5.82255 11.7873 3.10368
234 4 3.99629 8.2231 1.91312
6 4 4.10175 11.2981 7.81001
15 4 5.60034 9.0584 6.29558
40 2 4.83452 7.53151 6.08552
69 3 6.99125 8.69906 7.13799
70 3 4.5727 9.88733 7.10858
201 4 6.70305 10.4243 3.75381
13 4 6.92316 7.79504 1.7385
14 4 8.42147 8.24648 7.96791
165 2 2.66579 8.13656 4.64803
206 1 8.27484 11.1208 4.47586
64 3 7.9425 7.4756 0.539648
301 2 6.12299 12.7824 7.09444
217 2 0.915411 11.7703 1.16928
236 2 4.37014 10.1978 0.42804
211 4 1.4349 10.2243 4.47933
288 2 3.10129 7.77566 9.67797
186 4 9.61223 7.8517 14.6723
277 2 1.93728 12.5467 14.5332
17 2 0.560275 12.5911 15.7762
127 1 1.06624 13.1853 14.9598
292 2 0.693975 11.915 9.23795
191 3 8.45277 7.53563 15.7918
298 1 1.62177 10.0313 10.8397
263 2 1.71337 10.1418 15.5318
260 2 4.35338 10.0962 15.5895
261 2 3.59626 9.29107 13.112
269 2 6.05585 10.3092 15.1148
258 4 3.41894 8.78543 14.7816
272 3 3.06999 12.3833 11.7086
265 4 3.2541 11.0327 10.9206
47 1 4.79125 9.90074 11.6473
281 2 8.58134 9.80899 15.3457
296 2 1.07771 10.6479 11.6749
256 1 7.56114 11.6103 11.9564
21 2 7.90236 7.55719 9.64765
251 2 8.40244 8.26737 11.3816
282 2 8.65249 9.53694 13.3869
82 2 6.53478 10.9654 11.8607
270 3 3.52095 11.2095 9.38223
39 2 5.47517 10.2785 10.7163
249 2 7.63435 9.84551 9.83481
303 2 5.51251 12.5925 15.5289
244 2 6.34831 11.2951 13.5171
246 1 5.59192 11.1206 14.4614
275 2 4.60861 10.8584 14.085
304 2 4.44191 12.6419 14.0771
255 1 8.54008 9.21783 9.80328
268 2 5.17004 10.3154 12.6484
267 2 4.83781 8.70252 11.7189
28 2 5.45744 13.0787 8.88113
113 2 4.12321 7.19289 15.1582
ITEM: TIMESTEP
100
ITEM: NUMBER OF ATOMS
310
ITEM: BOX BOUNDS xy xz yz pp pp pp
-8.9189227129867934e+00 1.5435014826195875e+01 -7.6265416956433167e+00
9.8835977962569821e-02 1.3587295594808115e+01 -1.2687661911472270e+00
2.3983829263538503e-01 1.7263561707364509e+01 9.3875985874857271e-01
ITEM: ATOMS id type x y z
74 2 -0.248909 1.46842 1.99372
152 4 -1.11188 5.752 5.13542
183 3 -0.854981 4.28857 4.29133
27 2 1.86815 3.88409 5.45893
159 2 -1.06988 3.15536 1.65096
154 4 -0.143029 4.08701 2.84788
75 2 0.788952 2.08296 3.61327
76 1 0.483681 2.30507 2.46611
160 2 1.37932 2.49772 1.80137
184 3 0.724598 5.23996 2.08752
182 3 -1.7422 5.73472 6.70421
279 2 1.75175 3.90395 8.01625
227 2 0.459202 1.58065 7.41578
16 2 4.2709 0.247814 1.51838
25 2 2.93025 2.64973 6.30456
19 2 -2.17765 3.50786 7.59821
48 3 2.95782 1.32535 3.76317
42 1 2.92958 4.23838 5.16482
241 2 3.0547 5.84522 6.13009
26 2 3.01783 4.46 3.99359
180 3 0.366295 6.53045 5.36957
3 4 3.71742 2.47828 4.71311
49 3 5.25717 2.39758 4.80905
51 3 5.23489 3.04279 2.05924
110 2 4.17974 4.45866 6.54445
215 4 7.07627 0.409398 1.60837
98 4 5.01185 2.70082 0.547562
179 3 -2.27222 6.54044 4.34901
223 2 5.4825 0.811266 6.51957
125 2 3.74958 1.56797 0.275815
78 4 -0.612401 0.797637 11.8258
134 3 4.99873 1.51947 10.9662
100 4 5.08151 3.04547 13.9865
145 2 -1.47669 6.98477 15.4908
108 2 5.12978 2.15644 15.5785
146 2 -1.66333 3.13369 16.8609
245 1 -2.21909 6.31119 11.9024
83 2 0.618477 4.08571 10.9016
132 3 2.77849 1.71932 9.42798
173 2 0.859078 5.72153 14.042
124 2 -0.433302 5.96433 15.3497
131 1 0.00996552 6.37135 14.3541
126 2 -0.86587 6.40973 13.4274
289 2 2.34471 3.40911 13.9212
94 4 2.18338 4.7734 10.4999
81 2 0.316317 3.13215 15.5187
79 4 1.19157 2.13707 14.3873
162 2 -3.38171 5.19996 10.8836
148 1 -1.49119 2.38726 15.9262
242 2 -1.13479 5.97836 11.7099
120 2 2.15416 6.43176 11.2683
90 3 0.262594 1.68729 13.1963
92 2 -0.610012 1.60918 16.087
290 1 3.19834 1.70357 14.2706
85 2 3.57167 1.67238 15.4107
87 1 1.13142 3.77803 9.07018
89 3 0.251049 1.373 10.2829
95 4 4.16732 2.57426 10.0894
243 2 -3.12963 5.02206 12.6715
147 2 -1.53366 2.83361 14.9019
136 3 5.0208 3.34596 8.95721
133 3 3.42583 3.88078 10.8577
252 2 3.6589 2.75554 12.8989
280 2 -0.0195682 3.90223 8.94479
77 4 1.23273 1.90334 9.21516
151 4 -2.97223 6.872 10.3476
141 3 3.88245 4.637 16.325
129 1 3.03439 6.47678 9.59945
220 1 4.29297 1.86921 17.2416
97 4 6.3716 1.50855 11.7493
118 2 2.26356 6.16447 8.76746
196 2 -1.43421 7.18388 0.489433
233 3 -1.29918 12.919 7.15613
2 4 -3.53758 7.18499 3.7746
231 1 -6.40229 12.7591 7.45541
168 2 1.38679 9.69662 7.67293
287 2 -6.0733 11.9048 2.41607
226 2 -6.89817 12.1298 6.64879
157 2 -6.49623 12.1674 8.40999
161 2 0.728698 7.66813 0.528699
41 1 -4.34438 11.0274 5.59786
208 4 -5.71492 10.8955 0.98161
200 3 -4.38436 10.0314 1.16583
219 2 -3.8466 11.2593 3.69235
80 2 -4.92741 10.5181 4.69807
225 2 -5.35948 12.9631 7.16943
156 2 2.00545 8.09135 7.46486
199 3 -2.9154 8.56315 2.8514
193 4 -3.17652 9.04999 1.35437
170 2 -3.51366 8.27833 6.25927
22 2 -3.89724 10.1228 6.21857
23 2 -5.1138 11.6489 6.31307
164 2 -3.40435 8.85273 8.05264
24 2 -3.55966 11.797 5.30531
60 3 -4.59037 7.61797 4.91577
153 4 -1.78774 7.16029 7.63711
230 2 -0.913997 12.0129 4.36915
177 1 -2.78829 8.61605 7.12272
169 2 -1.91876 10.1113 6.56944
158 2 -0.924526 8.68116 7.1697
171 2 -1.2986 11.8753 8.55804
213 2 -1.22285 9.92903 0.634345
229 2 0.125102 9.03211 5.34348
228 2 -0.568642 8.4618 1.47415
222 4 -0.909227 11.62 6.10432
174 2 -0.413549 7.62484 3.20738
172 2 1.10703 9.48055 2.827
178 1 0.141484 8.14921 2.35516
150 4 1.79241 7.05835 5.78922
155 4 1.36012 6.82838 1.92732
175 1 1.79591 8.89809 5.98191
185 3 2.85913 7.33917 2.21337
310 3 -0.0889608 11.3935 1.606
20 2 -6.04416 9.8832 8.35678
204 2 -6.26675 10.5215 4.3591
1 4 -4.5043 12.6065 2.83471
203 2 -7.35876 12.1882 4.07995
195 2 -3.36634 7.70506 0.263929
259 2 0.74077 9.15338 14.4896
247 4 -5.36234 8.86236 10.9917
264 1 1.60911 9.06044 15.3071
198 1 -3.13728 9.904 17.0591
144 2 0.528241 7.45267 14.6753
257 3 -4.16297 7.92194 10.5676
149 3 -4.16215 7.81384 15.0875
309 3 -7.17604 12.857 16.47
88 1 -3.7249 11.4232 12.8309
300 2 -3.56534 12.154 12.0124
114 2 -4.85406 11.3347 13.0894
283 2 -5.61226 10.5416 13.9536
250 2 -5.43145 10.3394 9.89575
166 2 -3.37636 10.1961 12.4414
253 2 -5.2452 9.46126 12.605
142 4 -2.79703 8.13204 15.7167
276 2 -2.72223 12.1426 14.245
93 2 -4.17092 13.1712 13.7242
181 3 -1.89524 6.97752 9.16538
194 2 -3.53914 10.2846 15.9908
262 2 1.60717 7.99831 16.1
167 2 -2.36948 7.38689 12.4761
248 2 -7.13085 11.379 11.3487
119 2 -2.19003 10.5631 9.63594
96 4 -1.59558 11.2731 13.1245
135 3 -0.706504 12.2366 12.0518
38 2 -0.926265 9.2277 9.47431
197 2 -1.92635 9.13411 14.6455
176 1 -1.23952 11.0937 9.464
143 2 -0.889316 11.5998 10.5007
101 4 0.622153 10.1358 9.23471
122 2 0.0870566 9.60109 12.2374
86 2 -7.88456 12.0891 16.0335
112 2 -0.361854 8.17364 13.5008
121 2 -1.89731 9.15202 12.5807
130 1 -0.729553 9.28053 13.1027
123 2 -0.634037 10.3389 14.4704
284 1 -6.30451 9.6302 14.3131
297 2 1.31449 9.07857 11.0698
84 2 -5.75265 13.3908 15.4625
254 2 -7.51314 11.5932 13.247
210 2 -3.45015 13.2659 17.1647
4 4 6.27048 2.7268 3.32373
50 3 7.21069 1.28673 3.0015
57 3 7.23313 4.04351 3.87629
116 2 7.04112 3.84156 6.97694
117 2 5.95524 6.32125 8.27453
128 1 7.0279 5.26798 8.22942
9 4 7.2041 5.60236 4.17616
61 3 8.4853 6.08136 5.15926
99 4 5.46131 4.31327 7.80175
7 4 10.1493 0.66319 5.73658
45 1 5.59705 6.06039 5.08873
109 2 7.97324 5.69011 7.82919
33 2 6.00161 6.17244 6.17145
18 2 8.35573 1.06446 5.58772
274 2 9.36582 2.92623 2.59804
58 3 9.24351 5.18516 1.2444
72 2 13.1395 1.19297 2.22968
295 2 9.26567 1.94836 7.95844
34 2 4.58828 5.36156 5.06594
56 3 11.2841 6.06309 2.75361
73 2 10.5982 1.5795 1.67968
31 2 10.0974 3.58187 4.19532
46 1 12.7128 2.90185 6.89867
62 3 10.6904 5.03613 6.17399
12 4 9.86797 6.4736 5.88157
29 2 12.2899 3.3283 3.42303
44 1 10.3638 3.39971 3.12024
71 4 11.5641 1.76315 3.08152
8 4 10.6301 4.81164 1.96007
11 4 10.9431 3.58548 6.7608
53 3 11.045 0.876915 4.38796
59 3 9.84101 2.47381 6.56088
214 3 9.61216 1.49246 0.437831
30 2 11.8643 4.22687 0.895575
37 2 12.854 1.71818 7.29166
36 2 11.6282 3.64985 8.37847
35 2 12.9567 3.00504 5.81843
28 2 13.0418 0.602053 8.59603
271 3 13.2717 1.05245 11.805
104 2 4.00858 5.93722 9.47969
111 2 4.66045 6.35465 12.6174
278 2 11.4787 4.0322 16.5152
291 2 6.65269 1.61165 8.99328
293 1 7.56116 2.16763 10.4944
294 2 9.01566 1.3846 11.0884
107 2 7.55766 3.22377 10.7903
137 3 6.28736 2.44812 13.1325
139 3 5.11248 4.79661 14.136
190 2 6.44386 6.41164 12.4686
102 4 4.97478 5.57467 15.5369
187 4 8.02563 5.89105 12.9663
140 3 6.36444 5.81899 16.1596
221 4 8.44493 1.14037 9.28379
305 2 8.55524 2.84941 12.7938
307 2 7.74497 4.60383 14.2094
266 4 11.9057 0.943578 12.5971
189 2 8.25054 5.02097 11.3624
308 1 8.85376 3.99757 12.8138
299 2 8.74357 3.12327 14.5162
5 4 9.20676 1.99224 15.8514
105 2 4.31442 6.75434 11.0897
138 3 5.00533 6.89419 11.8641
10 4 7.35375 6.90836 16.9071
52 3 10.8333 1.89866 16.0867
91 4 12.3713 1.46478 16.5856
192 3 9.09047 6.99919 13.3234
113 2 4.16066 7.16377 15.2006
216 2 11.3598 5.46246 16.0634
103 2 9.85983 4.24197 11.3385
306 2 9.9462 4.42031 14.2961
240 4 10.8431 3.85063 12.8161
273 3 11.2686 2.36616 12.8025
55 3 11.7171 4.93929 16.7713
115 2 7.24107 4.76241 9.23704
218 2 6.03795 2.33337 17.104
106 2 8.42678 3.50082 17.2024
239 1 3.34705 10.1952 1.45623
66 3 5.37654 7.90076 1.16811
285 2 7.50017 12.4759 1.18863
232 1 0.895336 11.9381 5.0226
211 4 1.50494 10.1684 4.64844
65 3 7.34802 9.23032 2.45383
68 3 5.94372 9.82315 4.97774
63 3 6.96856 6.5915 2.85328
238 2 2.37257 9.9035 0.904808
54 3 2.97446 12.1161 6.76443
163 2 3.21464 9.77246 5.31362
67 3 9.3837 7.26393 7.25868
302 2 6.39979 11.5778 8.32656
202 2 8.09985 11.0831 5.78793
43 1 5.7427 12.3538 7.83392
212 2 1.02195 12.1153 3.7713
32 2 5.39183 7.08563 4.56078
207 1 6.39734 12.4974 1.2852
237 2 3.07594 10.9815 2.28549
209 2 8.36359 9.91774 1.51916
235 2 4.19354 9.67307 3.13883
286 2 5.98335 11.4328 1.07334
205 2 5.81226 11.6613 2.96299
234 4 4.0147 8.47103 1.88461
6 4 4.11445 11.351 7.77922
15 4 5.61642 9.14741 6.41396
40 2 4.94075 7.5481 6.20913
69 3 7.04276 8.8186 7.1709
70 3 4.64093 9.88855 7.34645
201 4 6.74023 10.4102 3.75631
13 4 6.9247 7.63118 1.60017
14 4 8.32154 8.40199 7.9248
236 2 4.09152 10.5253 0.679761
206 1 8.23096 11.0312 4.63175
64 3 7.86736 7.52314 0.293805
301 2 6.08347 12.8404 6.88472
217 2 0.777966 11.7164 1.14215
224 2 0.737677 11.1562 6.76044
165 2 2.67176 8.10324 4.56071
288 2 3.21901 7.57835 9.51521
186 4 9.57317 7.80955 14.7021
277 2 1.91128 12.2482 14.8492
17 2 0.322428 12.5521 16.0048
127 1 1.00258 12.9077 15.1156
292 2 0.694628 11.9271 9.29663
191 3 8.68425 7.25156 15.9281
298 1 1.55816 10.2982 10.899
263 2 1.9243 10.2197 15.8025
260 2 4.59766 9.67135 15.5258
261 2 3.37629 9.02827 13.1416
269 2 5.95044 10.5435 15.4699
258 4 3.31716 8.72124 14.8715
272 3 3.22107 12.39 11.9216
265 4 3.26971 11.0991 11.1003
47 1 4.70078 9.78057 11.8797
281 2 8.70362 9.80767 15.3868
296 2 1.05237 10.9602 11.7446
256 1 7.51144 11.5382 12.191
21 2 7.81547 7.65825 9.60485
251 2 8.47669 8.06732 11.2092
282 2 8.36502 9.4939 13.5313
82 2 6.37877 10.8129 12.0142
270 3 3.51651 11.249 9.57071
39 2 5.40112 10.1647 10.9434
249 2 7.69463 9.97465 9.95425
303 2 5.65461 12.7129 15.5166
244 2 6.20282 11.3004 13.7733
246 1 5.5101 11.1831 14.6961
275 2 4.42837 11.0844 14.4832
304 2 4.58212 12.8472 14.1837
255 1 8.52797 9.27647 9.74313
268 2 5.01193 10.3148 12.9773
267 2 4.72759 8.62851 11.9236
188 2 0.416368 13.1145 14.1158
ITEM: TIMESTEP
200
ITEM: NUMBER OF ATOMS
310
ITEM: BOX BOUNDS xy xz yz pp pp pp
-8.9189227129867934e+00 1.5435014826195875e+01 -7.6265416956433167e+00
9.8835977962569821e-02 1.3594036454186849e+01 -1.2687661911472270e+00
2.3983829263538503e-01 1.7263561707364509e+01 9.3922900410526866e-01
ITEM: ATOMS id type x y z
74 2 -0.323595 1.41974 2.00597
152 4 -1.05265 5.84104 5.10964
183 3 -0.924999 4.21292 4.31496
27 2 1.87515 3.6824 5.67275
159 2 -1.2024 3.26802 1.72575
154 4 -0.18704 4.12639 2.87779
75 2 0.82789 2.14789 3.49906
76 1 0.377101 2.35527 2.35239
160 2 1.17514 2.5355 1.58507
184 3 0.770809 5.26689 2.42374
182 3 -1.68118 5.79977 6.75572
279 2 1.92257 4.23157 8.34989
227 2 0.58568 1.41576 7.34214
280 2 0.0339455 3.79638 8.69383
25 2 3.08821 2.45496 6.39537
19 2 -2.16732 3.81674 7.4149
48 3 3.14331 1.33802 3.71801
42 1 2.92837 4.04079 5.22952
241 2 3.00606 5.62811 6.14118
26 2 2.81397 4.40029 4.07237
180 3 0.456004 6.4583 5.27323
3 4 3.7293 2.41967 4.75536
49 3 5.28769 2.45321 4.81971
51 3 5.43394 3.25312 2.1664
110 2 4.20393 4.44463 6.56021
215 4 7.02049 0.414772 1.58429
98 4 5.09676 2.85411 0.696634
118 2 2.60613 6.19438 8.70233
223 2 6.1104 1.16019 6.50568
125 2 3.73505 1.7765 0.49289
16 2 4.17615 0.21224 1.3515
78 4 -0.540737 0.904692 11.9127
134 3 4.96005 1.48701 10.9294
100 4 4.99123 3.09546 13.8466
145 2 -1.55711 6.92881 15.3803
108 2 4.96173 2.54903 15.6186
146 2 -1.76984 3.29603 16.4404
245 1 -2.3098 6.43015 12.0881
83 2 0.706096 4.08458 10.8648
132 3 2.83 1.93888 9.26783
173 2 0.752161 5.55455 14.072
124 2 -0.499732 5.9622 15.2937
131 1 0.0342886 6.35682 14.3942
126 2 -0.782003 6.51865 13.5101
289 2 2.28778 3.40076 13.7824
94 4 2.30694 4.79838 10.4661
81 2 0.0629861 3.18518 15.4318
79 4 1.08133 2.19038 14.3995
162 2 -3.07461 5.05645 10.9753
148 1 -1.63312 2.27956 15.7459
242 2 -1.17902 6.32458 11.9413
120 2 2.3493 6.51943 11.2068
90 3 0.330986 1.62806 13.1936
92 2 -0.758768 1.5138 16.0328
290 1 3.12621 1.83259 14.3218
85 2 3.37637 1.89017 15.3997
87 1 1.03963 3.69832 9.16067
89 3 0.261073 1.34929 10.4297
95 4 4.07463 2.49451 10.042
243 2 -3.16119 5.11439 13.0125
147 2 -1.69789 2.55364 14.6509
136 3 5.13506 3.25623 8.99197
133 3 3.45758 3.94749 11.0495
252 2 3.60629 2.75798 12.7598
220 1 4.23162 2.0101 17.2452
77 4 1.22261 1.86058 9.23822
151 4 -2.9044 6.77733 10.4618
141 3 3.98606 4.747 16.5131
129 1 3.13155 6.70759 9.60168
97 4 6.39589 1.47341 11.722
196 2 -1.5695 7.18448 0.436257
233 3 -1.45475 12.9481 7.24465
2 4 -3.46254 7.20885 3.73136
231 1 -6.43156 12.6462 7.39168
168 2 1.4123 9.7528 7.56745
287 2 -6.10151 12.1975 2.29585
226 2 -6.68373 12.1671 6.37022
157 2 -6.83302 12.0124 8.28232
161 2 0.548512 7.21741 0.398491
41 1 -4.17077 11.1321 5.60296
208 4 -5.7963 10.9191 1.04846
200 3 -4.51462 10.0595 1.1924
219 2 -3.64226 11.3357 3.65761
80 2 -4.80303 10.6048 4.75843
225 2 -5.26648 12.783 7.49237
156 2 1.73346 7.9005 7.51473
199 3 -2.92539 8.59631 2.76778
193 4 -3.30948 8.99656 1.30349
170 2 -3.47947 8.20493 6.31663
22 2 -3.72836 10.2291 6.2195
23 2 -4.93996 11.7223 6.32053
164 2 -3.28003 8.93228 8.1638
24 2 -3.37171 11.8978 5.29302
60 3 -4.68898 7.50279 4.8576
153 4 -1.84175 7.11224 7.65432
230 2 -0.900187 11.7788 4.41868
177 1 -2.75016 8.62173 7.0993
169 2 -1.73837 10.0759 6.49638
158 2 -0.914217 8.57152 7.06759
171 2 -1.24407 11.7746 8.65392
213 2 -1.40128 9.91986 0.535182
229 2 0.0955551 9.01523 5.415
228 2 -0.663798 8.42361 1.31019
222 4 -0.828204 11.6645 6.21855
174 2 -0.431057 7.50306 3.07363
172 2 1.23387 9.14822 2.67519
178 1 0.144405 8.02947 2.09217
150 4 1.81608 7.05271 5.84912
155 4 1.3479 6.70238 1.854
175 1 1.77443 8.90267 6.00051
185 3 2.80009 7.31111 1.98086
310 3 -0.220849 11.4443 1.47073
20 2 -5.96095 9.95565 8.33115
204 2 -6.0755 10.7491 4.24693
1 4 -4.40909 12.5749 2.80711
203 2 -7.50562 12.2965 4.25168
211 4 1.40818 9.91094 4.51471
179 3 -2.0351 6.75705 4.22115
259 2 0.708117 9.2189 14.6093
247 4 -5.47975 8.92006 10.97
264 1 1.59742 9.00045 15.4869
198 1 -3.27961 9.81002 16.8922
144 2 0.584403 7.37709 14.6892
257 3 -4.3556 7.85335 10.5058
149 3 -4.17571 7.74573 14.9774
309 3 -7.32141 12.818 16.4958
88 1 -3.8205 11.4201 13.051
300 2 -3.69706 12.317 12.3782
114 2 -4.91551 11.2889 13.4207
283 2 -5.39855 10.4108 14.4099
250 2 -5.47392 10.4616 9.98982
166 2 -3.54942 10.3914 12.4586
253 2 -5.21605 9.36115 12.6441
142 4 -2.83598 8.0991 15.615
276 2 -2.99359 11.6253 14.5412
93 2 -4.20968 13.3378 13.8686
181 3 -1.85923 7.00693 9.24663
194 2 -3.71585 10.2133 15.8299
262 2 1.50506 7.90561 16.1402
167 2 -2.53133 7.52864 12.5388
210 2 -3.64126 13.5619 16.9263
119 2 -1.96122 10.2415 9.54056
96 4 -1.639 11.3011 13.2311
135 3 -0.943916 12.4543 12.0992
38 2 -0.718055 9.15288 9.21541
197 2 -1.71406 9.14966 14.7388
176 1 -1.13714 11.016 9.51686
143 2 -1.0182 11.5426 10.5166
101 4 0.745934 10.1394 9.25538
122 2 0.259707 9.67321 12.3405
86 2 -7.76617 12.0372 16.0034
112 2 -0.436181 8.3217 13.4787
121 2 -1.97857 9.38419 12.4349
130 1 -0.619612 9.37751 13.1342
123 2 -0.445174 10.6805 14.4358
284 1 -6.23462 9.61015 14.3404
297 2 1.43476 9.06615 11.1192
195 2 -4.85561 8.66454 17.2418
84 2 -5.81287 13.4797 15.4072
4 4 6.36047 2.78458 3.4274
50 3 7.03826 1.34365 2.87898
57 3 7.36441 4.11091 3.91128
116 2 7.05171 3.84844 6.81777
117 2 5.87932 6.23179 8.26726
128 1 7.15008 5.1813 8.0275
9 4 7.14906 5.69256 3.94305
61 3 8.46372 6.16123 4.81313
99 4 5.51068 4.30306 7.85911
7 4 10.1173 0.437095 5.63683
45 1 5.43768 6.08316 4.92428
109 2 7.92654 5.89754 7.54992
33 2 5.85591 6.24737 5.93848
18 2 8.3428 0.995446 5.55308
274 2 9.48022 3.56268 3.36586
58 3 9.3009 5.03716 1.20207
72 2 13.1199 1.0502 2.5128
295 2 9.40267 1.68315 7.82627
34 2 4.4598 5.29947 4.96419
56 3 11.3159 6.12116 2.77396
73 2 10.7055 1.72459 1.53059
31 2 11.13 3.98854 4.14977
46 1 12.6127 3.12308 6.83104
62 3 10.4242 5.08878 6.32908
12 4 9.78096 6.5237 5.68721
29 2 12.5331 3.26495 3.41185
44 1 10.6009 3.52528 3.25013
71 4 11.5933 1.81462 3.08037
8 4 10.7457 4.91426 1.93497
11 4 10.7945 3.59706 6.70137
53 3 11.0603 0.831781 4.33393
59 3 9.82417 2.2723 6.46541
214 3 9.61617 1.46322 0.423619
30 2 12.0169 4.51611 0.845259
37 2 12.8883 1.92162 7.04125
36 2 11.5078 3.53375 8.34476
35 2 12.7241 3.43703 5.67254
28 2 13.4899 0.769027 8.51514
63 3 6.9511 6.46567 2.56261
301 2 13.4416 0.497601 6.57429
271 3 13.2986 1.04239 11.8488
104 2 4.22523 6.30512 9.63428
111 2 4.68657 5.91022 12.606
278 2 11.1917 4.23508 16.3107
291 2 6.88628 1.79611 9.08703
293 1 7.6951 2.2098 10.6036
294 2 9.31099 1.683 11.0969
107 2 7.68189 3.3184 10.7982
137 3 6.25822 2.31581 13.1842
139 3 4.98068 4.64954 14.0048
190 2 6.44764 6.47181 12.3596
102 4 4.90571 5.5641 15.5005
187 4 7.95317 5.88964 12.8718
140 3 6.3101 5.83078 16.0541
221 4 8.64642 1.20473 9.3866
305 2 8.73882 2.96258 12.652
307 2 7.63132 4.61742 14.1354
266 4 11.9312 0.921341 12.614
189 2 8.32477 5.02693 11.3024
308 1 8.8895 4.0468 12.857
299 2 8.85695 3.02347 14.4574
5 4 9.16852 1.89029 15.8339
105 2 4.31441 6.73984 11.193
138 3 4.94034 6.69329 12.0614
10 4 7.32182 6.76772 16.9452
52 3 10.8508 1.62736 16.3047
91 4 12.3848 1.48291 16.8091
192 3 9.01655 6.90273 13.3888
113 2 4.01109 7.05981 15.1237
218 2 6.01663 2.32681 17.0696
103 2 10.017 4.5984 11.4022
306 2 9.92094 4.31353 14.4249
240 4 10.8513 3.98134 12.8763
273 3 11.3715 2.45774 12.7806
55 3 11.6086 5.05419 16.6353
115 2 7.508 4.73878 9.04981
106 2 8.24643 3.46363 17.0483
216 2 11.1637 5.59631 15.9571
239 1 3.45369 10.134 1.59049
66 3 5.35707 8.17814 1.03665
285 2 7.55011 12.3391 1.39069
232 1 0.904272 11.8532 5.05162
217 2 0.782486 11.681 1.42861
65 3 7.41801 9.14198 2.59632
68 3 5.89276 9.86122 4.98173
224 2 0.857507 11.2651 6.81691
238 2 2.36435 9.78203 1.29309
54 3 3.09164 12.2838 7.00247
163 2 3.1094 9.71763 4.9557
67 3 9.35876 7.32092 7.10246
302 2 6.49539 11.669 7.58193
202 2 8.104 10.8714 5.74248
43 1 5.75177 12.6053 7.60232
212 2 0.841893 11.8699 3.75388
32 2 5.14728 7.02554 4.32979
207 1 6.37424 12.4215 1.42487
237 2 3.49623 10.9408 2.33422
209 2 8.35266 10.0185 1.67327
235 2 4.2739 9.53638 3.26067
286 2 5.80543 11.3848 1.24799
205 2 5.8082 11.6856 3.09206
234 4 4.06491 8.36469 1.97695
6 4 4.22277 11.4834 7.91906
15 4 5.63258 9.18301 6.32213
40 2 4.85263 7.71877 5.90788
69 3 7.00885 8.85926 7.05694
70 3 4.58532 9.9811 7.18222
201 4 6.81228 10.3866 3.84921
13 4 6.89704 7.64412 1.61479
14 4 8.41717 8.50097 7.89989
236 2 4.14359 10.3602 0.726612
206 1 8.29055 11.154 4.6636
165 2 3.00757 8.04643 4.88446
64 3 7.72278 7.24177 0.348465
288 2 3.15887 7.83452 9.38068
186 4 9.55033 7.78737 14.7398
277 2 1.79621 11.9041 15.5703
17 2 0.170563 12.623 16.4308
127 1 0.939865 12.7206 15.5072
292 2 0.889933 11.988 9.32016
191 3 8.66866 7.36059 16.0491
298 1 1.65202 10.1986 10.8798
263 2 2.06825 9.97846 16.1359
260 2 4.75723 9.48223 15.1568
261 2 3.28513 9.11266 13.1225
269 2 5.94376 10.1588 15.2569
258 4 3.22314 8.61766 14.821
272 3 3.16553 12.4103 11.8989
265 4 3.3475 11.1014 11.0218
47 1 4.69725 9.77518 11.9488
281 2 8.48208 9.74059 15.2686
296 2 1.16899 10.9221 11.6894
256 1 7.41179 11.5794 12.1187
21 2 8.08447 7.60168 9.51876
251 2 8.38905 8.08959 11.1619
282 2 8.5652 9.50817 13.3651
82 2 6.341 10.8818 12.0964
270 3 3.8313 11.3229 9.51832
39 2 5.42861 10.0292 11.144
249 2 7.54003 9.94613 9.74076
303 2 5.60387 12.4701 15.8397
244 2 6.29784 11.4301 13.8319
246 1 5.54583 11.1943 14.7423
275 2 4.50261 11.0834 14.3017
304 2 4.56962 12.8395 14.1797
255 1 8.51041 9.33735 9.71766
268 2 4.97287 10.3201 13.0424
267 2 4.63328 8.62965 12.0754
188 2 0.429509 13.0062 14.456
248 2 8.04898 11.3793 11.1897
254 2 7.98894 11.4292 13.0713
ITEM: TIMESTEP
300
ITEM: NUMBER OF ATOMS
310
ITEM: BOX BOUNDS xy xz yz pp pp pp
-8.9189227129867934e+00 1.5435014826195875e+01 -7.6265416956433167e+00
9.8835977962569821e-02 1.3600777313565581e+01 -1.2687661911472270e+00
2.3983829263538503e-01 1.7263561707364509e+01 9.3969814946196450e-01
ITEM: ATOMS id type x y z
74 2 -0.412731 1.3961 1.91541
152 4 -1.10435 5.87705 5.2017
183 3 -0.844759 4.3198 4.30159
27 2 1.87763 3.84595 5.30474
159 2 -1.14654 3.36602 1.65977
154 4 -0.083134 4.05126 2.91521
75 2 0.88315 2.05504 3.41364
76 1 0.374152 2.3423 2.30953
160 2 1.23544 2.48712 1.55154
184 3 0.809496 5.16595 2.26425
182 3 -1.7384 5.97457 6.70248
279 2 1.6842 4.45584 8.2767
227 2 0.237895 1.43567 7.44366
16 2 4.21532 0.390794 1.53713
25 2 2.98947 2.57272 6.36031
19 2 -2.67231 3.99991 7.77325
48 3 3.11903 1.31096 3.85504
42 1 2.97082 4.10687 5.20389
241 2 3.1548 5.62853 6.13559
26 2 3.28954 4.4155 4.0506
180 3 0.406907 6.43963 5.49941
3 4 3.84454 2.40487 4.84952
49 3 5.45879 2.51148 4.98724
51 3 5.39707 3.30461 2.23131
110 2 4.23762 4.29923 6.58
215 4 7.07208 0.492847 1.55874
98 4 5.12103 3.00583 0.720974
125 2 3.70232 1.93161 0.531715
223 2 5.63405 0.679489 6.59944
280 2 -0.200064 3.77974 8.68647
220 1 5.44925 1.27764 0.343155
225 2 2.34885 0.580658 7.37261