ITEM: TIMESTEP
0
ITEM: NUMBER OF ATOMS
310
ITEM: BOX BOUNDS xy xz yz pp pp pp
-8.9189227129867934e+00 1.5435014826195875e+01 -7.6265416956433167e+00
9.8835977962569821e-02 1.3580554735429383e+01 -1.2687661911472270e+00
2.3983829263538503e-01 1.7263561707364509e+01 9.3829071339187675e-01
ITEM: ATOMS id type x y z
74 2 -0.44457 1.42541 2.04574
152 4 -1.10253 5.70848 5.10044
183 3 -0.683388 4.25022 4.31979
27 2 1.93143 3.90879 5.11773
159 2 -1.25152 3.18142 1.8202
154 4 -0.155046 4.09475 2.82855
75 2 0.638392 2.02896 3.61132
76 1 0.287953 2.24065 2.52801
160 2 1.17553 2.51099 1.80482
184 3 0.765849 5.24267 2.09956
182 3 -1.67203 5.7511 6.73007
279 2 1.51767 4.03219 8.16046
227 2 0.584652 1.83347 7.21701
16 2 4.27578 0.24179 1.55681
25 2 2.88757 2.77979 6.32528
125 2 3.74847 1.51914 0.262683
48 3 2.86318 1.35491 3.75938
42 1 2.97398 4.19476 5.01412
241 2 3.14147 5.72846 5.85176
26 2 3.27778 4.51611 3.84964
180 3 0.381967 6.63136 5.35202
3 4 3.676 2.40364 4.77895
49 3 5.25795 2.42877 4.82402
51 3 5.21435 3.10599 2.10346
110 2 4.20285 4.22489 6.4259
215 4 7.07557 0.381652 1.52293
98 4 5.05474 2.67718 0.587186
179 3 -2.12653 6.51436 4.35277
223 2 5.84767 1.01058 6.51028
19 2 -2.12719 3.67516 7.82448
78 4 -0.501207 0.945596 11.8155
134 3 4.88387 1.58796 11.0817
100 4 5.13461 3.09872 14.0216
145 2 -1.47623 6.94472 15.5167
108 2 5.13885 2.27015 15.6707
146 2 -1.64953 3.19548 16.9711
245 1 -2.05703 6.25028 11.9363
83 2 0.456889 4.26891 10.8009
132 3 2.75024 1.57724 9.27707
173 2 0.863128 5.53691 14.1751
124 2 -0.421583 5.95998 15.371
131 1 0.0305102 6.27215 14.4111
126 2 -0.738456 6.22829 13.4973
289 2 2.47458 3.41069 13.8218
94 4 2.09806 4.74685 10.428
81 2 0.204566 3.2037 15.2093
79 4 1.26554 2.16556 14.2475
162 2 -3.29005 5.27233 10.8694
148 1 -1.44548 2.53518 15.9891
242 2 -1.01186 5.87398 11.6832
120 2 2.05981 6.39125 11.2677
90 3 0.348665 1.49037 13.0684
92 2 -0.61559 1.70475 16.0658
290 1 3.25267 1.69224 14.2094
85 2 3.60926 1.7817 15.3973
87 1 0.899811 3.70305 9.01691
89 3 0.242589 1.2195 10.3914
95 4 4.05156 2.50022 10.112
243 2 -3.02388 4.97944 12.6772
147 2 -1.56638 3.10317 15.0138
136 3 4.85635 3.21368 8.93997
133 3 3.16049 3.82308 11.0956
252 2 3.75042 2.77051 12.8435
280 2 -0.164539 3.96021 8.91883
77 4 1.20751 1.74759 9.13337
118 2 2.30338 6.28341 8.76139
141 3 3.96975 4.76308 16.5552
129 1 2.9979 6.66846 9.70905
220 1 4.25573 1.84488 17.2509
216 2 -3.65645 5.63574 16.4812
84 2 1.90261 0.960447 15.3921
196 2 -1.33824 7.11011 0.54248
233 3 -1.55274 12.8893 7.21143
2 4 -3.5228 7.08603 3.80112
231 1 -6.54152 12.7937 7.4443
168 2 1.33536 9.64133 7.5841
287 2 -6.13372 12.1684 2.16919
226 2 -6.86154 12.2821 6.47311
157 2 -7.06683 12.2351 8.32448
161 2 0.772415 7.697 0.588599
41 1 -4.37007 11.0779 5.73073
208 4 -5.68778 10.9869 0.992821
200 3 -4.39968 10.1373 1.26837
219 2 -3.84605 11.3804 3.82081
80 2 -5.02074 10.7305 4.83833
225 2 -5.41238 12.6735 7.54987
156 2 1.81065 7.94708 7.44813
199 3 -3.11246 8.44541 2.92476
193 4 -3.26937 9.0156 1.48423
170 2 -3.35203 8.0906 6.10694
22 2 -3.74405 10.1208 6.17947
23 2 -5.13497 11.4815 6.56435
164 2 -3.20471 8.96046 7.84459
24 2 -3.61493 11.956 5.44584
60 3 -4.63116 7.63247 5.14671
153 4 -1.79801 7.12786 7.61639
230 2 -0.832608 12.0476 4.36382
177 1 -2.61049 8.57902 6.9323
169 2 -1.57494 10.0154 6.41652
158 2 -0.766212 8.42657 6.80101
171 2 -1.20309 11.7516 8.62207
213 2 -1.2661 9.66736 0.579123
229 2 0.144347 9.027 5.2446
228 2 -0.535316 8.49202 1.51459
222 4 -0.807774 11.6199 6.15223
174 2 -0.25878 7.91681 3.32981
172 2 1.35321 9.45212 2.71808
178 1 0.233991 8.25802 2.37491
150 4 1.80419 7.10396 5.83363
155 4 1.3569 6.8897 2.02911
175 1 1.62335 9.00418 5.93328
185 3 2.82921 7.3005 2.36665
310 3 0.120907 11.4449 1.62927
20 2 -6.023 9.74703 8.26094
204 2 -6.20651 10.4226 4.29104
1 4 -4.53639 12.5937 2.84944
203 2 -7.14901 12.0866 3.85393
195 2 -3.4814 7.74779 0.287667
259 2 0.675622 8.98036 14.2826
247 4 -5.36264 8.98305 11.1178
210 2 -3.52212 13.2496 17.1377
198 1 -3.18574 9.80539 17.0996
144 2 0.523366 7.31352 14.5228
257 3 -4.20351 7.93265 10.8296
149 3 -4.12702 7.75954 15.1609
309 3 -7.26846 12.8679 16.3426
88 1 -3.51296 11.4608 13.0036
300 2 -4.08086 12.343 12.5566
114 2 -4.04828 11.0624 13.9139
283 2 -5.28911 10.3737 14.34
250 2 -5.40697 10.2988 9.84059
166 2 -3.33142 10.4717 12.0691
253 2 -5.24233 9.75971 12.6256
142 4 -2.74665 8.1235 15.7623
276 2 -2.44484 11.9575 14.5631
254 2 -7.33334 11.5066 12.9852
181 3 -1.83181 7.20939 9.22714
194 2 -3.59329 10.3567 16.2227
262 2 1.62723 8.11563 15.9407
167 2 -2.18585 7.2214 12.5727
248 2 -7.20466 11.4902 11.0101
119 2 -2.06206 10.4365 9.49581
96 4 -1.56427 11.2774 13.1566
135 3 -0.78572 12.4151 12.2324
38 2 -0.973182 9.1656 9.3857
197 2 -1.84247 9.11729 14.6427
176 1 -1.11055 11.0605 9.51874
143 2 -0.969508 11.6508 10.5579
101 4 0.64163 9.93877 9.30054
122 2 -2.39423e-05 9.30858 12.1897
151 4 -2.94483 6.98493 10.5027
112 2 -0.622199 7.9682 13.4348
121 2 -1.84989 9.08636 12.4361
130 1 -0.824552 9.05618 12.9593
123 2 -0.434925 10.2318 14.2534
284 1 -6.20399 9.70545 14.3715
297 2 1.66799 8.72679 10.8742
93 2 -4.08209 13.2006 13.8567
86 2 -7.28913 12.0555 15.8022
264 1 1.63077 9.02246 14.9865
4 4 6.22388 2.75195 3.37602
50 3 7.09768 1.36757 2.81502
57 3 7.22808 4.12535 3.63153
116 2 7.15051 3.78305 7.06474
117 2 5.64447 6.03017 8.14679
128 1 7.00362 5.12256 8.142
9 4 7.33739 5.66794 4.04484
61 3 8.6279 6.04283 5.05103
99 4 5.44631 4.09755 7.75156
7 4 10.1862 0.578228 5.76177
45 1 5.67029 6.11149 5.02569
109 2 7.85349 5.83837 7.89361
33 2 6.19326 6.34183 6.0098
18 2 8.33208 1.02633 5.8803
274 2 9.16768 2.8956 2.29769
58 3 9.43822 5.2127 0.950825
72 2 12.9178 1.07541 2.41886
295 2 9.27444 2.05308 7.93952
34 2 4.74651 5.26919 5.00935
56 3 11.232 5.98056 2.81718
73 2 10.2783 1.31728 1.62388
31 2 9.66471 3.94744 3.79063
46 1 12.8188 2.92459 7.10511
62 3 10.7071 5.01173 6.27552
12 4 9.91423 6.40169 5.90553
29 2 11.9212 3.32497 3.57372
44 1 10.0955 3.2882 2.88606
71 4 11.3166 1.71297 3.09153
8 4 10.5826 4.90288 1.94183
11 4 11.0564 3.56482 6.87793
53 3 10.8521 0.925486 4.38879
59 3 10.0323 2.4088 6.65832
214 3 9.45957 1.47897 0.396424
30 2 11.8638 4.24289 0.853793
37 2 12.9751 1.76904 7.43417
36 2 11.5973 3.59747 8.50538
35 2 13.085 3.17964 5.92687
106 2 9.60004 2.5814 0.300948
271 3 13.2317 0.881104 11.8473
104 2 4.04482 6.18078 9.64755
111 2 4.65394 6.27314 12.7129
278 2 11.4848 4.03609 16.4097
291 2 6.54867 1.63053 9.0457
293 1 7.61075 2.17017 10.4967
294 2 9.0302 1.37996 10.9865
107 2 7.706 3.23088 10.6828
137 3 6.43913 2.47754 13.2076
139 3 5.11212 4.65127 14.1901
190 2 6.37687 6.50349 12.587
102 4 4.90446 5.61125 15.5901
187 4 7.99697 5.87578 12.8967
140 3 6.23861 6.13398 16.2378
221 4 8.33549 1.19509 9.20204
305 2 8.64922 2.87302 12.5423
307 2 7.80379 4.57038 14.1646
266 4 11.8118 0.864117 12.5212
189 2 8.41568 5.09261 11.3197
308 1 8.86943 3.95955 12.7637
299 2 8.78183 3.16951 14.4502
5 4 9.27981 2.11775 15.9015
105 2 4.18466 6.80931 11.2728
138 3 4.85703 6.96067 12.0465
10 4 7.29859 7.0889 16.8904
52 3 11.032 1.95841 16.2485
91 4 12.409 1.39656 16.6272
192 3 9.13215 6.91851 13.3153
97 4 6.37371 1.59404 11.7484
188 2 7.9412 1.0776 14.1951
103 2 10.088 4.30253 11.2821
306 2 9.92456 4.41288 14.1869
240 4 10.9075 3.86422 12.7597
273 3 11.3356 2.34764 12.7096
55 3 11.7568 4.78009 16.9652
115 2 7.11324 4.75494 9.21915
218 2 6.12895 2.19622 17.0252
239 1 3.53252 9.90208 1.14336
66 3 5.40458 7.77499 1.16395
285 2 7.32955 12.4439 1.47944
232 1 0.881425 11.984 5.11132
224 2 0.765479 11.1608 6.82349
65 3 7.166 9.55498 2.48559
68 3 5.83817 9.69131 4.89388
63 3 7.1842 6.74928 2.83574
238 2 2.53994 9.27539 0.551955
54 3 3.19217 12.2831 6.89227
163 2 3.07918 9.82636 5.26389
67 3 9.41374 7.08646 7.38493
302 2 6.36919 11.5153 8.32577
202 2 8.13276 11.3217 5.59024
43 1 5.71085 12.3669 8.04888
212 2 0.924358 12.2132 3.71452
32 2 5.46812 7.0786 4.43999
207 1 6.20741 12.4953 1.32796
237 2 3.16824 10.8156 1.61602
209 2 8.38833 10.1573 1.62608
235 2 4.11255 9.68616 2.96238
286 2 5.7043 11.4635 1.26452
205 2 5.82255 11.7873 3.10368
234 4 3.99629 8.2231 1.91312
6 4 4.10175 11.2981 7.81001
15 4 5.60034 9.0584 6.29558
40 2 4.83452 7.53151 6.08552
69 3 6.99125 8.69906 7.13799
70 3 4.5727 9.88733 7.10858
201 4 6.70305 10.4243 3.75381
13 4 6.92316 7.79504 1.7385
14 4 8.42147 8.24648 7.96791
165 2 2.66579 8.13656 4.64803
206 1 8.27484 11.1208 4.47586
64 3 7.9425 7.4756 0.539648
301 2 6.12299 12.7824 7.09444
217 2 0.915411 11.7703 1.16928
236 2 4.37014 10.1978 0.42804
211 4 1.4349 10.2243 4.47933
288 2 3.10129 7.77566 9.67797
186 4 9.61223 7.8517 14.6723
277 2 1.93728 12.5467 14.5332
17 2 0.560275 12.5911 15.7762
127 1 1.06624 13.1853 14.9598
292 2 0.693975 11.915 9.23795
191 3 8.45277 7.53563 15.7918
298 1 1.62177 10.0313 10.8397
263 2 1.71337 10.1418 15.5318
260 2 4.35338 10.0962 15.5895
261 2 3.59626 9.29107 13.112
269 2 6.05585 10.3092 15.1148
258 4 3.41894 8.78543 14.7816
272 3 3.06999 12.3833 11.7086
265 4 3.2541 11.0327 10.9206
47 1 4.79125 9.90074 11.6473
281 2 8.58134 9.80899 15.3457
296 2 1.07771 10.6479 11.6749
256 1 7.56114 11.6103 11.9564
21 2 7.90236 7.55719 9.64765
251 2 8.40244 8.26737 11.3816
282 2 8.65249 9.53694 13.3869
82 2 6.53478 10.9654 11.8607
270 3 3.52095 11.2095 9.38223
39 2 5.47517 10.2785 10.7163
249 2 7.63435 9.84551 9.83481
303 2 5.51251 12.5925 15.5289
244 2 6.34831 11.2951 13.5171
246 1 5.59192 11.1206 14.4614
275 2 4.60861 10.8584 14.085
304 2 4.44191 12.6419 14.0771
255 1 8.54008 9.21783 9.80328
268 2 5.17004 10.3154 12.6484
267 2 4.83781 8.70252 11.7189
28 2 5.45744 13.0787 8.88113
113 2 4.12321 7.19289 15.1582
ITEM: TIMESTEP
100
ITEM: NUMBER OF ATOMS
310
ITEM: BOX BOUNDS xy xz yz pp pp pp
-8.9104108512794280e+00 1.5435014826195875e+01 -7.6265416956433167e+00
9.8835977962569821e-02 1.3580554735429383e+01 -1.2602543294398618e+00
2.3983829263538503e-01 1.7263561707364509e+01 9.3829071339187675e-01
ITEM: ATOMS id type x y z
74 2 -0.248033 1.46774 1.99372
152 4 -1.10943 5.74917 5.13542
183 3 -0.852955 4.28647 4.29133
27 2 1.87076 3.8822 5.45893
159 2 -1.06917 3.15383 1.65096
154 4 -0.141725 4.08502 2.84788
75 2 0.790639 2.08196 3.61327
76 1 0.484794 2.30396 2.46611
160 2 1.38011 2.49652 1.80137
184 3 0.725522 5.23739 2.08752
182 3 -1.73897 5.7319 6.70421
279 2 1.75563 3.90205 8.01625
227 2 0.46279 1.57991 7.41578
16 2 4.27154 0.247739 1.51838
25 2 2.93328 2.64846 6.30456
19 2 -2.17397 3.50615 7.59821
48 3 2.95959 1.32474 3.76317
42 1 2.93205 4.23631 5.16482
241 2 3.05765 5.84235 6.13009
26 2 3.0197 4.45782 3.99359
180 3 0.36886 6.52723 5.36957
3 4 3.71965 2.47709 4.71311
49 3 5.25946 2.39643 4.80905
51 3 5.2358 3.04132 2.05924
110 2 4.1829 4.45648 6.54445
215 4 7.07696 0.409243 1.60837
98 4 5.012 2.69952 0.547562
179 3 -2.27017 6.53723 4.34901
223 2 5.48564 0.81091 6.51957
125 2 3.7496 1.56723 0.275815
78 4 -0.606608 0.797288 11.8258
134 3 5.00409 1.51876 10.9662
100 4 5.08838 3.044 13.9865
145 2 -1.46906 6.98133 15.4908
108 2 5.13744 2.15541 15.5785
146 2 -1.65502 3.13217 16.8609
245 1 -2.21325 6.30809 11.9024
83 2 0.623808 4.08371 10.9016
132 3 2.78308 1.71851 9.42798
173 2 0.865979 5.71872 14.042
124 2 -0.425747 5.96139 15.3497
131 1 0.0170227 6.36821 14.3541
126 2 -0.859276 6.40657 13.4274
289 2 2.35155 3.40745 13.9212
94 4 2.18851 4.77107 10.4999
81 2 0.323956 3.13063 15.5187
79 4 1.19864 2.13605 14.3873
162 2 -3.37638 5.19741 10.8836
148 1 -1.48335 2.38612 15.9262
242 2 -1.12905 5.97542 11.7099
120 2 2.15967 6.42859 11.2683
90 3 0.269072 1.68649 13.1963
92 2 -0.602089 1.60842 16.087
290 1 3.20535 1.70276 14.2706
85 2 3.57925 1.67159 15.4107
87 1 1.13584 3.77619 9.07018
89 3 0.256071 1.37236 10.2829
95 4 4.17225 2.57302 10.0894
243 2 -3.12342 5.0196 12.6715
147 2 -1.52632 2.83224 14.9019
136 3 5.02515 3.34434 8.95721
133 3 3.43114 3.87889 10.8577
252 2 3.66523 2.75421 12.8989
280 2 -0.0152157 3.90033 8.94479
77 4 1.23722 1.90244 9.21516
151 4 -2.96718 6.86861 10.3476
141 3 3.89049 4.63473 16.325
129 1 3.03907 6.47359 9.59945
220 1 4.30147 1.86832 17.2416
97 4 6.37735 1.50785 11.7493
118 2 2.26782 6.16144 8.76746
196 2 -1.43409 7.18034 0.489433
233 3 -1.29572 12.9126 7.15613
2 4 -3.53581 7.18145 3.7746
231 1 -6.39868 12.7527 7.45541
168 2 1.39051 9.69183 7.67293
287 2 -6.07221 11.8989 2.41607
226 2 -6.89497 12.1238 6.64879
157 2 -6.49215 12.1614 8.40999
161 2 0.728843 7.66435 0.528699
41 1 -4.3417 11.0219 5.59786
208 4 -5.71454 10.8901 0.98161
200 3 -4.3839 10.0264 1.16583
219 2 -3.84488 11.2537 3.69235
80 2 -4.92518 10.5129 4.69807
225 2 -5.35601 12.9567 7.16943
156 2 2.00907 8.08736 7.46486
199 3 -2.9141 8.55892 2.8514
193 4 -3.17597 9.04552 1.35437
170 2 -3.51065 8.27425 6.25927
22 2 -3.89425 10.1178 6.21857
23 2 -5.11077 11.6431 6.31307
164 2 -3.40045 8.84836 8.05264
24 2 -3.55712 11.7912 5.30531
60 3 -4.58803 7.61421 4.91577
153 4 -1.78404 7.15676 7.63711
230 2 -0.911933 12.0069 4.36915
177 1 -2.78485 8.61179 7.12272
169 2 -1.91559 10.1063 6.56944
158 2 -0.921061 8.67687 7.1697
171 2 -1.29444 11.8694 8.55804
213 2 -1.22265 9.92412 0.634345
229 2 0.127653 9.02764 5.34348
228 2 -0.568025 8.45762 1.47415
222 4 -0.906295 11.6143 6.10432
174 2 -0.412065 7.62108 3.20738
172 2 1.10833 9.47587 2.827
178 1 0.142541 8.14519 2.35516
150 4 1.79518 7.05487 5.78922
155 4 1.36097 6.82502 1.92732
175 1 1.79878 8.89369 5.98191
185 3 2.86012 7.33555 2.21337
310 3 -0.0882777 11.3878 1.606
20 2 -6.0401 9.87831 8.35678
204 2 -6.26469 10.5163 4.3591
1 4 -4.503 12.6003 2.83471
203 2 -7.35684 12.1822 4.07995
195 2 -3.36632 7.70126 0.263929
259 2 0.747895 9.14886 14.4896
247 4 -5.35697 8.85799 10.9917
264 1 1.61664 9.05596 15.3071
198 1 -3.12887 9.8991 17.0591
144 2 0.535459 7.449 14.6753
257 3 -4.1578 7.91803 10.5676
149 3 -4.15472 7.80998 15.0875
309 3 -7.16792 12.8506 16.47
88 1 -3.71861 11.4176 12.8309
300 2 -3.55945 12.148 12.0124
114 2 -4.84763 11.3291 13.0894
283 2 -5.60541 10.5363 13.9536
250 2 -5.42662 10.3343 9.89575
166 2 -3.37026 10.1911 12.4414
253 2 -5.23902 9.45658 12.605
142 4 -2.78929 8.12803 15.7167
276 2 -2.71523 12.1366 14.245
93 2 -4.16417 13.1647 13.7242
181 3 -1.89078 6.97408 9.16538
194 2 -3.53126 10.2795 15.9908
262 2 1.6151 7.99436 16.1
167 2 -2.36336 7.38324 12.4761
248 2 -7.12529 11.3734 11.3487
119 2 -2.18533 10.5579 9.63594
96 4 -1.58913 11.2676 13.1245
135 3 -0.700598 12.2306 12.0518
38 2 -0.921648 9.22314 9.47431
197 2 -1.91915 9.1296 14.6455
176 1 -1.23491 11.0882 9.464
143 2 -0.884186 11.5941 10.5007
101 4 0.626651 10.1308 9.23471
122 2 0.0930554 9.59634 12.2374
86 2 -7.87666 12.0831 16.0335
112 2 -0.355223 8.16961 13.5008
121 2 -1.89114 9.1475 12.5807
130 1 -0.723121 9.27594 13.1027
123 2 -0.626922 10.3338 14.4704
284 1 -6.29748 9.62544 14.3131
297 2 1.3199 9.07408 11.0698
84 2 -5.74503 13.3842 15.4625
254 2 -7.50663 11.5874 13.247
210 2 -3.44168 13.2593 17.1647
4 4 6.27202 2.72548 3.32373
50 3 7.21207 1.28614 3.0015
57 3 7.23495 4.04153 3.87629
116 2 7.04449 3.83969 6.97694
117 2 5.95926 6.31814 8.27453
128 1 7.03189 5.2654 8.22942
9 4 7.20607 5.59961 4.17616
61 3 8.48776 6.07837 5.15926
99 4 5.46509 4.31116 7.80175
7 4 10.152 0.662908 5.73658
45 1 5.59948 6.05741 5.08873
109 2 7.97703 5.68732 7.82919
33 2 6.00458 6.16941 6.17145
18 2 8.3584 1.06398 5.58772
274 2 9.367 2.92481 2.59804
58 3 9.24401 5.18262 1.2444
72 2 13.1405 1.19242 2.22968
295 2 9.26953 1.94743 7.95844
34 2 4.5907 5.35893 5.06594
56 3 11.2853 6.06011 2.75361
73 2 10.5989 1.57876 1.67968
31 2 10.0994 3.58013 4.19532
46 1 12.7162 2.90044 6.89867
62 3 10.6934 5.03366 6.17399
12 4 9.87079 6.47041 5.88157
29 2 12.2915 3.32669 3.42303
44 1 10.3653 3.39806 3.12024
71 4 11.5655 1.76232 3.08152
8 4 10.6309 4.80928 1.96007
11 4 10.9463 3.58373 6.7608
53 3 11.0471 0.876526 4.38796
59 3 9.84417 2.47262 6.56088
214 3 9.61226 1.49176 0.437831
30 2 11.8647 4.2248 0.895575
37 2 12.8575 1.71737 7.29166
36 2 11.6323 3.64808 8.37847
35 2 12.9595 3.00359 5.81843
28 2 13.046 0.601801 8.59603
271 3 13.2775 1.05197 11.805
104 2 4.0132 5.9343 9.47969
111 2 4.66664 6.35152 12.6174
278 2 11.4869 4.03023 16.5152
291 2 6.65707 1.61089 8.99328
293 1 7.56628 2.1666 10.4944
294 2 9.02109 1.38396 11.0884
107 2 7.56293 3.22221 10.7903
137 3 6.2938 2.44695 13.1325
139 3 5.11943 4.79426 14.136
190 2 6.44997 6.40849 12.4686
102 4 4.98243 5.57194 15.5369
187 4 8.032 5.88816 12.9663
140 3 6.3724 5.81613 16.1596
221 4 8.44945 1.13985 9.28379
305 2 8.56151 2.84803 12.7938
307 2 7.75196 4.60158 14.2094
266 4 11.9118 0.943156 12.5971
189 2 8.2561 5.01851 11.3624
308 1 8.86005 3.99562 12.8138
299 2 8.75071 3.12176 14.5162
5 4 9.21456 1.9913 15.8514
105 2 4.31984 6.75101 11.0897
138 3 5.01115 6.89079 11.8641
10 4 7.36209 6.90496 16.9071
52 3 10.8412 1.89776 16.0867
91 4 12.3795 1.4641 16.5856
192 3 9.09702 6.99574 13.3234
113 2 4.16814 7.16024 15.2006
216 2 11.3677 5.45978 16.0634
103 2 9.86538 4.2399 11.3385
306 2 9.95323 4.41815 14.2961
240 4 10.8494 3.84875 12.8161
273 3 11.2749 2.36503 12.8025
55 3 11.7254 4.93687 16.7713
115 2 7.24557 4.76008 9.23704
218 2 6.04638 2.33226 17.104
106 2 8.43526 3.49912 17.2024
239 1 3.34766 10.1902 1.45623
66 3 5.37701 7.89687 1.16811
285 2 7.50064 12.4697 1.18863
232 1 0.897727 11.9321 5.0226
211 4 1.50714 10.1633 4.64844
65 3 7.34912 9.22575 2.45383
68 3 5.94609 9.81829 4.97774
63 3 6.96987 6.58825 2.85328
238 2 2.3729 9.8986 0.904808
54 3 2.97773 12.1101 6.76443
163 2 3.21718 9.76763 5.31362
67 3 9.38721 7.26035 7.25868
302 2 6.40383 11.572 8.32656
202 2 8.10263 11.0776 5.78793
43 1 5.7465 12.3476 7.83392
212 2 1.02371 12.1093 3.7713
32 2 5.39399 7.08214 4.56078
207 1 6.39786 12.4912 1.2852
237 2 3.07696 10.9761 2.28549
209 2 8.36423 9.91283 1.51916
235 2 4.19499 9.66829 3.13883
286 2 5.98377 11.4271 1.07334
205 2 5.81362 11.6556 2.96299
234 4 4.01552 8.46684 1.88461
6 4 4.11822 11.3453 7.77922
15 4 5.6195 9.14289 6.41396
40 2 4.94373 7.54438 6.20913
69 3 7.04622 8.81424 7.1709
70 3 4.64448 9.88366 7.34645
201 4 6.74199 10.405 3.75631
13 4 6.92538 7.62742 1.60017
14 4 8.32538 8.39784 7.9248
236 2 4.09174 10.5201 0.679761
206 1 8.23316 11.0258 4.63175
64 3 7.86739 7.51943 0.293805
301 2 6.0868 12.834 6.88472
217 2 0.778417 11.7106 1.14215
224 2 0.740937 11.1507 6.76044
165 2 2.67392 8.09924 4.56071
288 2 3.22364 7.57461 9.51521
186 4 9.5804 7.8057 14.7021
277 2 1.91859 12.2422 14.8492
17 2 0.33031 12.5458 16.0048
127 1 1.01002 12.9013 15.1156
292 2 0.699156 11.9212 9.29663
191 3 8.69209 7.24799 15.9281
298 1 1.56349 10.2931 10.899
263 2 1.93208 10.2146 15.8025
260 2 4.6053 9.66657 15.5258
261 2 3.38274 9.02381 13.1416
269 2 5.95806 10.5383 15.4699
258 4 3.32447 8.71693 14.8715
272 3 3.22691 12.3839 11.9216
265 4 3.27514 11.0936 11.1003
47 1 4.7066 9.77573 11.8797
281 2 8.71119 9.80282 15.3868
296 2 1.05812 10.9548 11.7446
256 1 7.51742 11.5324 12.191
21 2 7.82015 7.65447 9.60485
251 2 8.48218 8.06333 11.2092
282 2 8.37166 9.48921 13.5313
82 2 6.38465 10.8075 12.0142
270 3 3.52118 11.2434 9.57071
39 2 5.40647 10.1597 10.9434
249 2 7.69949 9.96971 9.95425
303 2 5.66225 12.7066 15.5166
244 2 6.20959 11.2948 13.7733
246 1 5.51733 11.1776 14.6961
275 2 4.4355 11.0789 14.4832
304 2 4.58909 12.8409 14.1837
255 1 8.53272 9.27188 9.74313
268 2 5.0183 10.3097 12.9773
267 2 4.73343 8.62425 11.9236
188 2 0.423306 13.108 14.1158
ITEM: TIMESTEP
200
ITEM: NUMBER OF ATOMS
310
ITEM: BOX BOUNDS xy xz yz pp pp pp
-8.9018989895720626e+00 1.5435014826195875e+01 -7.6265416956433167e+00
9.8835977962569821e-02 1.3580554735429383e+01 -1.2517424677324964e+00
2.3983829263538503e-01 1.7263561707364509e+01 9.3829071339187675e-01
ITEM: ATOMS id type x y z
74 2 -0.321756 1.41705 2.0061
152 4 -1.04768 5.83489 5.10936
183 3 -0.921087 4.20593 4.31425
27 2 1.87999 3.68271 5.67624
159 2 -1.19924 3.26257 1.72711
154 4 -0.185244 4.12069 2.87782
75 2 0.830647 2.14204 3.49625
76 1 0.38051 2.3485 2.35215
160 2 1.17834 2.52489 1.58359
184 3 0.772274 5.2605 2.42247
182 3 -1.67451 5.79234 6.75552
279 2 1.96031 4.2439 8.34617
227 2 0.542931 1.47483 7.29277
280 2 0.0456833 3.78883 8.68648
25 2 3.09506 2.45104 6.39627
19 2 -2.1615 3.81349 7.41776
48 3 3.14676 1.33597 3.71907
42 1 2.9334 4.03669 5.2312
241 2 3.01382 5.62079 6.1451
26 2 2.81599 4.39549 4.07428
180 3 0.461956 6.45157 5.27243
3 4 3.73317 2.41654 4.75654
49 3 5.2906 2.45125 4.82032
51 3 5.43617 3.25039 2.16731
110 2 4.21037 4.44224 6.56104
215 4 7.02227 0.412932 1.58311
98 4 5.0971 2.85141 0.6971
118 2 2.61257 6.19009 8.70739
223 2 6.11751 1.16185 6.50854
125 2 3.73459 1.7746 0.491091
16 2 4.18065 0.209971 1.35411
78 4 -0.527745 0.904082 11.9117
134 3 4.9702 1.48473 10.9287
100 4 5.00381 3.09264 13.8467
145 2 -1.54161 6.91938 15.3807
108 2 4.97741 2.54614 15.6205
146 2 -1.75413 3.29665 16.4421
245 1 -2.29707 6.42435 12.0886
83 2 0.714186 4.07831 10.8613
132 3 2.83879 1.93615 9.26771
173 2 0.769013 5.54776 14.0712
124 2 -0.482874 5.95256 15.2945
131 1 0.0489409 6.34711 14.3935
126 2 -0.768011 6.50672 13.5117
289 2 2.30472 3.40024 13.7837
94 4 2.31633 4.79478 10.465
81 2 0.080113 3.18578 15.429
79 4 1.09534 2.18995 14.3992
162 2 -3.06024 5.05042 10.9807
148 1 -1.6176 2.27873 15.7458
242 2 -1.17065 6.31787 11.9415
120 2 2.35853 6.51572 11.2013
90 3 0.34486 1.62777 13.1931
92 2 -0.742525 1.51272 16.0328
290 1 3.14 1.83068 14.3228
85 2 3.39215 1.88701 15.4046
87 1 1.04804 3.68628 9.16463
89 3 0.270576 1.34675 10.4303
95 4 4.08338 2.49098 10.0417
243 2 -3.15171 5.11504 13.0183
147 2 -1.68311 2.55366 14.6511
136 3 5.1424 3.25316 8.99191
133 3 3.46672 3.94462 11.0509
252 2 3.61724 2.75392 12.7578
220 1 4.24819 2.00709 17.2443
77 4 1.2344 1.85935 9.23932
151 4 -2.89282 6.77035 10.462
141 3 4.00209 4.74299 16.5139
129 1 3.14156 6.70494 9.60129
97 4 6.40723 1.47186 11.7211
196 2 -1.57061 7.17666 0.436324
233 3 -1.44764 12.9377 7.24541
2 4 -3.45902 7.20291 3.73208
231 1 -6.41871 12.6451 7.39744
168 2 1.41639 9.74447 7.56451
287 2 -6.10182 12.1862 2.29393
226 2 -6.65831 12.1546 6.37687
157 2 -6.83805 12.0219 8.28013
161 2 0.54936 7.213 0.39708
41 1 -4.16524 11.1232 5.60405
208 4 -5.79582 10.9089 1.04763
200 3 -4.51415 10.05 1.19192
219 2 -3.63924 11.3252 3.66149
80 2 -4.79135 10.585 4.75799
225 2 -5.26021 12.7951 7.52442
156 2 1.74324 7.894 7.5124
199 3 -2.92109 8.59047 2.76816
193 4 -3.30789 8.98876 1.30368
170 2 -3.47821 8.19621 6.30979
22 2 -3.72095 10.22 6.22744
23 2 -4.93659 11.7161 6.31978
164 2 -3.27451 8.92146 8.16333
24 2 -3.3687 11.8876 5.28916
60 3 -4.68461 7.4976 4.85689
153 4 -1.8344 7.10382 7.6553
230 2 -0.893188 11.7673 4.41943
177 1 -2.74555 8.61217 7.10222
169 2 -1.73617 10.0657 6.50215
158 2 -0.908543 8.55837 7.06761
171 2 -1.23504 11.7629 8.65337
213 2 -1.40304 9.91137 0.533202
229 2 0.0938623 9.00555 5.41278
228 2 -0.662501 8.41583 1.30731
222 4 -0.822996 11.6553 6.21918
174 2 -0.428708 7.49507 3.07238
172 2 1.23338 9.14022 2.67509
178 1 0.146021 8.02248 2.09136
150 4 1.82209 7.04511 5.84903
155 4 1.34952 6.6959 1.85267
175 1 1.78171 8.89336 5.99894
185 3 2.80239 7.30397 1.98176
310 3 -0.217923 11.4317 1.47018
20 2 -5.95386 9.94862 8.3311
204 2 -6.05786 10.7569 4.24755
1 4 -4.40755 12.5617 2.80751
203 2 -7.50514 12.2816 4.29009
211 4 1.41309 9.90092 4.51418
179 3 -2.03163 6.75069 4.22122
259 2 0.720394 9.20856 14.6087
247 4 -5.46999 8.91208 10.9703
264 1 1.61095 8.99081 15.4884
198 1 -3.26306 9.8004 16.8911
144 2 0.597475 7.36775 14.6899
257 3 -4.34608 7.84536 10.5065
149 3 -4.1607 7.73847 14.9761
309 3 -7.30568 12.8059 16.4942
88 1 -3.80701 11.4083 13.0499
300 2 -3.68232 12.3048 12.376
114 2 -4.9015 11.2778 13.4198
283 2 -5.38358 10.4003 14.4071
250 2 -5.4645 10.4511 9.99065
166 2 -3.53644 10.3784 12.4598
253 2 -5.20475 9.35182 12.6461
142 4 -2.81979 8.08867 15.6151
276 2 -2.98083 11.6147 14.5404
93 2 -4.1953 13.3235 13.868
181 3 -1.84806 6.99863 9.24696
194 2 -3.7005 10.2008 15.8277
262 2 1.52071 7.89631 16.1388
167 2 -2.51809 7.52606 12.5355
210 2 -3.62467 13.5446 16.9295
119 2 -1.95235 10.2307 9.53992
96 4 -1.6264 11.2896 13.2313
135 3 -0.931786 12.4412 12.0989
38 2 -0.708296 9.14135 9.21927
197 2 -1.69759 9.14072 14.7403
176 1 -1.12706 11.0045 9.5167
143 2 -1.00869 11.5303 10.5171
101 4 0.755606 10.1284 9.25625
122 2 0.270199 9.66208 12.3409
86 2 -7.74819 12.0245 16.0059
112 2 -0.42369 8.31157 13.4767
121 2 -1.96634 9.37375 12.4354
130 1 -0.607668 9.36661 13.1342
123 2 -0.430314 10.6685 14.4359
284 1 -6.2216 9.60133 14.3415
297 2 1.44718 9.05408 11.1195
195 2 -4.83583 8.65523 17.2436
84 2 -5.79747 13.4664 15.4063
4 4 6.36358 2.78095 3.42704
50 3 7.03977 1.34214 2.87807
57 3 7.37007 4.1056 3.91143
116 2 7.06009 3.84361 6.81602
117 2 5.88726 6.22565 8.26602
128 1 7.15871 5.17553 8.02644
9 4 7.15332 5.68698 3.94314
61 3 8.46814 6.15542 4.81332
99 4 5.51816 4.29787 7.85867
7 4 10.123 0.436684 5.637
45 1 5.44161 6.07572 4.92379
109 2 7.93533 5.89054 7.54734
33 2 5.86195 6.23953 5.93701
18 2 8.34557 0.992426 5.55194
274 2 9.48213 3.55681 3.36343
58 3 9.30159 5.0317 1.20187
72 2 13.1257 1.05197 2.51188
295 2 9.41217 1.68194 7.82748
34 2 4.46694 5.29279 4.96404
56 3 11.3181 6.11583 2.77347
73 2 10.7055 1.7209 1.53066
31 2 11.1318 3.98488 4.14972
46 1 12.6195 3.11967 6.83147
62 3 10.4317 5.08698 6.32858
12 4 9.78619 6.51847 5.68768
29 2 12.5342 3.26374 3.41479
44 1 10.6026 3.52103 3.24854
71 4 11.597 1.81228 3.07994
8 4 10.7475 4.90966 1.93462
11 4 10.8021 3.5949 6.70121
53 3 11.0668 0.828943 4.33314
59 3 9.83146 2.27189 6.46467
214 3 9.61646 1.46162 0.424753
30 2 12.0189 4.51042 0.846291
37 2 12.8939 1.91783 7.04304
36 2 11.5165 3.53025 8.34679
35 2 12.7348 3.43398 5.67173
28 2 13.5 0.76915 8.51304
63 3 6.95424 6.45862 2.56191
301 2 13.4515 0.495836 6.5724
271 3 13.3101 1.04012 11.8502
104 2 4.23293 6.29793 9.63437
111 2 4.69856 5.90306 12.605
278 2 11.2101 4.22771 16.3133
291 2 6.90162 1.79808 9.0862
293 1 7.70566 2.21081 10.6005
294 2 9.31901 1.68311 11.0924
107 2 7.68966 3.31727 10.799
137 3 6.27046 2.31343 13.1831
139 3 4.99445 4.64575 14.0054
190 2 6.45959 6.46632 12.3595
102 4 4.9208 5.55898 15.5011
187 4 7.96556 5.88397 12.8718
140 3 6.32653 5.82482 16.0536
221 4 8.65748 1.20381 9.38676
305 2 8.75333 2.95836 12.6525
307 2 7.64523 4.61243 14.1361
266 4 11.9426 0.920083 12.614
189 2 8.33563 5.02321 11.3027
308 1 8.90245 4.04343 12.8578
299 2 8.87037 3.02192 14.4626
5 4 9.18395 1.88852 15.8345
105 2 4.32563 6.73448 11.1929
138 3 4.95178 6.68654 12.0611
10 4 7.3394 6.7613 16.9439
52 3 10.8667 1.62536 16.305
91 4 12.4011 1.48149 16.8085
192 3 9.02954 6.89577 13.3887
113 2 4.02525 7.0535 15.1246
218 2 6.03253 2.32323 17.0697
103 2 10.0288 4.59712 11.4038
306 2 9.93455 4.31115 14.4255
240 4 10.8634 3.9794 12.8771
273 3 11.3837 2.4558 12.7809
55 3 11.6257 5.04854 16.6347
115 2 7.51641 4.73393 9.04828
106 2 8.26241 3.45991 17.05
216 2 11.1782 5.58705 15.9558
239 1 3.45494 10.1253 1.58958
66 3 5.35731 8.17034 1.03726
285 2 7.54753 12.3229 1.38616
232 1 0.908626 11.8404 5.05277
217 2 0.78654 11.6689 1.43076
65 3 7.42121 9.12928 2.59348
68 3 5.89365 9.84923 4.98427
224 2 0.864721 11.2556 6.81396
238 2 2.36443 9.77427 1.29127
54 3 3.09755 12.2721 7.00374
163 2 3.11848 9.70939 4.95396
67 3 9.36474 7.31493 7.10417
302 2 6.50283 11.6577 7.58166
202 2 8.06577 10.7832 5.74019
43 1 5.76076 12.5924 7.6013
212 2 0.841914 11.8551 3.74945
32 2 5.148 7.01848 4.33033
207 1 6.37518 12.4079 1.42329
237 2 3.49642 10.9306 2.33544
209 2 8.35592 10.0056 1.66871
235 2 4.2745 9.52959 3.26066
286 2 5.80469 11.3701 1.24621
205 2 5.807 11.6879 3.08685
234 4 4.0656 8.35769 1.9766
6 4 4.23025 11.4727 7.9192
15 4 5.63754 9.17251 6.32412
40 2 4.85982 7.71082 5.90955
69 3 7.01585 8.85086 7.05664
70 3 4.59197 9.97132 7.18371
201 4 6.81079 10.3789 3.84849
13 4 6.89857 7.63674 1.61427
14 4 8.42461 8.49362 7.89907
236 2 4.1419 10.3545 0.728867
206 1 8.30124 11.1421 4.66093
165 2 3.01354 8.03652 4.88423
64 3 7.72375 7.23613 0.34797
288 2 3.173 7.83285 9.38069
186 4 9.56508 7.78001 14.7391
277 2 1.8129 11.8917 15.5685
17 2 0.18512 12.6031 16.4311
127 1 0.954848 12.7069 15.5069
292 2 0.900459 11.9782 9.32073
191 3 8.68568 7.35147 16.049
298 1 1.6631 10.1858 10.8783
263 2 2.07882 9.96795 16.1391
260 2 4.76936 9.47306 15.1581
261 2 3.30116 9.09985 13.1211
269 2 5.96005 10.1488 15.2566
258 4 3.23614 8.61091 14.8218
272 3 3.17625 12.3975 11.8993
265 4 3.35792 11.0904 11.0225
47 1 4.71041 9.76492 11.9482
281 2 8.49555 9.72951 15.274
296 2 1.1767 10.908 11.6859
256 1 7.4265 11.5669 12.1178
21 2 8.09222 7.59634 9.51925
251 2 8.39802 8.08199 11.1635
282 2 8.5783 9.50476 13.3663
82 2 6.3551 10.8709 12.0956
270 3 3.84029 11.3131 9.51931
39 2 5.44316 10.0195 11.1431
249 2 7.5486 9.93781 9.74201
303 2 5.62146 12.4576 15.84
244 2 6.31278 11.4182 13.8323
246 1 5.56193 11.1822 14.7411
275 2 4.51714 11.0707 14.2999
304 2 4.58138 12.8261 14.1801
255 1 8.5192 9.32942 9.71705
268 2 4.98565 10.3108 13.0412
267 2 4.65109 8.61938 12.0749
188 2 0.442861 12.9902 14.458
248 2 8.06387 11.3684 11.1893
254 2 8.00261 11.4178 13.0715
ITEM: TIMESTEP
300
ITEM: NUMBER OF ATOMS
310
ITEM: BOX BOUNDS xy xz yz pp pp pp
-8.8933871278647008e+00 1.5435014826195875e+01 -7.6265416956433167e+00
9.8835977962569821e-02 1.3580554735429383e+01 -1.2432306060251346e+00
2.3983829263538503e-01 1.7263561707364509e+01 9.3829071339187675e-01
ITEM: ATOMS id type x y z
74 2 -0.403094 1.39431 1.91664
152 4 -1.09549 5.86412 5.19798
183 3 -0.838967 4.3078 4.29777
27 2 1.88875 3.84408 5.3096
159 2 -1.1411 3.35425 1.66018
154 4 -0.0806186 4.04011 2.91113
75 2 0.877157 2.05034 3.40688
76 1 0.381611 2.32551 2.30963
160 2 1.24015 2.4653 1.55673
184 3 0.811268 5.1542 2.26034
182 3 -1.72879 5.96225 6.70211
279 2 1.77629 4.45439 8.20205
227 2 0.274041 1.51361 7.45757
16 2 4.20394 0.381054 1.54636
25 2 2.9951 2.56725 6.35804
19 2 -2.65526 3.99649 7.7796
48 3 3.12006 1.31151 3.85189
42 1 2.97967 4.10471 5.20711
241 2 3.17883 5.62215 6.13853
26 2 3.30709 4.40228 4.04506
180 3 0.413664 6.42837 5.49508
3 4 3.84973 2.4002 4.84967
49 3 5.46526 2.50398 4.98502
51 3 5.40138 3.29964 2.23337
110 2 4.23415 4.2901 6.57534
215 4 7.0731 0.488038 1.55505
98 4 5.12212 3.00046 0.723787
125 2 3.71117 1.92427 0.534293
223 2 5.64868 0.676368 6.60449
225 2 2.34441 0.533369 7.34359
280 2 -0.135676 3.78228 8.65069
220 1 5.45088 1.2703 0.344953