LAMMPS data file via write_data, version 2 Aug 2023, timestep = 2000, units = real

373 atoms
4 atom types

0 19.0492 xlo xhi
0 14.0575 ylo yhi
0 17.55 zlo zhi
-10.7944 1.3894 -3.3406 xy xz yz

Masses

1 12.0107
2 1.00794
3 15.9994
4 28.0855

Atoms # full

3 1 4 1.208597432122104 4.9140827765253094 1.1822544532689998 2.9159968455651657 0 0 0
212 3 2 0.150286522160835 0.8756615140238779 2.6363289986371683 0.3423376415097152 0 0 0
5 1 4 1.229944760312982 6.435365604503562 1.4470804258732604 5.555127975222892 0 0 0
7 1 4 1.064204904870302 4.2184855147804905 4.191235173512341 2.3337374387672156 0 0 0
9 1 4 1.213896582333529 5.00591725376872 3.1798013257174738 7.809917321637985 0 0 0
119 1 2 0.1494890391626856 2.3972013944136026 5.57829091149139 1.1762801504899663 0 0 0
33 1 3 -0.7661227275710291 5.989218728645014 0.5666591183825043 1.852646891245903 0 0 0
34 1 2 -0.03824254041526301 3.5268486170789615 0.2991512440925902 2.785257802811886 0 0 0
325 17 1 -0.6568679261232895 -0.6366650993953662 4.1718631966959085 5.463234715862895 0 0 1
36 1 3 -0.8177420197557397 5.399521722761491 0.9169592052181564 4.415738452401737 0 0 0
37 1 3 -0.7977732309802216 7.2954656166247585 0.2459673562390583 6.153377762422613 0 0 0
41 1 3 -0.8385223538343627 4.549540784149534 2.6500229739704935 2.612935163450844 0 0 0
190 2 2 0.07852001340997733 1.7951974211691861 -0.7018165708456474 5.006441783483526 0 0 0
43 1 2 0.01091587933520452 2.758983317695399 4.671586643367845 3.0955292604681497 0 0 0
111 1 2 0.16964518140118 6.058875324213517 0.9104544764862439 8.647006920502621 0 0 0
46 1 3 -0.8231054310182923 5.6457543139707465 2.27219222046313 6.632239948629776 0 0 0
326 17 2 0.2040569602442604 -0.8372410605837999 3.207616087806489 6.126898616545738 0 0 1
48 1 3 -0.7911533646471594 3.887988373083612 4.189516824186678 7.314587309715321 0 0 0
284 10 2 0.2040724254935714 4.625885610950308 0.45996475295951555 0.46671298371674524 0 0 0
4 1 4 0.7057079498516959 7.31832335405084 -1.1185341757025058 7.024850157268077 0 0 0
328 17 2 0.1582781616260982 0.1983634496834974 4.029437823250633 4.704574370291143 0 0 1
320 15 2 0.00660538378100233 2.358634180142128 2.6334515095937943 5.809054089996626 0 1 0
35 1 2 -0.007211680681275957 6.4983161791587865 -0.8182987834504131 8.533897942028068 0 0 0
178 2 4 0.7441141739676042 1.8824454945001947 1.1222055588845152 6.345214838692413 0 0 0
179 2 4 1.118095060862966 -0.25181149473420184 1.5558583784414475 8.705310832336698 0 0 0
181 2 1 -0.651448244264774 0.9517395077482085 0.29803009920912227 4.934774650904359 0 0 0
42 1 1 -0.6647171535723381 2.825061679204557 4.4944936715807176 1.0781613771257483 0 0 0
183 2 3 -0.7722180679648378 0.8484213035563115 1.3744101055534934 7.424136243058542 0 0 0
327 17 2 0.1729919272598297 -0.5800004175894067 5.129515051646878 6.039515656564343 0 0 1
182 2 3 -0.7585208364592928 -1.8367534597230204 1.9953058423327872 8.025938491984743 0 0 0
191 2 2 0.1316973548847389 0.9260985939164783 0.9524781967606689 3.9622164965114606 0 0 0
118 1 2 0.1579553573931343 3.558430393211263 4.272551549473328 0.13067253072543455 0 0 0
199 3 4 0.7940435434389899 -1.3774068507902448 3.958974902447599 1.2095410839399676 0 0 0
200 3 4 1.013513334825136 -2.2035421259620307 4.557059359610501 4.473063483634751 0 0 0
202 3 2 0.007143379541953005 0.17204065104628763 4.617317355495126 0.9413836798299224 0 0 0
203 3 1 -0.6332830294048821 0.1289087733319283 2.638364468283786 1.1904971717119803 0 0 0
205 3 3 -0.7137068524545499 -1.8975924190898699 4.274051157264275 2.6465187337597316 0 0 0
210 3 2 0.1149462432772436 -0.8560997385131088 1.832995460020418 0.9448777312587676 0 0 0
211 3 2 0.1409906595017925 0.6160055764169372 2.3494846370220674 2.204377962699644 0 0 0
337 20 2 -0.03258030209837041 3.342720175073416 0.458141756406268 7.012340776643522 0 1 0
117 1 2 0.1553802026230031 1.8398511392339227 3.7456127251666813 1.1206337640710837 0 0 0
192 2 2 0.1887737620321337 -0.03298460999216973 0.20687261783735966 5.444463356436294 0 0 0
331 18 2 0.2114343439309289 7.542659519114486 -0.6748630290906844 4.052011352155412 0 1 0
207 3 3 -0.7366171212705974 -2.746413805474332 6.062366815736725 4.953884858859997 0 0 0
63 1 3 -0.8533704091187587 4.6435283370462415 5.89042987288405 5.06167708258467 0 0 0
2 1 4 1.017697119446882 4.683794257596242 -1.053842687094804 10.611261707430604 0 0 0
6 1 4 1.245678990849915 4.70461372048355 -0.216547683965838 13.70420376309788 0 0 0
339 22 2 0.04604156780099955 3.8952370221999417 0.29850791178364333 9.439647828558787 0 1 0
32 1 1 -0.6408004384065745 5.580789419195965 0.5187775283490323 9.618808533581689 0 0 0
38 1 3 -0.7915889395039067 4.414501885322689 -0.7363655463199112 12.122047450915876 0 0 0
39 1 3 -0.7478706483542665 5.709126303584227 -1.2562570490831428 14.690287691601617 0 0 0
40 1 1 -0.6306479409622857 3.0051625428502424 -0.195182461516763 14.52577566832083 0 0 0
50 1 3 -0.7730039979679802 5.2728959309166346 1.3196872220396365 13.7608777287405 0 0 0
11 1 4 1.32420086018676 6.124396881091114 2.6946041774871636 13.596566132014804 0 0 0
285 10 2 0.1766779493139514 8.571003578432297 -0.6545118483467922 16.0095053282731 0 0 -1
112 1 2 0.01883365780967248 6.5121396480039655 -0.8703093727695463 10.243582651109913 0 0 0
113 1 2 0.1603818883530717 5.830135376683938 1.2331071157324809 10.471095313855896 0 0 0
114 1 2 0.1802211691196784 2.1271552520668315 -0.42977069352989705 13.667963409186175 0 0 0
115 1 2 0.1685290637027471 2.9097055193668315 0.8335764151976561 15.000060795620945 0 0 0
116 1 2 0.1655269451953039 3.147694634847236 -1.1100541943845237 15.244714080381094 0 0 0
129 1 2 0.1570799046510717 2.026190285167095 3.2701392971057874 12.144157177084024 0 0 0
280 10 1 -0.6546161676305213 5.272644320946015 -2.9795007532376885 17.155543665166544 0 0 -1
130 1 2 0.1633266185390037 2.1600203562329026 4.636412999632043 10.769363458888021 0 0 0
286 10 2 0.2413577009208935 8.678796901943784 -2.3560076864098045 16.91453169138636 0 0 -1
189 2 2 -0.01749728991876337 0.37841031442573614 2.862475748388347 9.554348218395887 0 0 0
186 2 3 -0.8212088917179738 -0.2613942975243637 0.36630861759655575 9.682759693980374 0 0 0
188 2 1 -0.6617954128255763 0.8695471775199776 -0.6380983093294632 12.160616049902453 0 0 0
196 2 2 0.1908362191155197 1.8641894654152202 -0.2879324556233318 11.82563917114757 0 0 0
197 2 2 0.1734346992323408 0.9347581757718386 -1.7035317671464276 12.64978773724723 0 0 0
198 2 2 0.1277760407156682 0.3342929731027964 0.17712497688725648 12.860900216980763 0 0 0
315 13 2 0.1546900094399316 0.02968499595089691 -0.6125843482554325 15.115891273132231 1 0 0
213 3 2 0.1252044561813894 -0.877844064830648 1.7371197419617834 16.984204631140972 0 0 -1
53 1 3 -0.7682582234876816 5.14686104236851 3.8213974817889556 12.768842215402064 0 0 0
287 10 2 0.187764168226543 7.3205579805441765 -1.113877263323558 17.40008434258964 0 0 -1
52 1 1 -0.6605853871009612 2.3583967862951676 4.353590917295087 11.866462936695727 0 0 0
279 10 4 0.9326527723976398 6.415083399390591 -2.2390651200689264 15.692919059708132 0 0 -1
204 3 1 -0.6684273107732288 -1.1893679720372323 0.6298916779905603 17.28653303659473 0 0 -1
281 10 1 -0.6517403812542359 7.999965346939245 -1.5140584521360265 16.518255262987193 0 0 -1
45 1 2 -0.005234923725773714 4.455222077753535 2.0343377700666982 8.98081418700915 0 0 0
283 10 2 0.1586144897974473 4.38354250100787 -2.2749446375523723 17.252605539176457 0 0 -1
1 1 4 0.986521269428552 -3.761563150284403 13.28579434422954 1.5501881263385509 0 -1 0
13 1 4 1.078514953668159 2.2457241929228453 8.97062515906552 2.5525505894641896 0 0 0
31 1 1 -0.6683167722386493 -4.909193059858948 11.898481829519088 0.79319217606504 0 -1 0
357 27 2 0.1644067858986322 -0.7170006304775073 5.590530350911128 8.468526860367446 0 0 0
55 1 1 -0.6778892295556314 1.957243182768797 7.174089002435814 3.120036992692729 0 0 0
359 27 2 0.07479999325691816 -1.1173024541033356 7.892972603488463 8.325860426777039 0 0 0
57 1 2 -0.004287923025187233 0.5993138334785415 8.575624471565312 2.6109571010204933 0 0 0
59 1 1 -0.644081878451366 -0.5783587349322512 12.269924431321027 5.933811633301923 0 0 0
60 1 1 -0.6511675068826226 0.08593538714476001 10.068037191587184 8.485073895694425 0 0 0
352 26 1 -0.6598971336408441 -4.264979536264638 11.505455793735038 6.203215054871495 0 0 0
10 1 4 0.9912366468806256 3.9764441414898384 5.825867068415796 6.496373583222173 0 0 0
109 1 2 0.1530025767973626 -5.922879711043523 12.387506138172679 0.9108606701427725 0 -1 0
110 1 2 0.1392841759066467 -4.858939743012991 10.955631484876122 1.448287093551649 0 -1 0
249 7 2 0.1673690003020731 -8.351362515609312 10.44357167821984 7.398905747702189 0 0 0
235 6 2 0.153032795431065 -0.5475399721238168 11.619939662257817 0.9654488755630044 0 0 0
365 30 2 -0.02984786778518167 -1.8870372032615426 12.53987531367435 7.470205122931437 0 0 0
136 1 2 0.1853013488672077 2.0197638537952387 7.04436953473086 4.192713458521412 0 0 0
145 1 2 0.131601234891891 -0.9425310708972873 10.03361933118983 7.994290776113646 0 0 0
141 1 2 0.1441005724234239 -1.4696317598601043 11.563287304722778 5.910655677621438 0 0 0
137 1 2 0.165840842186538 2.91975118677392 6.78193073927793 2.544374737161078 0 0 0
144 1 2 0.1747366895371066 0.7760579038679997 9.181326946587275 8.411391436885612 0 0 0
353 26 2 0.1501640566794627 -5.3794602975413435 11.141915516099996 6.674091220227927 0 0 0
124 1 2 0.1475712531653205 2.49971159920686 7.607485879844178 8.2535528007069 0 0 0
201 3 4 0.7881912319601467 -3.4359031244206006 7.477642480768827 5.411848661355153 0 0 0
206 3 1 -0.642074560585588 -3.0440619371403486 8.905585340215866 4.259956998873068 0 0 0
49 1 1 -0.649500893088057 3.1545156530213903 7.528479359487736 7.315637467987359 0 0 0
208 3 1 -0.6499315389655775 -5.3583937084497775 7.19967249470254 5.784498802905779 0 0 0
209 3 2 -0.01168471610851967 -3.2066354007203683 7.95684585366762 7.075901680490581 0 0 0
216 3 2 0.10381567254293 -2.209036042951669 9.339360783435906 5.157573451556905 0 0 0
217 3 2 0.1531994266477742 -3.9275676793035093 9.562354088096884 4.207419201916754 0 0 0
218 3 2 0.169314577079263 -2.4395455533879393 8.766099601415357 3.3463261208299304 0 0 0
219 3 2 0.1476165577441417 -5.614896063021693 7.993435512737667 4.998511110265531 0 0 0
220 3 2 0.1520691056050443 -5.595102894237455 7.447986526280978 6.800812724884182 0 0 0
248 7 2 0.1509324451505808 -6.919807752586357 11.687420476919291 7.145417997276443 0 0 0
233 6 3 -0.7319745141684472 -2.5320859119795225 13.610015115732002 0.14794804557851002 0 0 0
355 26 2 0.1656761705163957 -4.370727567702332 12.054329741386258 5.118600720491813 0 0 0
243 7 1 -0.6699496842728923 -7.2099989474725 10.618518556499122 7.3168043081162395 0 0 0
247 7 2 0.146176636200165 -6.6068435452956535 9.816621373734696 6.814011516062507 0 0 0
332 18 2 0.168886482341802 -1.8309954873240673 12.69477349621224 2.9886097235622846 0 0 0
47 1 2 0.03533906456239952 2.331920543320282 6.386914061604856 6.038970182483768 0 0 0
354 26 2 0.1338881929532201 -3.4668553598578495 10.710621039123593 6.180767982250816 0 0 0
330 18 2 0.134808600773364 -3.436040892896499 11.645257255733137 3.165213147026305 0 0 0
297 11 2 0.1292583336828029 -2.9734566899369845 9.425332722942901 8.02723218677168 0 -1 0
329 18 1 -0.654507278835043 -2.9322203860332023 12.726006356158113 3.1552213197151353 0 0 0
296 11 2 0.1119835838516095 -4.273913074251957 7.930419740129798 8.413620888240382 0 -1 0
135 1 2 0.1403273579258286 0.9802694019916074 6.798261287915977 2.6799943461454956 0 0 0
257 8 2 0.1523736772046149 -8.305995265163707 10.066101700539047 16.649799364874944 0 0 0
44 1 1 -0.670624160974522 2.818550779205783 5.472925908658364 15.892195148748119 0 0 -1
146 1 2 0.1451040297192262 0.10595264956023465 10.522725776956591 9.533466141446535 0 0 0
74 1 1 -0.6606112505774878 -4.775671587135907 7.24151371803787 15.529686721715947 1 0 0
120 1 2 0.1293283522166357 2.244022353246705 6.473831517430522 15.72971580483766 0 0 -1
360 28 2 0.03201424916636152 -2.4606704721105506 5.648065381739825 9.730164444629246 0 0 0
131 1 2 0.1423395775142384 1.9241733330237865 5.109610757598794 12.636280272302544 0 0 0
348 25 1 -0.6219901263648012 -4.006290951893824 10.240606677044685 14.638201903943603 0 -1 0
162 1 2 0.1720892358849373 -4.242093721460475 7.31466112846795 16.49647533861944 1 0 0
163 1 2 0.1564689220441323 -5.641804403320928 8.049694793948674 15.373951584628815 1 0 0
164 1 2 0.1396888571573374 -4.028395747680751 7.202356310861239 14.711249493569689 1 0 0
108 1 2 0.1666938317886816 -3.263567582897533 8.393961839666272 17.305686902099858 0 -1 -1
12 1 4 1.070266973939527 4.123480585763144 4.903495867902041 12.00252982977677 0 0 0
338 21 2 -0.01109340948835273 -0.2956655435223714 8.72026679446504 15.595954996056259 0 0 0
231 6 4 0.7805752890155132 0.0973275168239216 10.034300689100071 16.801426652121595 0 0 -1
298 11 2 0.1574943117604425 0.2697651576630621 10.019990602708765 10.865966112523527 0 -1 0
349 25 2 0.1655221926351566 -4.362437847563392 9.160301121797156 15.006600336216358 0 -1 0
351 25 2 0.1649549787877163 -4.396697733492987 10.457416313847476 13.571970994567442 0 -1 0
238 7 4 1.011291386398654 -6.892056075934287 10.24703775762126 9.174455251248915 0 0 0
159 1 2 0.1325738834620574 -4.080765751356946 5.258553891135165 13.797969201210307 1 0 0
241 7 2 -0.006320436995770787 -5.575650811623351 9.155551707367023 9.013594610257256 0 0 0
242 7 3 -0.8052025969076162 -6.410020123440469 11.657195829642436 9.883301783488236 0 0 0
121 1 2 0.1529348655260537 2.376259466650081 4.80976480941729 16.737137934114557 0 0 -1
300 11 2 0.1215092158535823 -0.8989107510398033 11.371223338141498 11.75385062887411 0 -1 0
303 11 2 0.1292431127691927 0.5824792550290536 8.462921887042237 14.233463902712192 0 -1 0
134 1 2 0.1660792759200219 3.6973219086234344 6.171039411822131 14.213911369925452 0 0 0
282 10 2 0.148536971766027 -5.851324120570636 9.985539695884459 16.881165541934042 0 -1 -1
350 25 2 0.1024955688141533 -2.7569622840256414 10.5180403111007 14.893264012249997 0 -1 0
288 11 4 0.7448528789856704 -2.398675370998029 7.5595338554931795 9.843453249787036 0 -1 0
289 11 4 0.7301437217660125 -1.502798283001101 9.196972877114298 12.555206113697434 0 -1 0
291 11 1 -0.6391291892116666 -0.19852909393746643 10.48262854925969 11.88158867748797 0 -1 0
292 11 3 -0.7202626625780847 -2.037393910822522 8.220036487964506 11.272748793947688 0 -1 0
293 11 1 -0.6311129315010976 -0.40298094027742337 8.080255326887505 13.749617333886492 0 -1 0
294 11 2 -0.01709983602042316 -2.7006678417744254 10.289508068461725 13.1690964067403 0 -1 0
356 27 1 -0.604304064152602 -0.9950904930493132 6.4239254708636295 9.180157905085677 0 0 0
299 11 2 0.108292623975996 0.432230899417547 10.32758722725874 12.941433998824543 0 -1 0
167 1 2 0.151155652323055 -6.143741273843549 7.624146203799226 12.09488028567977 1 0 0
301 11 2 0.1803817067003126 -0.23368899667575738 7.170182435314906 13.145975538772511 0 -1 0
302 11 2 0.1147705813897218 -1.3905272361686862 7.966804680777528 14.461779119122916 0 -1 0
358 27 2 0.170358903914539 -0.25701241866518487 6.4695118420808235 10.055388592220973 0 0 0
174 1 2 0.1801668273558003 1.5853192687919884 8.852220426152662 11.843925087151476 0 0 0
295 11 2 0.1439205595196286 -4.0489416646810374 9.514350140930311 9.635714732673861 0 -1 0
122 1 2 0.1675947975982059 3.1038511394990698 4.940068135295809 14.910735030045423 0 0 -1
290 11 1 -0.642637105066709 -3.611016328723026 8.833001086375068 8.788050260499777 0 -1 0
342 23 2 0.161479147738382 12.042715001741731 3.5426699814566245 3.476011112360711 0 1 0
153 1 2 0.1729778373901775 12.236846808948698 5.148534161191033 7.347686062911912 0 0 0
17 1 4 0.9239333609302548 10.270027605076619 3.5843837292118472 7.198784776148448 0 0 0
58 1 1 -0.6619746956335966 12.568000444680779 -1.1392195826443365 7.905317276041956 0 1 0
227 4 2 0.05701204285153859 11.264074242068231 5.616941905374133 0.3714368789686687 -1 0 1
64 1 2 0.1023426565070506 6.106947625682877 6.469886904173091 1.4528482308230075 0 0 0
65 1 1 -0.6493840714566246 8.998001605489252 2.8218949794955264 8.517720675292072 0 0 0
66 1 1 -0.6539960673251368 11.032143304545961 2.2681929476754092 5.949384354285015 0 0 0
67 1 1 -0.652954714358969 11.759198805535648 4.554717005569886 8.138561982238562 0 0 0
61 1 2 0.0180415253901976 7.555653545642746 2.4551920533781524 4.842785784562451 0 0 0
71 1 3 -0.8129517522157097 7.24450440345741 5.410047619065758 4.518865614017094 0 0 0
72 1 3 -0.7167120990190397 9.421517437631955 4.568466768956388 6.357587690644113 0 0 0
138 1 2 0.1433738648422014 11.822417981407364 -0.3370428898370843 7.649392071614397 0 1 0
321 16 1 -0.6231764465418701 15.455164386744201 3.214058890462745 4.85688518500209 -1 0 1
147 1 2 0.1438637888680061 9.063301005162026 1.7313892423652715 8.24704649190604 0 0 0
148 1 2 0.2745020743825569 7.933853062346391 3.2699216445564567 8.472120731752998 0 0 0
150 1 2 0.1469559868188308 10.220218407140914 1.5029864356676284 6.22785355441021 0 0 0
151 1 2 0.1535722140105988 12.061842379375516 1.8622173449195192 6.033812543974894 0 0 0
152 1 2 0.1756394784746536 10.837514193353908 2.7261597800568698 4.944496023767084 0 0 0
154 1 2 0.1473924808296351 12.414107770730851 3.7808137250157037 8.573294319610365 0 0 0
139 1 2 0.1841642411328448 13.537252575027471 -1.0776393831680247 7.334838355392202 0 1 0
177 2 4 1.001653494569335 16.096509535397526 0.8430985736706913 7.8583057139592025 -1 0 0
343 23 2 0.1710814102263254 12.424467522292261 4.893041183963522 1.8224472513608843 0 1 0
223 4 1 -0.590799199619207 12.873089732705836 6.496264161273535 1.0971573951820586 -1 0 1
214 3 2 0.1564428199518234 15.451073853352026 3.850642820147115 0.26920711521186574 -1 0 0
322 16 2 0.1770584084185023 15.747177891724322 3.2049888990297175 5.9721047320328005 -1 0 1
346 24 2 0.1401286368185676 12.490983522064651 0.5014807838191413 1.8559212510044372 0 1 0
259 9 4 0.8112178754532772 13.000034336398016 2.5139623609995474 0.9931046494983718 0 0 0
262 9 2 0.1483531607340737 11.055729990106018 3.1987522184446666 1.8411512407414183 0 0 0
304 12 4 0.9706381643369429 15.253704714754653 -0.5944070045884303 4.976125285568944 0 0 0
305 12 1 -0.6388326368249593 16.014457265758697 0.4640621021611975 3.3170980064672877 0 0 0
306 12 3 -0.7960546205941381 15.682453606708197 0.21037872354711284 6.416816704910815 0 0 0
307 12 2 0.05524580507369346 14.450460661558218 0.8931084304708664 4.062056440937282 0 0 0
308 12 2 0.1373527731062152 15.91377733907154 0.3895457149892163 2.164420411758837 0 0 0
309 12 2 0.1702550029949177 16.85182448442712 1.0906472423214826 3.618971885125149 0 0 0
317 14 2 0.1584587703664266 13.76653131770809 1.201167427353632 8.13128104261261 0 0 0
323 16 2 0.1862922562156748 15.64202348914491 2.1467032645080084 4.257454487334636 -1 0 1
324 16 2 0.1615013329511677 14.422961504050857 3.64887753829186 4.70117432034073 -1 0 1
344 24 1 -0.6724079223331823 13.512109201963224 0.7754153262658807 1.3650252466833177 0 1 0
340 23 1 -0.623379591507076 12.09480322660491 3.561900517419096 2.3347762013246487 0 1 0
341 23 2 0.04059725501552779 13.9336964774051 3.659987340044235 2.039087142117549 0 1 0
62 1 3 -0.8067844435320163 5.281332526864825 5.326435646503812 2.4205589458020422 0 0 0
347 24 2 0.1627458368878874 14.464629214251117 0.674415655893261 2.0958184370465966 0 1 0
370 32 3 -0.7199806638502164 8.730734854522336 6.247776237308549 0.3427188000749603 0 0 1
143 1 2 0.1525404867837878 10.110675151560848 -0.7135624523858106 6.243732088716641 0 1 0
68 1 3 -0.8049049701797153 6.223276146290584 3.9821407705400427 8.496779504742827 0 0 0
226 4 2 0.164618175100388 13.75336074815902 6.490144283367648 0.3493968912972528 -1 0 1
345 24 2 0.1702379968837757 13.648450030261841 0.23984034439645063 0.40451513179904713 0 1 0
19 1 4 1.316682060585257 8.434787324013797 5.911246148682373 5.454039386614335 0 0 0
15 1 4 1.461864016730145 5.819432675335862 6.091336475843891 4.02027954624855 0 0 0
156 1 2 0.168592250973096 10.681206190902639 6.141516426201148 4.615760731828949 0 0 0
258 8 2 0.1469383155415568 19.01520151116414 -0.07917120315017204 0.4959421830910692 -1 1 1
225 4 2 0.289707672019308 10.281538021669752 3.169043270283841 16.890568797379476 -1 0 0
51 1 1 -0.6645469377532378 7.589674126348201 2.202790105178836 12.44107791034639 0 0 0
184 2 2 0.1556951633511885 14.87052041505486 2.2190380820862803 9.350512379552288 -1 0 0
310 13 4 0.8053164606316413 17.163114762065227 -2.237356563597112 14.189089381952007 0 0 0
76 1 3 -0.7903678357760786 6.797893600567587 3.230818882926112 14.909263773012393 0 0 0
126 1 2 0.1472515941576848 7.181165909188389 2.263196563099067 11.335044999927572 0 0 0
312 13 1 -0.6730988161713038 18.752855963011974 -1.6547098707745969 15.259238355714789 0 0 0
128 1 2 0.1704273221651501 8.329596760805707 3.0327138211490854 12.68323819499751 0 0 0
180 2 4 0.8134717571638777 18.436050174970863 -0.5154188983273758 10.923996383274915 -1 0 0
316 14 1 -0.6594309951998706 14.614429928010255 1.1753802072882484 8.979764333672506 0 0 0
336 19 2 0.1897742909418578 11.627522342787014 -1.4776134724241325 16.680887517236943 0 1 0
169 1 2 0.1763780135734639 7.475992286760105 3.9885021980362017 11.485782688029794 0 0 0
187 2 1 -0.6658554349117041 16.735661324519743 0.24721120392757756 11.646080215238607 -1 0 0
193 2 2 0.1783925492578916 16.230532927520382 0.9001006069961792 10.964889491832064 -1 0 0
127 1 2 0.1606932428846092 8.011257049432935 1.177590202032777 12.721317959875892 0 0 0
195 2 2 0.1140762845336894 16.268258625220337 -0.8658213315687024 11.558536537307317 -1 0 0
335 19 2 0.1715328878120775 12.668587772043379 -2.7317920779060922 15.789308831781694 0 1 0
260 9 4 1.030976480904252 13.912824335665883 0.16148712714772762 15.482783872239656 0 0 -1
261 9 4 0.6847415743675789 13.076558410378206 -1.764689445232725 12.853494144609526 0 0 -1
263 9 3 -0.7588930717617163 14.14330438927593 -0.4405743387808201 17.008392808200085 0 0 -1
264 9 1 -0.6459334536762794 15.490652550780684 1.1383030618469174 15.117301344840799 0 0 -1
265 9 1 -0.6529234883370192 12.454226099913836 1.4424632605957926 15.49813732156822 0 0 -1
266 9 3 -0.7349272127116011 13.570239189995856 -0.923427224180011 14.12642899834401 0 0 -1
267 9 2 -0.008627453530381392 11.301655331297983 -1.9315785262392897 12.638805814275454 0 0 -1
269 9 1 -0.6515567361745054 13.675196696467795 -0.7155270018031241 11.479362634282197 0 0 -1
270 9 2 0.1395933689620544 15.750019262900423 0.6912029510418498 14.042951014165133 0 0 -1
271 9 2 0.1843114033411757 16.355444367157247 1.0072960649141498 15.91356048455213 0 0 -1
272 9 2 0.1402308377496416 14.962342874333821 2.2053052937939244 15.114438010245419 0 0 -1
273 9 2 0.1700974021137292 11.876922105206548 1.5067317504393154 14.549034095664233 0 0 -1
274 9 2 0.1697188422311031 12.992075699983614 2.452987581981367 15.712678080645112 0 0 -1
275 9 2 0.1799309133867128 11.832045080434343 1.1888036436114335 16.401691017405547 0 0 -1
276 9 2 0.1216498964695933 14.333720477918407 -1.4335728548855184 10.928424752697147 0 0 -1
277 9 2 0.1819518836443646 14.132638228640861 0.20027933433366663 12.045701640823262 0 0 -1
278 9 2 0.1182268630038127 12.596354666443144 -0.5582635922215058 10.953336694855034 0 0 -1
318 14 2 0.171071373069167 14.248194878269327 0.4705129442073577 9.900283731783642 0 0 0
311 13 2 -0.0116097428654822 16.879825288887552 -0.7358440257779657 13.325629049601163 0 0 0
140 1 2 0.1385911605297079 12.751694650134255 -1.3569099427935811 9.026581426859984 0 1 0
319 14 2 -0.003828689805531298 15.800233693640003 -0.3065376642522488 9.267189294203426 0 0 0
333 19 1 -0.6512255595474263 11.648511755388 -2.4618672949170963 16.082298371155485 0 1 0
194 2 2 0.1503384413984198 16.645559061245766 0.676085580803504 12.651510623226926 -1 0 0
171 1 2 0.1761539720207729 10.236048545152489 3.9542668179420883 13.178094190977538 0 0 0
161 1 2 0.1625492897300266 14.222292325642034 3.5074855034814014 13.964764113764192 0 0 0
81 1 1 -0.6679608467382668 10.26344307458529 4.552273646210577 12.277648434041485 0 0 0
334 19 2 0.1227546967967236 10.858113533808512 -2.3935523260062066 15.222788567700526 0 1 0
149 1 2 0.1512616701370628 9.534903130357963 3.0664288926446064 9.459533572372484 0 0 0
173 1 2 0.1784904536076289 9.183132969856281 4.705935550970377 11.71465980546453 0 0 0
369 31 2 0.1495091746107935 16.43226669144667 -2.3723561803168884 16.40966122292357 0 1 0
314 13 2 0.1476183818967039 18.768318057392246 -1.8646793489566258 16.358526023772768 0 0 0
313 13 2 0.1868406682443494 19.39217299798475 -2.4033078044191125 14.712251180806803 0 0 0
172 1 2 0.1427054776177684 11.067952933975615 4.274202196613744 11.599888784065522 0 0 0
155 1 2 0.16408656051842 11.240163950422893 5.177445863187143 8.949638784147004 0 0 0
368 31 2 0.1589833275475058 15.063454602075685 -2.6113725348389583 15.004597697268487 0 1 0
215 3 2 0.1676442025912331 18.027210949044772 -0.16445340150050525 16.49091976246305 -1 0 -1
256 8 2 0.1767094244237417 19.786911468682433 -3.098152824138192 16.297706833129293 -1 1 0
14 1 4 0.8892915066543647 0.8075419250081153 11.427963230218586 7.165316691942144 0 0 0
23 1 4 1.473916447224867 6.850103704634579 9.063050281335123 3.0399646570763923 0 0 0
24 1 4 1.469817515079497 3.2163648403302516 10.680921869111472 5.211821196758145 0 0 0
25 1 4 0.9866680947912099 5.43314711708645 11.305928481686703 1.6527101891882423 0 0 0
26 1 4 1.52719447779701 7.270397169459232 7.773990014122239 7.959975510306949 0 0 0
28 1 4 1.248702085760465 5.7995583583209465 10.36466279068394 6.924490702304217 0 0 0
246 7 2 0.1718287388657578 8.657050074454105 10.64933212796095 7.712692119069099 -1 0 0
70 1 1 -0.6746904881055947 9.716515439894325 6.696163072960588 4.358619965242704 0 0 0
83 1 3 -0.8070831165779166 6.1623748208748355 7.69406096884065 3.681571542016031 0 0 0
84 1 3 -0.8133896805595926 7.811905377336279 8.59226029904333 1.467629184689042 0 0 0
85 1 3 -0.8283028002747946 7.758368992662711 9.878715890202074 4.084241472047074 0 0 0
86 1 3 -0.7570958665453278 2.771550792075258 9.820333232595075 3.798447683945 0 0 0
87 1 3 -0.8123214844316399 3.4729923530886917 12.228318302014902 4.6924908500244396 0 0 0
88 1 3 -0.7641959247254798 1.8620120063160792 10.664810890061826 6.236403413903471 0 0 0
89 1 3 -0.8145901151171954 5.730861737660882 9.97624242194578 2.4702225689677895 0 0 0
90 1 2 -0.01228835945878463 5.470511541768724 12.719377748583586 2.632401933945566 0 0 0
92 1 3 -0.7641930805007786 7.954477356210175 6.936956723714989 6.568084670740678 0 0 0
56 1 3 -0.7905086713937473 2.586931761885994 9.215968671486781 1.065939768469248 0 0 0
97 1 3 -0.8293938334086317 6.885841938568237 11.273745184749568 6.17215679921953 0 0 0
98 1 3 -0.8300399750909203 4.495093525992737 10.136993837392685 5.872672174676828 0 0 0
99 1 3 -0.8700424998960109 6.420287510430024 9.048064172412936 7.419779057390213 0 0 0
100 1 2 -0.07444908065295586 5.297813656061867 11.078209385864534 8.314133953550307 0 0 0
229 5 2 -0.01909701090661239 8.43136235256931 12.607544234542303 4.379774739761082 -1 0 0
91 1 3 -0.8638816583837698 6.381442685625257 6.761522874868281 8.756051091545885 0 0 0
123 1 2 0.1294188292419889 4.411505225180178 7.115954499882587 7.751339317957782 0 0 0
371 33 3 -0.7985373660637554 6.331182979952459 11.573860748841039 0.3806727258435491 0 0 1
158 1 2 0.1923367939952404 9.438049119364699 6.607755047171519 3.2597157615271146 0 0 0
373 35 2 0.04924264943202125 3.756560618078923 11.257626787094246 1.2105392889031943 0 0 1
254 8 2 0.2790882348970971 8.366525324117 9.706542089678592 0.1981804271917007 -1 0 1
228 5 4 0.9381668184946395 8.033660383078235 11.063175612637059 5.097621961276646 -1 0 0
224 4 2 0.06924260409144012 12.76329133797894 7.692092209229695 2.126803795648972 -1 0 1
230 5 2 -0.03769967018801358 9.570139545739046 10.660228713322798 5.699320646680516 -1 0 0
157 1 2 0.1870847595368852 9.766573876603207 7.767388913810005 4.71699892403709 0 0 0
364 29 2 0.145564942790346 2.6541113663733107 12.151804958034866 0.1375731652028627 0 0 1
255 8 2 0.1368399903704872 9.613027160360085 11.123297074585972 0.06258604351388053 -1 0 1
125 1 2 0.224802412077193 3.203714053839141 8.519006665875068 6.7354869692214745 0 0 0
222 4 4 0.7642860355846406 11.607869846692296 7.32555326396915 0.4494892236683947 -1 0 1
232 6 1 -0.6488006628654002 0.06363220947363317 12.34590141682594 0.3255072898461598 0 0 0
142 1 2 0.1771887753760033 -0.13767491476346683 12.3102482929105 4.886936343863404 0 0 0
16 1 4 1.173790662526738 7.284134356012159 7.416116900909386 0.6257671524642298 0 0 0
96 1 2 -0.003280920604705015 4.124462960652046 8.559611532144864 8.723542587283113 0 0 0
236 6 2 0.1530568987182723 0.30747065993653944 13.367695215400149 0.8444649420127721 0 0 0
221 3 2 0.1691557816261113 13.49700099425359 6.113141454343737 5.525874377040981 -1 0 0
372 34 2 0.02790452001566165 6.07557448015659 13.116821396783738 4.2175794941644345 0 0 0
18 1 4 1.296279354209585 6.059268447342103 5.374728277077311 9.552061151861162 0 0 0
20 1 4 1.096194845697206 13.148237676176494 5.580431933561707 15.214798496722612 0 0 0
21 1 4 1.529696543731708 7.006685411785724 4.808928805286106 15.586110861745116 0 0 0
22 1 4 1.059530404421739 10.838721944226256 6.296217019129839 12.977491799835597 0 0 0
27 1 4 0.7158651114961674 4.1469151031065525 9.068026853164366 10.371578921469997 0 0 0
29 1 4 1.520737786507565 8.06473077483521 7.303362115025497 13.958269287472438 0 0 0
30 1 4 1.472897103622526 6.885716096787188 9.331300421693252 12.081544869766425 0 0 0
168 1 2 0.1730161733956083 8.38323270796792 5.28309796207336 10.329187847602542 0 0 0
75 1 3 -0.7728259265748718 13.11607635197572 4.711019197801885 16.53884002061978 0 0 0
77 1 3 -0.8193931826009082 8.02327591250273 4.562351803402594 16.80260288575396 0 0 0
78 1 3 -0.7850218881931994 5.632799169639009 5.419003853388519 16.264562167993894 0 0 0
79 1 1 -0.6584814239139989 11.903351735719118 7.181452238231269 11.679308201065536 0 0 0