LAMMPS (2 Aug 2023 - Update 2)
  using 2 OpenMP thread(s) per MPI task
Reading data file ...
  triclinic box = (0 0 0) to (19.0492 14.0575 17.55) with tilt (-10.7944 1.3894 -3.3406)
WARNING: Triclinic box skew is large. LAMMPS will run inefficiently. (src/domain.cpp:220)
  2 by 2 by 2 MPI processor grid
  reading atoms ...
  373 atoms
Finding 1-2 1-3 1-4 neighbors ...
  special bond factors lj:    0        0        0       
  special bond factors coul:  0        0        0       
     0 = max # of 1-2 neighbors
     0 = max # of 1-3 neighbors
     0 = max # of 1-4 neighbors
     1 = max # of special neighbors
  special bonds CPU = 0.001 seconds
  read_data CPU = 0.013 seconds
*****Minimization starts.*****
Setting up cg style minimization ...
  Unit style    : real
  Current step  : 0
WARNING: No pairwise cutoff or binsize set. Atom sorting therefore disabled. (src/atom.cpp:2366)
WARNING: Communication cutoff is 0.0. No ghost atoms will be generated. Atoms may get lost. (src/comm_brick.cpp:210)
Per MPI rank memory allocation (min/avg/max) = 6.865 | 6.865 | 6.865 Mbytes
   Step          Temp          E_pair         E_mol          TotEng         Press     
         0   300            0              0              332.6584       3235.7085    
         1   300            0              0              332.6584       3235.7085    
Loop time of 6.59861e-05 on 16 procs for 1 steps with 373 atoms

60.1% CPU use with 8 MPI tasks x 2 OpenMP threads

Minimization stats:
  Stopping criterion = search direction is not downhill
  Energy initial, next-to-last, final = 
                     0                  0                  0
  Force two-norm initial, final = 0 0
  Force max component initial, final = 0 0
  Final line search alpha, max atom move = 0 0
  Iterations, force evaluations = 1 0

MPI task timing breakdown:
Section |  min time  |  avg time  |  max time  |%varavg| %total
---------------------------------------------------------------
Pair    | 0          | 0          | 0          |   0.0 |  0.00
Bond    | 1.15e-07   | 2.28e-07   | 2.81e-07   |   0.0 |  0.35
Neigh   | 0          | 0          | 0          |   0.0 |  0.00
Comm    | 8.57e-07   | 1.3818e-06 | 1.77e-06   |   0.0 |  2.09
Output  | 0          | 0          | 0          |   0.0 |  0.00
Modify  | 0          | 0          | 0          |   0.0 |  0.00
Other   |            | 6.438e-05  |            |       | 97.56

Nlocal:         46.625 ave          55 max          38 min
Histogram: 2 0 0 2 0 0 0 2 1 1
Nghost:              0 ave           0 max           0 min
Histogram: 8 0 0 0 0 0 0 0 0 0
Neighs:              0 ave           0 max           0 min
Histogram: 8 0 0 0 0 0 0 0 0 0

Total # of neighbors = 0
Ave neighs/atom = 0
Ave special neighs/atom = 0
Neighbor list builds = 0
Dangerous builds = 0
WARNING: New thermo_style command, previous thermo_modify settings will be lost (src/output.cpp:903)

CITE-CITE-CITE-CITE-CITE-CITE-CITE-CITE-CITE-CITE-CITE-CITE-CITE

Your simulation uses code contributions which should be cited:
- pair reaxff command: doi:10.1016/j.parco.2011.08.005
- fix qeq/reaxff command: doi:10.1016/j.parco.2011.08.005
The log file lists these citations in BibTeX format.

CITE-CITE-CITE-CITE-CITE-CITE-CITE-CITE-CITE-CITE-CITE-CITE-CITE

WARNING: Fix qeq/reaxff group is not charge neutral, net charge = 39.36 (src/REAXFF/fix_qeq_reaxff.cpp:392)
Neighbor list info ...
  update: every = 10 steps, delay = 0 steps, check = no
  max neighbors/atom: 2000, page size: 100000
  master list distance cutoff = 12
  ghost atom cutoff = 12
  binsize = 6, bins = 6 3 3
  2 neighbor lists, perpetual/occasional/extra = 2 0 0
  (1) pair reaxff, perpetual
      attributes: half, newton off, ghost
      pair build: half/bin/newtoff/ghost
      stencil: full/ghost/bin/3d
      bin: standard
  (2) fix qeq/reaxff, perpetual, copy from (1)
      attributes: half, newton off
      pair build: copy
      stencil: none
      bin: none
Setting up Verlet run ...
  Unit style    : real
  Current step  : 0
  Time step     : 0.5
Per MPI rank memory allocation (min/avg/max) = 124 | 124.4 | 124.9 Mbytes
   Step          Temp          PotEng         Press        f_avgp[1]       Density         Volume    
         0   300           -37805.726      120410.25      0              1.1428982      4699.6115    
       100   711.49972     -39484.576     -22986.316     -9117.5421      1.1428982      4699.6115    
       200   468.83505     -39863.844      11293.202     -4720.1916      1.1428982      4699.6115    
       300   362.43062     -40048.131     -3079.3135     -3367.765       1.1428982      4699.6115    
       400   317.68625     -40098.541     -3208.9284     -3553.4514      1.1428982      4699.6115    
       500   308.94159     -40128.297     -2984.3719     -186.27274      1.1428982      4699.6115    
       600   312.1533      -40226.469     -6158.2336     -3086.4431      1.1428982      4699.6115    
       700   317.20502     -40250.043     -1341.8155     -4046.8145      1.1428982      4699.6115    
       800   289.7623      -40250.31      -2301.8777     -3540.2464      1.1428982      4699.6115    
       900   291.48174     -40272.512     -4533.3484     -2791.7796      1.1428982      4699.6115    
      1000   294.11906     -40301.315     -4249.0773     -2270.1984      1.1428982      4699.6115    
      1100   331.4423      -40305.496     -4960.9485     -4247.0404      1.1428982      4699.6115    
      1200   316.75997     -40305.051     -10067.705     -3509.9752      1.1428982      4699.6115    
      1300   307.58258     -40326.579     -13867.023     -5655.1652      1.1428982      4699.6115    
      1400   315.26554     -40327.228     -3768.9525     -2951.0399      1.1428982      4699.6115    
      1500   315.50884     -40369.191     -11300.141      2320.1395      1.1428982      4699.6115    
      1600   327.54907     -40394.887      71.190609     -4400.9819      1.1428982      4699.6115    
      1700   307.66611     -40392.281     -6858.447      -7242.335       1.1428982      4699.6115    
      1800   310.61621     -40391.693      240.98291     -5145.8941      1.1428982      4699.6115    
      1900   287.13445     -40385.677     -8953.8205     -2617.8031      1.1428982      4699.6115    
      2000   304.55252     -40394.257     -772.65687     -2445.137       1.1428982      4699.6115    
Loop time of 45.0794 on 16 procs for 2000 steps with 373 atoms

Performance: 1.917 ns/day, 12.522 hours/ns, 44.366 timesteps/s, 16.549 katom-step/s
99.5% CPU use with 8 MPI tasks x 2 OpenMP threads

MPI task timing breakdown:
Section |  min time  |  avg time  |  max time  |%varavg| %total
---------------------------------------------------------------
Pair    | 30.035     | 31.618     | 33.35      |  17.1 | 70.14
Bond    | 0.0002868  | 0.00041334 | 0.00059206 |   0.0 |  0.00
Neigh   | 3.8452     | 3.9281     | 4.1282     |   4.2 |  8.71
Comm    | 0.54328    | 2.2758     | 3.8602     |  63.9 |  5.05
Output  | 0.00072375 | 0.00079502 | 0.001244   |   0.0 |  0.00
Modify  | 7.0101     | 7.2112     | 7.2973     |   3.1 | 16.00
Other   |            | 0.04515    |            |       |  0.10

Nlocal:         46.625 ave          52 max          39 min
Histogram: 1 1 0 1 0 0 1 0 2 2
Nghost:        3230.25 ave        3272 max        3194 min
Histogram: 1 2 1 0 0 0 2 0 1 1
Neighs:        25699.8 ave       28311 max       21971 min
Histogram: 1 1 0 1 0 0 1 0 2 2

Total # of neighbors = 205598
Ave neighs/atom = 551.20107
Ave special neighs/atom = 0
Neighbor list builds = 200
Dangerous builds not checked
System init for write_data ...
System init for write_restart ...
  using 2 OpenMP thread(s) per MPI task
Reading restart file ...
  restart file = 2 Aug 2023, LAMMPS = 2 Aug 2023
  restoring atom style full from restart
  triclinic box = (0 0 0) to (19.0492 14.0575 17.55) with tilt (-10.7944 1.3894 -3.3406)
WARNING: Triclinic box skew is large. LAMMPS will run inefficiently. (src/domain.cpp:220)
  2 by 2 by 2 MPI processor grid
  pair style reaxff stores no restart info
  373 atoms
Finding 1-2 1-3 1-4 neighbors ...
  special bond factors lj:    0        0        0       
  special bond factors coul:  0        0        0       
     0 = max # of 1-2 neighbors
     0 = max # of 1-3 neighbors
     0 = max # of 1-4 neighbors
     1 = max # of special neighbors
  special bonds CPU = 0.000 seconds
  read_restart CPU = 0.002 seconds
*****Negative-deform 1 starts.*****
Neighbor list info ...
  update: every = 10 steps, delay = 0 steps, check = no
  max neighbors/atom: 2000, page size: 100000
  master list distance cutoff = 12
  ghost atom cutoff = 12
  binsize = 6, bins = 6 3 3
  2 neighbor lists, perpetual/occasional/extra = 2 0 0
  (1) pair reaxff, perpetual
      attributes: half, newton off, ghost
      pair build: half/bin/newtoff/ghost
      stencil: full/ghost/bin/3d
      bin: standard
  (2) fix qeq/reaxff, perpetual, copy from (1)
      attributes: half, newton off
      pair build: copy
      stencil: none
      bin: none
Setting up Verlet run ...
  Unit style    : real
  Current step  : 0
  Time step     : 0.5
Per MPI rank memory allocation (min/avg/max) = 124.9 | 126.6 | 128.4 Mbytes
   Step          Temp          PotEng         Press        f_avgp[1]        Volume    
         0   304.55252     -40394.257     -772.61767      0              4699.6115    
       100   294.33875     -40396.029     -2328.2967     -5262.824       4697.2617    
       200   314.16735     -40428.258      6462.6677     -3467.9151      4694.9119    
       300   304.25807     -40414.293      3004.7372     -7108.5936      4692.562     
       400   330.27607     -40414.43      -8607.2486     -4463.1676      4690.2122    
       500   292.02037     -40394.981     -5976.3748     -6391.5517      4687.8624    
       600   309.22252     -40424.923      10210.931     -5649.3718      4685.5126    
       700   281.49776     -40436.11      -5767.3959     -3407.5085      4683.1628    
       800   297.67239     -40431.986      875.66573     -7196.795       4680.813     
       900   299.75842     -40424.97      -5266.5714     -2519.2355      4678.4632    
      1000   327.69118     -40458.166     -10198.48      -2913.1915      4676.1134    
      1100   307.27172     -40428.701     -2572.2496     -4730.0555      4673.7636    
      1200   311.38834     -40457.849     -5673.4296     -6325.0817      4671.4138    
      1300   307.91803     -40469.249     -11921.973     -4299.4098      4669.064     
      1400   309.50458     -40477.202     -704.34965     -1812.1864      4666.7142    
      1500   302.12599     -40469.141     -9305.5805     -1615.5824      4664.3644    
      1600   271.90408     -40462.893     -12631.283     -5078.2329      4662.0146    
      1700   295.10652     -40461.764     -1569.0829     -2224.1109      4659.6648    
      1800   291.33978     -40489.165     -1048.313      -722.76449      4657.315     
      1900   297.05994     -40490.714     -15719.221     -6999.645       4654.9652    
      2000   298.59104     -40485.539     -11454.485     -7229.9783      4652.6153    
Loop time of 43.8942 on 16 procs for 2000 steps with 373 atoms

Performance: 1.968 ns/day, 12.193 hours/ns, 45.564 timesteps/s, 16.995 katom-step/s
99.4% CPU use with 8 MPI tasks x 2 OpenMP threads

MPI task timing breakdown:
Section |  min time  |  avg time  |  max time  |%varavg| %total
---------------------------------------------------------------
Pair    | 29.262     | 30.937     | 32.322     |  17.3 | 70.48
Bond    | 0.00028781 | 0.00037921 | 0.00052742 |   0.0 |  0.00
Neigh   | 3.9557     | 4.0608     | 4.1968     |   3.7 |  9.25
Comm    | 0.39182    | 1.7735     | 3.4526     |  72.4 |  4.04
Output  | 0.0031904  | 0.004809   | 0.0057738  |   1.4 |  0.01
Modify  | 6.9366     | 7.0733     | 7.1752     |   2.8 | 16.11
Other   |            | 0.04438    |            |       |  0.10

Nlocal:         46.625 ave          54 max          36 min
Histogram: 1 0 0 1 0 2 2 0 1 1
Nghost:        3083.12 ave        3120 max        3042 min
Histogram: 1 1 0 1 0 1 2 0 1 1
Neighs:          25957 ave       29819 max       20390 min
Histogram: 1 0 0 1 0 2 2 0 1 1

Total # of neighbors = 207656
Ave neighs/atom = 556.7185
Ave special neighs/atom = 0
Neighbor list builds = 200
Dangerous builds not checked
  using 2 OpenMP thread(s) per MPI task
Reading restart file ...
  restart file = 2 Aug 2023, LAMMPS = 2 Aug 2023
  restoring atom style full from restart
  triclinic box = (0 0 0) to (19.0492 14.0575 17.55) with tilt (-10.7944 1.3894 -3.3406)
WARNING: Triclinic box skew is large. LAMMPS will run inefficiently. (src/domain.cpp:220)
  2 by 2 by 2 MPI processor grid
  pair style reaxff stores no restart info
  373 atoms
Finding 1-2 1-3 1-4 neighbors ...
  special bond factors lj:    0        0        0       
  special bond factors coul:  0        0        0       
     0 = max # of 1-2 neighbors
     0 = max # of 1-3 neighbors
     0 = max # of 1-4 neighbors
     1 = max # of special neighbors
  special bonds CPU = 0.000 seconds
  read_restart CPU = 0.002 seconds
*****Positive-deform 1 starts.*****
Neighbor list info ...
  update: every = 10 steps, delay = 0 steps, check = no
  max neighbors/atom: 2000, page size: 100000
  master list distance cutoff = 12
  ghost atom cutoff = 12
  binsize = 6, bins = 6 3 3
  2 neighbor lists, perpetual/occasional/extra = 2 0 0
  (1) pair reaxff, perpetual
      attributes: half, newton off, ghost
      pair build: half/bin/newtoff/ghost
      stencil: full/ghost/bin/3d
      bin: standard
  (2) fix qeq/reaxff, perpetual, copy from (1)
      attributes: half, newton off
      pair build: copy
      stencil: none
      bin: none
Setting up Verlet run ...
  Unit style    : real
  Current step  : 0
  Time step     : 0.5
Per MPI rank memory allocation (min/avg/max) = 124.9 | 126.6 | 128.4 Mbytes
   Step          Temp          PotEng         Press        f_avgp[1]        Volume    
         0   304.55252     -40394.257     -772.61767      0              4699.6115    
       100   294.33875     -40396.029     -2325.9695     -5263.0254      4701.9613    
       200   299.44736     -40415.145      7477.393      -3453.7996      4704.3111    
       300   278.87129     -40401.902     -3692.6589     -4661.0901      4706.6609    
       400   301.99305     -40421.255     -3383.1933     -6307.2716      4709.0107    
       500   297.42358     -40385.063      2642.279      -6189.8342      4711.3605    
       600   302.96448     -40394.529     -4877.148      -4133.9689      4713.7103    
       700   307.23172     -40366.931     -739.00787     -2367.0392      4716.0601    
       800   306.25421     -40392.733     -4950.5627     -3842.2608      4718.4099    
       900   301.60571     -40409.164     -7607.9572     -10490.081      4720.7597    
      1000   283.63762     -40418.182     -15020.048     -7298.8029      4723.1095    
      1100   312.91185     -40436.386     -8022.9708     -108.88502      4725.4593    
      1200   299.88649     -40458.018     -2659.9529     -1656.8148      4727.8091    
      1300   303.66813     -40438.745      326.60728     -708.15505      4730.1589    
      1400   295.83866     -40439.47      -5168.6424     -1522.6167      4732.5087    
      1500   303.51604     -40441.336     -4204.2768     -4919.4878      4734.8585    
      1600   297.41811     -40461.133      1959.1247     -5027.9498      4737.2084    
      1700   299.47061     -40453.244     -5453.0158     -8141.1636      4739.5582    
      1800   315.02974     -40460.028     -4670.3501     -1596.1802      4741.908     
      1900   292.69689     -40442.572     -6965.514      -3439.4326      4744.2578    
      2000   285.42842     -40468.89      -3114.8526     -4133.95        4746.6076    
Loop time of 43.8832 on 16 procs for 2000 steps with 373 atoms

Performance: 1.969 ns/day, 12.190 hours/ns, 45.576 timesteps/s, 17.000 katom-step/s
99.2% CPU use with 8 MPI tasks x 2 OpenMP threads

MPI task timing breakdown:
Section |  min time  |  avg time  |  max time  |%varavg| %total
---------------------------------------------------------------
Pair    | 28.937     | 30.699     | 32.337     |  19.1 | 69.96
Bond    | 0.00029029 | 0.00037174 | 0.00053871 |   0.0 |  0.00
Neigh   | 3.9431     | 4.0373     | 4.1448     |   3.7 |  9.20
Comm    | 0.37362    | 2.0111     | 3.7762     |  74.6 |  4.58
Output  | 0.0031445  | 0.0047657  | 0.0057456  |   1.4 |  0.01
Modify  | 6.9824     | 7.0881     | 7.181      |   2.8 | 16.15
Other   |            | 0.043      |            |       |  0.10

Nlocal:         46.625 ave          54 max          38 min
Histogram: 1 1 0 2 0 0 0 1 1 2
Nghost:        3079.75 ave        3125 max        3043 min
Histogram: 2 1 1 0 0 1 1 0 0 2
Neighs:        25421.6 ave       28971 max       20986 min
Histogram: 1 1 0 2 0 0 0 1 1 2

Total # of neighbors = 203373
Ave neighs/atom = 545.23592
Ave special neighs/atom = 0
Neighbor list builds = 200
Dangerous builds not checked
  using 2 OpenMP thread(s) per MPI task
Reading restart file ...
  restart file = 2 Aug 2023, LAMMPS = 2 Aug 2023
  restoring atom style full from restart
  triclinic box = (0 0 0) to (19.0492 14.0575 17.55) with tilt (-10.7944 1.3894 -3.3406)
WARNING: Triclinic box skew is large. LAMMPS will run inefficiently. (src/domain.cpp:220)
  2 by 2 by 2 MPI processor grid
  pair style reaxff stores no restart info
  373 atoms
Finding 1-2 1-3 1-4 neighbors ...
  special bond factors lj:    0        0        0       
  special bond factors coul:  0        0        0       
     0 = max # of 1-2 neighbors
     0 = max # of 1-3 neighbors
     0 = max # of 1-4 neighbors
     1 = max # of special neighbors
  special bonds CPU = 0.000 seconds
  read_restart CPU = 0.002 seconds
*****Negative-deform 2 starts.*****
Neighbor list info ...
  update: every = 10 steps, delay = 0 steps, check = no
  max neighbors/atom: 2000, page size: 100000
  master list distance cutoff = 12
  ghost atom cutoff = 12
  binsize = 6, bins = 6 3 3
  2 neighbor lists, perpetual/occasional/extra = 2 0 0
  (1) pair reaxff, perpetual
      attributes: half, newton off, ghost
      pair build: half/bin/newtoff/ghost
      stencil: full/ghost/bin/3d
      bin: standard
  (2) fix qeq/reaxff, perpetual, copy from (1)
      attributes: half, newton off
      pair build: copy
      stencil: none
      bin: none
Setting up Verlet run ...
  Unit style    : real
  Current step  : 0
  Time step     : 0.5
Per MPI rank memory allocation (min/avg/max) = 124.9 | 126.6 | 128.4 Mbytes
   Step          Temp          PotEng         Press        f_avgp[1]        Volume    
         0   304.55252     -40394.257     -772.61767      0              4699.6115    
       100   294.33875     -40396.029     -2328.2967     -5262.824       4697.2617    
       200   299.56791     -40415.644      7080.358      -3430.2184      4694.9119    
       300   289.66197     -40406.368     -1402.8658     -4312.1779      4692.562     
       400   291.86311     -40416.868     -4597.6456     -6784.8095      4690.2122    
       500   291.39576     -40424.357     -3858.9291     -5856.8656      4687.8624    
       600   292.46053     -40435.01      -6341.448      -7055.1509      4685.5126    
       700   290.3717      -40451.142     -9345.1398     -5654.7007      4683.1628    
       800   300.39491     -40454.974     -14889.7       -6867.6072      4680.813     
       900   310.26122     -40455.157     -2784.4029     -5833.0553      4678.4632    
      1000   294.89773     -40483.691     -4746.5859     -3550.8364      4676.1134    
      1100   313.36108     -40507.344     -12252.104     -5531.5621      4673.7636    
      1200   292.5119      -40502.131     -11725.472     -6321.5121      4671.4138    
      1300   319.98396     -40517.907     -5623.1347     -5692.6407      4669.064     
      1400   297.65384     -40515.36      -8743.1554      407.82986      4666.7142    
      1500   322.16098     -40524.395     -8463.4671     -3750.4693      4664.3644    
      1600   318.0617      -40515.932      1774.0323     -1725.1842      4662.0146    
      1700   326.06861     -40527.609     -1547.761      -3744.6051      4659.6648    
      1800   310.79007     -40526.847     -9130.8812     -4115.4036      4657.315     
      1900   286.51157     -40501.189     -9989.6208     -658.16216      4654.9652    
      2000   316.24453     -40532.06       8037.7219     -4908.3345      4652.6153    
Loop time of 44.3403 on 16 procs for 2000 steps with 373 atoms

Performance: 1.949 ns/day, 12.317 hours/ns, 45.106 timesteps/s, 16.824 katom-step/s
99.3% CPU use with 8 MPI tasks x 2 OpenMP threads

MPI task timing breakdown:
Section |  min time  |  avg time  |  max time  |%varavg| %total
---------------------------------------------------------------
Pair    | 29.377     | 31.221     | 32.63      |  18.7 | 70.41
Bond    | 0.00030291 | 0.00038626 | 0.00052786 |   0.0 |  0.00
Neigh   | 3.9715     | 4.087      | 4.2348     |   4.5 |  9.22
Comm    | 0.48322    | 1.8887     | 3.7381     |  75.9 |  4.26
Output  | 0.0031734  | 0.0052491  | 0.0062519  |   1.7 |  0.01
Modify  | 6.9463     | 7.0947     | 7.2086     |   3.4 | 16.00
Other   |            | 0.04277    |            |       |  0.10

Nlocal:         46.625 ave          54 max          38 min
Histogram: 1 0 2 0 0 1 1 1 0 2
Nghost:        3093.88 ave        3140 max        3058 min
Histogram: 2 1 1 0 0 1 1 0 1 1
Neighs:        25925.8 ave       29762 max       21538 min
Histogram: 1 0 2 0 1 0 1 1 0 2

Total # of neighbors = 207406
Ave neighs/atom = 556.04826
Ave special neighs/atom = 0
Neighbor list builds = 200
Dangerous builds not checked
  using 2 OpenMP thread(s) per MPI task
Reading restart file ...
  restart file = 2 Aug 2023, LAMMPS = 2 Aug 2023
  restoring atom style full from restart
  triclinic box = (0 0 0) to (19.0492 14.0575 17.55) with tilt (-10.7944 1.3894 -3.3406)
WARNING: Triclinic box skew is large. LAMMPS will run inefficiently. (src/domain.cpp:220)
  2 by 2 by 2 MPI processor grid
  pair style reaxff stores no restart info
  373 atoms
Finding 1-2 1-3 1-4 neighbors ...
  special bond factors lj:    0        0        0       
  special bond factors coul:  0        0        0       
     0 = max # of 1-2 neighbors
     0 = max # of 1-3 neighbors
     0 = max # of 1-4 neighbors
     1 = max # of special neighbors
  special bonds CPU = 0.000 seconds
  read_restart CPU = 0.002 seconds
*****Positive-deform 2 starts.*****
Neighbor list info ...
  update: every = 10 steps, delay = 0 steps, check = no
  max neighbors/atom: 2000, page size: 100000
  master list distance cutoff = 12
  ghost atom cutoff = 12
  binsize = 6, bins = 6 3 3
  2 neighbor lists, perpetual/occasional/extra = 2 0 0
  (1) pair reaxff, perpetual
      attributes: half, newton off, ghost
      pair build: half/bin/newtoff/ghost
      stencil: full/ghost/bin/3d
      bin: standard
  (2) fix qeq/reaxff, perpetual, copy from (1)
      attributes: half, newton off
      pair build: copy
      stencil: none
      bin: none
Setting up Verlet run ...
  Unit style    : real
  Current step  : 0
  Time step     : 0.5
Per MPI rank memory allocation (min/avg/max) = 124.9 | 126.6 | 128.4 Mbytes
   Step          Temp          PotEng         Press        f_avgp[1]        Volume    
         0   304.55252     -40394.257     -772.61767      0              4699.6115    
       100   294.33875     -40396.029     -2325.9695     -5263.0254      4701.9613    
       200   299.93975     -40404.162      3904.1521     -3173.8165      4704.3111    
       300   270.89353     -40417.4       -12776.284     -5910.0867      4706.6609    
       400   306.25654     -40444.145     -5397.7877     -4997.2145      4709.0107    
       500   299.06993     -40424.351      649.32546      1056.0179      4711.3605    
       600   307.80417     -40424.27      -8584.6996     -3179.4176      4713.7103    
       700   321.65911     -40461.806     -14566.673     -3536.2128      4716.0601    
       800   302.57839     -40450.972     -146.33134     -6094.8344      4718.4099    
       900   313.53187     -40435.058      1730.3839     -5341.929       4720.7597    
      1000   296.52769     -40403.341     -8198.4261     -4167.7224      4723.1095    
      1100   319.87506     -40428.152     -9625.7001     -5653.9053      4725.4593    
      1200   325.91885     -40448.774     -2888.6978     -5276.6128      4727.8091    
      1300   310.728       -40463.567     -5271.7315     -4076.8049      4730.1589    
      1400   327.43948     -40471.458      2961.1248     -3245.2709      4732.5087    
      1500   294.14352     -40457.361     -3097.7102     -3842.0369      4734.8585    
      1600   311.60533     -40471.642     -16127.191      406.50367      4737.2084    
      1700   308.65378     -40505.126     -7986.0234     -4633.5622      4739.5582    
      1800   301.05865     -40485.511      7484.0138     -8524.6227      4741.908     
      1900   298.91854     -40505.29      -7175.3265     -4617.9657      4744.2578    
      2000   305.4277      -40495.824     -6382.223      -2133.4197      4746.6076    
Loop time of 43.7236 on 16 procs for 2000 steps with 373 atoms

Performance: 1.976 ns/day, 12.145 hours/ns, 45.742 timesteps/s, 17.062 katom-step/s
99.4% CPU use with 8 MPI tasks x 2 OpenMP threads

MPI task timing breakdown:
Section |  min time  |  avg time  |  max time  |%varavg| %total
---------------------------------------------------------------
Pair    | 28.827     | 30.528     | 32.147     |  19.9 | 69.82
Bond    | 0.00028205 | 0.00037812 | 0.00053364 |   0.0 |  0.00
Neigh   | 3.9364     | 4.0195     | 4.1248     |   3.3 |  9.19
Comm    | 0.41558    | 2.0341     | 3.7387     |  76.9 |  4.65
Output  | 0.0030898  | 0.0047748  | 0.0057032  |   1.4 |  0.01
Modify  | 6.991      | 7.0949     | 7.1792     |   2.5 | 16.23
Other   |            | 0.04244    |            |       |  0.10

Nlocal:         46.625 ave          62 max          40 min
Histogram: 3 0 2 1 0 1 0 0 0 1
Nghost:        3042.12 ave        3088 max        3002 min
Histogram: 2 1 1 0 0 1 0 0 2 1
Neighs:        25428.1 ave       33104 max       22120 min
Histogram: 3 0 2 1 1 0 0 0 0 1

Total # of neighbors = 203425
Ave neighs/atom = 545.37534
Ave special neighs/atom = 0
Neighbor list builds = 200
Dangerous builds not checked
  using 2 OpenMP thread(s) per MPI task
Reading restart file ...
  restart file = 2 Aug 2023, LAMMPS = 2 Aug 2023
  restoring atom style full from restart
  triclinic box = (0 0 0) to (19.0492 14.0575 17.55) with tilt (-10.7944 1.3894 -3.3406)
WARNING: Triclinic box skew is large. LAMMPS will run inefficiently. (src/domain.cpp:220)
  2 by 2 by 2 MPI processor grid
  pair style reaxff stores no restart info
  373 atoms
Finding 1-2 1-3 1-4 neighbors ...
  special bond factors lj:    0        0        0       
  special bond factors coul:  0        0        0       
     0 = max # of 1-2 neighbors
     0 = max # of 1-3 neighbors
     0 = max # of 1-4 neighbors
     1 = max # of special neighbors
  special bonds CPU = 0.000 seconds
  read_restart CPU = 0.002 seconds
*****Negative-deform 3 starts.*****
Neighbor list info ...
  update: every = 10 steps, delay = 0 steps, check = no
  max neighbors/atom: 2000, page size: 100000
  master list distance cutoff = 12
  ghost atom cutoff = 12
  binsize = 6, bins = 6 3 3
  2 neighbor lists, perpetual/occasional/extra = 2 0 0
  (1) pair reaxff, perpetual
      attributes: half, newton off, ghost
      pair build: half/bin/newtoff/ghost
      stencil: full/ghost/bin/3d
      bin: standard
  (2) fix qeq/reaxff, perpetual, copy from (1)
      attributes: half, newton off
      pair build: copy
      stencil: none
      bin: none
Setting up Verlet run ...
  Unit style    : real
  Current step  : 0
  Time step     : 0.5
Per MPI rank memory allocation (min/avg/max) = 124.9 | 126.5 | 128.4 Mbytes
   Step          Temp          PotEng         Press        f_avgp[1]        Volume    
         0   304.55252     -40394.257     -772.61767      0              4699.6115    
       100   294.33875     -40396.029     -2328.2967     -5262.824       4697.2617    
       200   302.26281     -40404.824      3625.3399     -4830.7123      4694.9119    
       300   279.17312     -40400.114      10538.062     -1179.1882      4692.562     
       400   293.90131     -40413.475      2146.9116     -4075.7534      4690.2122    
       500   303.31007     -40418.601     -7759.1408     -3038.6877      4687.8624    
       600   293.53028     -40414.462     -14803.494     -6486.9739      4685.5126    
       700   303.80688     -40428.992     -2727.449      -6065.4669      4683.1628    
       800   295.89906     -40429.737     -4258.8161     -7189.4546      4680.813     
       900   295.68134     -40419.367     -8137.3208     -9505.1192      4678.4632    
      1000   281.29801     -40449.948     -2334.4295     -6498.9541      4676.1134    
      1100   325.06455     -40422.163     -17976.846     -6161.9791      4673.7636    
      1200   296.65269     -40441.843     -10212.115     -4477.7605      4671.4138    
      1300   314.04567     -40422.589     -6869.7488     -2863.4767      4669.064     
      1400   312.46761     -40446.148     -2232.9089     -2491.2489      4666.7142    
      1500   288.8913      -40452.061     -673.61462     -4477.5516      4664.3644    
      1600   308.65512     -40440.117     -3469.9823      358.58213      4662.0146    
      1700   310.90078     -40457.253     -299.17901     -1657.0467      4659.6648    
      1800   301.12144     -40457.358     -7073.9843     -6822.8723      4657.315     
      1900   289.39073     -40461.901      296.89428     -5248.5234      4654.9652    
      2000   295.7211      -40464.392     -10372.198     -1359.0627      4652.6153    
Loop time of 45.7603 on 16 procs for 2000 steps with 373 atoms

Performance: 1.888 ns/day, 12.711 hours/ns, 43.706 timesteps/s, 16.302 katom-step/s
99.6% CPU use with 8 MPI tasks x 2 OpenMP threads

MPI task timing breakdown:
Section |  min time  |  avg time  |  max time  |%varavg| %total
---------------------------------------------------------------
Pair    | 29.898     | 32.22      | 34.013     |  22.7 | 70.41
Bond    | 0.00029446 | 0.00039141 | 0.0005883  |   0.0 |  0.00
Neigh   | 3.8587     | 3.9564     | 4.0777     |   3.6 |  8.65
Comm    | 0.41386    | 2.2119     | 4.5401     |  86.8 |  4.83
Output  | 0.0032552  | 0.0054265  | 0.006488   |   1.7 |  0.01
Modify  | 7.1959     | 7.3209     | 7.4201     |   2.7 | 16.00
Other   |            | 0.0449     |            |       |  0.10

Nlocal:         46.625 ave          57 max          37 min
Histogram: 1 1 0 2 1 0 0 1 1 1
Nghost:        3280.88 ave        3326 max        3237 min
Histogram: 2 1 0 1 0 0 1 1 0 2
Neighs:        25954.9 ave       31338 max       20829 min
Histogram: 1 1 0 2 1 0 0 1 1 1

Total # of neighbors = 207639
Ave neighs/atom = 556.67292
Ave special neighs/atom = 0
Neighbor list builds = 200
Dangerous builds not checked
  using 2 OpenMP thread(s) per MPI task
Reading restart file ...
  restart file = 2 Aug 2023, LAMMPS = 2 Aug 2023
  restoring atom style full from restart
  triclinic box = (0 0 0) to (19.0492 14.0575 17.55) with tilt (-10.7944 1.3894 -3.3406)
WARNING: Triclinic box skew is large. LAMMPS will run inefficiently. (src/domain.cpp:220)
  2 by 2 by 2 MPI processor grid
  pair style reaxff stores no restart info
  373 atoms
Finding 1-2 1-3 1-4 neighbors ...
  special bond factors lj:    0        0        0       
  special bond factors coul:  0        0        0       
     0 = max # of 1-2 neighbors
     0 = max # of 1-3 neighbors
     0 = max # of 1-4 neighbors
     1 = max # of special neighbors
  special bonds CPU = 0.000 seconds
  read_restart CPU = 0.002 seconds
*****Positive-deform 3 starts.*****
Neighbor list info ...
  update: every = 10 steps, delay = 0 steps, check = no
  max neighbors/atom: 2000, page size: 100000
  master list distance cutoff = 12
  ghost atom cutoff = 12
  binsize = 6, bins = 6 3 3
  2 neighbor lists, perpetual/occasional/extra = 2 0 0
  (1) pair reaxff, perpetual
      attributes: half, newton off, ghost
      pair build: half/bin/newtoff/ghost
      stencil: full/ghost/bin/3d
      bin: standard
  (2) fix qeq/reaxff, perpetual, copy from (1)
      attributes: half, newton off
      pair build: copy
      stencil: none
      bin: none
Setting up Verlet run ...
  Unit style    : real
  Current step  : 0
  Time step     : 0.5
Per MPI rank memory allocation (min/avg/max) = 124.9 | 126.5 | 128.4 Mbytes
   Step          Temp          PotEng         Press        f_avgp[1]        Volume    
         0   304.55252     -40394.257     -772.61767      0              4699.6115    
       100   294.33875     -40396.029     -2325.9695     -5263.0254      4701.9613    
       200   294.72591     -40404.731      3479.2084     -5313.6501      4704.3111    
       300   294.8598      -40389.34       3042.8822     -1667.9897      4706.6609    
       400   310.82843     -40421.714     -7484.6319     -3614.8446      4709.0107    
       500   293.55562     -40423.098     -4555.0214     -2771.4719      4711.3605    
       600   288.59648     -40410.683     -7232.495      -7098.2567      4713.7103    
       700   319.83204     -40414.734     -519.79504     -3732.5037      4716.0601    
       800   315.1783      -40424.807     -3535.7432     -2365.1979      4718.4099    
       900   310.06594     -40424.399     -459.7442      -3259.3689      4720.7597    
      1000   319.09161     -40422.278     -9051.063      -5807.4792      4723.1095    
      1100   313.00014     -40415.786     -1771.6367     -4893.1018      4725.4593    
      1200   317.99708     -40434.803     -9522.4611     -7122.3835      4727.8091    
      1300   310.89597     -40436.069      2700.0397     -580.23679      4730.1589    
      1400   300.23782     -40420.471     -1624.3637     -1003.5103      4732.5087    
      1500   288.08928     -40432.977     -10266.727     -6603.9485      4734.8585    
      1600   314.06418     -40444.321      4261.0767     -4138.1663      4737.2084    
      1700   299.4514      -40446.789      8830.5168     -4760.1004      4739.5582    
      1800   305.1206      -40461.281      104.48348     -10623.85       4741.908     
      1900   334.75369     -40457.466      3569.9994     -4327.55        4744.2578    
      2000   286.4813      -40461.078     -8228.0463     -3205.2961      4746.6076    
Loop time of 45.3334 on 16 procs for 2000 steps with 373 atoms

Performance: 1.906 ns/day, 12.593 hours/ns, 44.118 timesteps/s, 16.456 katom-step/s
99.7% CPU use with 8 MPI tasks x 2 OpenMP threads

MPI task timing breakdown:
Section |  min time  |  avg time  |  max time  |%varavg| %total
---------------------------------------------------------------
Pair    | 29.396     | 31.947     | 33.345     |  23.2 | 70.47
Bond    | 0.00029852 | 0.00038751 | 0.00053792 |   0.0 |  0.00
Neigh   | 3.8313     | 3.9236     | 4.0472     |   3.4 |  8.65
Comm    | 0.85662    | 2.2573     | 4.8099     |  87.3 |  4.98
Output  | 0.0028656  | 0.0051318  | 0.0062412  |   1.8 |  0.01
Modify  | 7.0278     | 7.1546     | 7.2493     |   2.6 | 15.78
Other   |            | 0.04483    |            |       |  0.10

Nlocal:         46.625 ave          58 max          35 min
Histogram: 1 1 0 1 1 1 1 0 1 1
Nghost:           3199 ave        3279 max        3130 min
Histogram: 1 2 1 0 0 0 2 0 1 1
Neighs:        25447.1 ave       31054 max       19702 min
Histogram: 1 1 0 1 1 1 1 0 1 1

Total # of neighbors = 203577
Ave neighs/atom = 545.78284
Ave special neighs/atom = 0
Neighbor list builds = 200
Dangerous builds not checked
  using 2 OpenMP thread(s) per MPI task
Reading restart file ...
  restart file = 2 Aug 2023, LAMMPS = 2 Aug 2023
  restoring atom style full from restart
  triclinic box = (0 0 0) to (19.0492 14.0575 17.55) with tilt (-10.7944 1.3894 -3.3406)
WARNING: Triclinic box skew is large. LAMMPS will run inefficiently. (src/domain.cpp:220)
  2 by 2 by 2 MPI processor grid
  pair style reaxff stores no restart info
  373 atoms
Finding 1-2 1-3 1-4 neighbors ...
  special bond factors lj:    0        0        0       
  special bond factors coul:  0        0        0       
     0 = max # of 1-2 neighbors
     0 = max # of 1-3 neighbors
     0 = max # of 1-4 neighbors
     1 = max # of special neighbors
  special bonds CPU = 0.000 seconds
  read_restart CPU = 0.002 seconds
*****Negative-deform 4 starts.*****
Neighbor list info ...
  update: every = 10 steps, delay = 0 steps, check = no
  max neighbors/atom: 2000, page size: 100000
  master list distance cutoff = 12
  ghost atom cutoff = 12
  binsize = 6, bins = 6 3 3
  2 neighbor lists, perpetual/occasional/extra = 2 0 0
  (1) pair reaxff, perpetual
      attributes: half, newton off, ghost
      pair build: half/bin/newtoff/ghost
      stencil: full/ghost/bin/3d
      bin: standard
  (2) fix qeq/reaxff, perpetual, copy from (1)
      attributes: half, newton off
      pair build: copy
      stencil: none
      bin: none
Setting up Verlet run ...
  Unit style    : real
  Current step  : 0
  Time step     : 0.5
Per MPI rank memory allocation (min/avg/max) = 124.9 | 126.6 | 128.4 Mbytes
   Step          Temp          PotEng         Press        f_avgp[1]        Volume    
         0   304.55252     -40394.257     -772.61767      0              4699.6115    
       100   294.33875     -40396.029     -2327.1325     -5262.9247      4699.6115    
       200   299.71179     -40415.545      7444.4631     -3310.2765      4699.6115    
       300   296.71709     -40406.21      -9137.7582     -6235.5096      4699.6115    
       400   305.18861     -40417.215     -8635.5289     -5518.3201      4699.6115    
       500   313.62195     -40395.248     -237.52405     -3749.9984      4699.6115    
       600   299.09438     -40402.753     -11176.478     -7771.7295      4699.6115    
       700   303.17802     -40413.499     -10281.813     -4821.1941      4699.6115    
       800   307.64933     -40447.262      10744.844     -2349.1163      4699.6115    
       900   312.10613     -40457.194     -6059.2797     -4604.704       4699.6115    
      1000   314.2586      -40454.568     -6075.0536     -5214.957       4699.6115    
      1100   312.00922     -40458.742     -9574.5925     -5186.389       4699.6115    
      1200   317.60807     -40471.468     -2836.1585     -2660.7601      4699.6115    
      1300   308.59106     -40454.734      6394.8445     -6634.0547      4699.6115    
      1400   310.12841     -40464.168     -2100.4516     -7946.1852      4699.6115    
      1500   292.88115     -40437.668      809.06648     -4633.9727      4699.6115    
      1600   304.67085     -40478.055     -10446.717     -6050.6053      4699.6115    
      1700   299.94778     -40452.742      10442.371     -1245.4361      4699.6115    
      1800   305.25509     -40464.104     -2693.4398     -1491.5087      4699.6115    
      1900   297.21198     -40460.993      4620.1335     -4114.3681      4699.6115    
      2000   299.99921     -40473.406      7302.16       -5189.7528      4699.6115    
Loop time of 44.0953 on 16 procs for 2000 steps with 373 atoms

Performance: 1.959 ns/day, 12.249 hours/ns, 45.356 timesteps/s, 16.918 katom-step/s
99.6% CPU use with 8 MPI tasks x 2 OpenMP threads

MPI task timing breakdown:
Section |  min time  |  avg time  |  max time  |%varavg| %total
---------------------------------------------------------------
Pair    | 29.224     | 30.973     | 32.425     |  18.2 | 70.24
Bond    | 0.00030829 | 0.00038701 | 0.00054736 |   0.0 |  0.00
Neigh   | 3.9765     | 4.0361     | 4.152      |   2.7 |  9.15
Comm    | 0.537      | 1.9894     | 3.7344     |  71.6 |  4.51
Output  | 0.0031877  | 0.0055646  | 0.0067635  |   1.9 |  0.01
Modify  | 6.9267     | 7.0468     | 7.1059     |   2.1 | 15.98
Other   |            | 0.04422    |            |       |  0.10

Nlocal:         46.625 ave          52 max          40 min
Histogram: 2 1 0 0 0 0 1 1 1 2
Nghost:        3070.88 ave        3088 max        3042 min
Histogram: 1 0 0 2 0 0 0 1 3 1
Neighs:        25681.5 ave       28519 max       22263 min
Histogram: 2 1 0 0 0 0 1 1 1 2

Total # of neighbors = 205452
Ave neighs/atom = 550.80965
Ave special neighs/atom = 0
Neighbor list builds = 200
Dangerous builds not checked
  using 2 OpenMP thread(s) per MPI task
Reading restart file ...
  restart file = 2 Aug 2023, LAMMPS = 2 Aug 2023
  restoring atom style full from restart
  triclinic box = (0 0 0) to (19.0492 14.0575 17.55) with tilt (-10.7944 1.3894 -3.3406)
WARNING: Triclinic box skew is large. LAMMPS will run inefficiently. (src/domain.cpp:220)
  2 by 2 by 2 MPI processor grid
  pair style reaxff stores no restart info
  373 atoms
Finding 1-2 1-3 1-4 neighbors ...
  special bond factors lj:    0        0        0       
  special bond factors coul:  0        0        0       
     0 = max # of 1-2 neighbors
     0 = max # of 1-3 neighbors
     0 = max # of 1-4 neighbors
     1 = max # of special neighbors
  special bonds CPU = 0.000 seconds
  read_restart CPU = 0.002 seconds
*****Positive-deform 4 starts.*****
Neighbor list info ...
  update: every = 10 steps, delay = 0 steps, check = no
  max neighbors/atom: 2000, page size: 100000
  master list distance cutoff = 12
  ghost atom cutoff = 12
  binsize = 6, bins = 6 3 3
  2 neighbor lists, perpetual/occasional/extra = 2 0 0
  (1) pair reaxff, perpetual
      attributes: half, newton off, ghost
      pair build: half/bin/newtoff/ghost
      stencil: full/ghost/bin/3d
      bin: standard
  (2) fix qeq/reaxff, perpetual, copy from (1)
      attributes: half, newton off
      pair build: copy
      stencil: none
      bin: none
Setting up Verlet run ...
  Unit style    : real
  Current step  : 0
  Time step     : 0.5
Per MPI rank memory allocation (min/avg/max) = 124.9 | 126.6 | 128.4 Mbytes
   Step          Temp          PotEng         Press        f_avgp[1]        Volume    
         0   304.55252     -40394.257     -772.61767      0              4699.6115    
       100   294.33875     -40396.029     -2327.1325     -5262.9247      4699.6115    
       200   314.90977     -40430.565      6382.5525     -3591.1577      4699.6115    
       300   304.19995     -40401.538      9264.6924     -5764.188       4699.6115    
       400   324.9297      -40421.42      -4510.0498     -2732.131       4699.6115    
       500   286.97067     -40401.893     -3818.1152     -6965.7628      4699.6115    
       600   297.10662     -40434.545     -3743.4464     -5564.8635      4699.6115    
       700   313.46818     -40422.451      424.81888     -3395.2811      4699.6115    
       800   328.69855     -40415.251      5842.0996     -2759.8133      4699.6115    
       900   297.86946     -40406.112     -1225.2472     -2611.8533      4699.6115    
      1000   285.80138     -40402.081      3395.1035     -2239.6754      4699.6115    
      1100   304.76154     -40431.963     -8501.4049     -1051.2605      4699.6115    
      1200   306.96806     -40423.072     -12216.281     -4644.9398      4699.6115    
      1300   338.92154     -40440.635     -5238.6912     -6215.2452      4699.6115    
      1400   329.61443     -40428.86      -127.0446      -5161.3421      4699.6115    
      1500   305.5606      -40470.863     -14104.186     -3413.849       4699.6115    
      1600   294.9335      -40473.12      -7887.7172     -4896.2575      4699.6115    
      1700   278.12607     -40465.738     -14898.974     -8360.3392      4699.6115    
      1800   319.6149      -40496.945      6045.7534     -10933.853      4699.6115    
      1900   289.59217     -40482.753      1946.1809     -8889.9014      4699.6115    
      2000   306.00915     -40492.035     -2646.6097     -3076.2752      4699.6115    
Loop time of 43.4881 on 16 procs for 2000 steps with 373 atoms

Performance: 1.987 ns/day, 12.080 hours/ns, 45.990 timesteps/s, 17.154 katom-step/s
99.6% CPU use with 8 MPI tasks x 2 OpenMP threads

MPI task timing breakdown:
Section |  min time  |  avg time  |  max time  |%varavg| %total
---------------------------------------------------------------
Pair    | 28.848     | 30.604     | 32.015     |  18.5 | 70.37
Bond    | 0.00028724 | 0.00037556 | 0.0005485  |   0.0 |  0.00
Neigh   | 3.9293     | 4.0071     | 4.1567     |   3.5 |  9.21
Comm    | 0.40897    | 1.8237     | 3.5774     |  75.8 |  4.19
Output  | 0.0030776  | 0.0047524  | 0.0058998  |   1.5 |  0.01
Modify  | 6.8513     | 7.0042     | 7.0822     |   2.7 | 16.11
Other   |            | 0.04426    |            |       |  0.10

Nlocal:         46.625 ave          55 max          39 min
Histogram: 1 1 1 0 0 2 2 0 0 1
Nghost:        3078.88 ave        3117 max        3029 min
Histogram: 1 0 2 0 0 1 0 2 0 2
Neighs:          25658 ave       29918 max       21719 min
Histogram: 1 1 1 0 0 2 2 0 0 1

Total # of neighbors = 205264
Ave neighs/atom = 550.30563
Ave special neighs/atom = 0
Neighbor list builds = 200
Dangerous builds not checked
  using 2 OpenMP thread(s) per MPI task
Reading restart file ...
  restart file = 2 Aug 2023, LAMMPS = 2 Aug 2023
  restoring atom style full from restart
  triclinic box = (0 0 0) to (19.0492 14.0575 17.55) with tilt (-10.7944 1.3894 -3.3406)
WARNING: Triclinic box skew is large. LAMMPS will run inefficiently. (src/domain.cpp:220)
  2 by 2 by 2 MPI processor grid
  pair style reaxff stores no restart info
  373 atoms
Finding 1-2 1-3 1-4 neighbors ...
  special bond factors lj:    0        0        0       
  special bond factors coul:  0        0        0       
     0 = max # of 1-2 neighbors
     0 = max # of 1-3 neighbors
     0 = max # of 1-4 neighbors
     1 = max # of special neighbors
  special bonds CPU = 0.000 seconds
  read_restart CPU = 0.002 seconds
*****Negative-deform 5 starts.*****
Neighbor list info ...
  update: every = 10 steps, delay = 0 steps, check = no
  max neighbors/atom: 2000, page size: 100000
  master list distance cutoff = 12
  ghost atom cutoff = 12
  binsize = 6, bins = 6 3 3
  2 neighbor lists, perpetual/occasional/extra = 2 0 0
  (1) pair reaxff, perpetual
      attributes: half, newton off, ghost
      pair build: half/bin/newtoff/ghost
      stencil: full/ghost/bin/3d
      bin: standard
  (2) fix qeq/reaxff, perpetual, copy from (1)
      attributes: half, newton off
      pair build: copy
      stencil: none
      bin: none
Setting up Verlet run ...
  Unit style    : real
  Current step  : 0
  Time step     : 0.5
Per MPI rank memory allocation (min/avg/max) = 124.9 | 126.6 | 128.4 Mbytes
   Step          Temp          PotEng         Press        f_avgp[1]        Volume    
         0   304.55252     -40394.257     -772.61767      0              4699.6115    
       100   294.33875     -40396.029     -2327.1325     -5262.9247      4699.6115    
       200   299.82781     -40415.624      6761.4599     -3549.1886      4699.6115    
       300   286.30953     -40398.179     -3791.9743     -5370.4168      4699.6115    
       400   298.41762     -40403.633     -7160.2934     -5030.6428      4699.6115    
       500   300.11611     -40389.049     -11549.633     -5342.7397      4699.6115    
       600   308.11622     -40436.242     -2389.0663     -5458.4449      4699.6115    
       700   303.97589     -40441.249     -11735.323     -6038.7084      4699.6115    
       800   302.14579     -40411.623     -6830.1587     -8631.1992      4699.6115    
       900   319.11394     -40411.294      589.95575     -9236.1324      4699.6115    
      1000   311.49841     -40404.645     -17980.563     -4676.616       4699.6115    
      1100   344.77257     -40445.295     -10057.549     -3233.8131      4699.6115    
      1200   311.05559     -40457.317     -8778.0387     -1627.2514      4699.6115    
      1300   305.44035     -40456.812      4233.8522     -2017.6222      4699.6115    
      1400   299.0826      -40463.2       -5263.2726     -515.7653       4699.6115    
      1500   290.15675     -40493.677     -10899.788     -4924.0209      4699.6115    
      1600   301.08408     -40478.656      1198.695      -5418.0615      4699.6115    
      1700   307.95752     -40463.186     -9874.4338     -6869.1359      4699.6115    
      1800   315.90416     -40459.879     -15681.795     -7537.5329      4699.6115    
      1900   284.48959     -40482.422     -716.76109     -3688.76        4699.6115    
      2000   295.48992     -40465.144     -767.00917     -6499.2615      4699.6115    
Loop time of 43.371 on 16 procs for 2000 steps with 373 atoms

Performance: 1.992 ns/day, 12.047 hours/ns, 46.114 timesteps/s, 17.200 katom-step/s
99.6% CPU use with 8 MPI tasks x 2 OpenMP threads

MPI task timing breakdown:
Section |  min time  |  avg time  |  max time  |%varavg| %total
---------------------------------------------------------------
Pair    | 29.062     | 30.531     | 31.793     |  17.8 | 70.40
Bond    | 0.00028901 | 0.00038484 | 0.00055737 |   0.0 |  0.00
Neigh   | 3.9307     | 4.0247     | 4.1601     |   3.8 |  9.28
Comm    | 0.53125    | 1.7987     | 3.2642     |  73.2 |  4.15
Output  | 0.0031023  | 0.0048953  | 0.0060978  |   1.6 |  0.01
Modify  | 6.8291     | 6.9668     | 7.0636     |   2.9 | 16.06
Other   |            | 0.04421    |            |       |  0.10

Nlocal:         46.625 ave          57 max          38 min
Histogram: 1 1 0 1 1 3 0 0 0 1
Nghost:        3067.75 ave        3104 max        3030 min
Histogram: 1 1 1 1 0 0 1 1 0 2
Neighs:        25687.1 ave       30809 max       21266 min
Histogram: 1 1 0 1 1 3 0 0 0 1

Total # of neighbors = 205497
Ave neighs/atom = 550.93029
Ave special neighs/atom = 0
Neighbor list builds = 200
Dangerous builds not checked
  using 2 OpenMP thread(s) per MPI task
Reading restart file ...
  restart file = 2 Aug 2023, LAMMPS = 2 Aug 2023
  restoring atom style full from restart
  triclinic box = (0 0 0) to (19.0492 14.0575 17.55) with tilt (-10.7944 1.3894 -3.3406)
WARNING: Triclinic box skew is large. LAMMPS will run inefficiently. (src/domain.cpp:220)
  2 by 2 by 2 MPI processor grid
  pair style reaxff stores no restart info
  373 atoms
Finding 1-2 1-3 1-4 neighbors ...
  special bond factors lj:    0        0        0       
  special bond factors coul:  0        0        0       
     0 = max # of 1-2 neighbors
     0 = max # of 1-3 neighbors
     0 = max # of 1-4 neighbors
     1 = max # of special neighbors
  special bonds CPU = 0.000 seconds
  read_restart CPU = 0.002 seconds
*****Positive-deform 5 starts.*****
Neighbor list info ...
  update: every = 10 steps, delay = 0 steps, check = no
  max neighbors/atom: 2000, page size: 100000
  master list distance cutoff = 12
  ghost atom cutoff = 12
  binsize = 6, bins = 6 3 3
  2 neighbor lists, perpetual/occasional/extra = 2 0 0
  (1) pair reaxff, perpetual
      attributes: half, newton off, ghost
      pair build: half/bin/newtoff/ghost
      stencil: full/ghost/bin/3d
      bin: standard
  (2) fix qeq/reaxff, perpetual, copy from (1)
      attributes: half, newton off
      pair build: copy
      stencil: none
      bin: none
Setting up Verlet run ...
  Unit style    : real
  Current step  : 0
  Time step     : 0.5
Per MPI rank memory allocation (min/avg/max) = 124.9 | 126.6 | 128.4 Mbytes
   Step          Temp          PotEng         Press        f_avgp[1]        Volume    
         0   304.55252     -40394.257     -772.61767      0              4699.6115    
       100   294.33875     -40396.029     -2327.1325     -5262.9247      4699.6115    
       200   314.76155     -40430.513      6882.0838     -3478.1461      4699.6115    
       300   294.32189     -40403.171      10330.956     -6075.9609      4699.6115    
       400   319.91931     -40395.458     -3422.8693     -5228.165       4699.6115    
       500   335.12548     -40400.814     -5402.6906     -8213.6478      4699.6115    
       600   302.0959      -40424.765     -1684.7843     -8143.7393      4699.6115    
       700   322.62795     -40429.674     -7382.1289     -3595.6084      4699.6115    
       800   314.36643     -40447.23      -2583.8979     -1864.0244      4699.6115    
       900   277.45019     -40430.689      240.9927      -8009.9771      4699.6115    
      1000   299.94758     -40464.664     -3057.7946     -3375.6956      4699.6115    
      1100   293.8124      -40429.263     -3649.0052     -2290.0644      4699.6115    
      1200   317.10332     -40447.327     -12948.881     -7156.8237      4699.6115    
      1300   300.92607     -40458.752     -9112.9471     -2171.4212      4699.6115    
      1400   286.64881     -40475.967     -8990.4153     -2937.301       4699.6115    
      1500   307.57149     -40498.101     -4597.9693     -3710.0087      4699.6115    
      1600   307.82317     -40505.827     -15590.168     -9585.7938      4699.6115    
      1700   303.41954     -40474.056     -3222.9806     -4467.3982      4699.6115    
      1800   307.47913     -40482.049     -6964.6613     -2623.3706      4699.6115    
      1900   305.99441     -40490.536     -9007.9731     -1789.6377      4699.6115    
      2000   310.78402     -40510.725     -7112.6801     -3248.731       4699.6115    
Loop time of 43.8183 on 16 procs for 2000 steps with 373 atoms

Performance: 1.972 ns/day, 12.172 hours/ns, 45.643 timesteps/s, 17.025 katom-step/s
99.7% CPU use with 8 MPI tasks x 2 OpenMP threads

MPI task timing breakdown:
Section |  min time  |  avg time  |  max time  |%varavg| %total
---------------------------------------------------------------
Pair    | 29.151     | 30.805     | 32.262     |  18.3 | 70.30
Bond    | 0.00028775 | 0.0003785  | 0.00053631 |   0.0 |  0.00
Neigh   | 3.9646     | 4.0613     | 4.1749     |   3.7 |  9.27
Comm    | 0.40681    | 1.8684     | 3.5205     |  74.1 |  4.26
Output  | 0.0030451  | 0.0049068  | 0.0060722  |   1.6 |  0.01
Modify  | 6.9202     | 7.0337     | 7.1306     |   2.9 | 16.05
Other   |            | 0.04455    |            |       |  0.10

Nlocal:         46.625 ave          60 max          40 min
Histogram: 2 0 2 1 2 0 0 0 0 1
Nghost:         3087.5 ave        3131 max        3042 min
Histogram: 1 1 1 0 0 2 1 0 1 1
Neighs:        25646.6 ave       32282 max       22233 min
Histogram: 2 0 2 1 2 0 0 0 0 1

Total # of neighbors = 205173
Ave neighs/atom = 550.06166
Ave special neighs/atom = 0
Neighbor list builds = 200
Dangerous builds not checked
  using 2 OpenMP thread(s) per MPI task
Reading restart file ...
  restart file = 2 Aug 2023, LAMMPS = 2 Aug 2023
  restoring atom style full from restart
  triclinic box = (0 0 0) to (19.0492 14.0575 17.55) with tilt (-10.7944 1.3894 -3.3406)
WARNING: Triclinic box skew is large. LAMMPS will run inefficiently. (src/domain.cpp:220)
  2 by 2 by 2 MPI processor grid
  pair style reaxff stores no restart info
  373 atoms
Finding 1-2 1-3 1-4 neighbors ...
  special bond factors lj:    0        0        0       
  special bond factors coul:  0        0        0       
     0 = max # of 1-2 neighbors
     0 = max # of 1-3 neighbors
     0 = max # of 1-4 neighbors
     1 = max # of special neighbors
  special bonds CPU = 0.000 seconds
  read_restart CPU = 0.002 seconds
*****Negative-deform 6 starts.*****
Neighbor list info ...
  update: every = 10 steps, delay = 0 steps, check = no
  max neighbors/atom: 2000, page size: 100000
  master list distance cutoff = 12
  ghost atom cutoff = 12
  binsize = 6, bins = 6 3 3
  2 neighbor lists, perpetual/occasional/extra = 2 0 0
  (1) pair reaxff, perpetual
      attributes: half, newton off, ghost
      pair build: half/bin/newtoff/ghost
      stencil: full/ghost/bin/3d
      bin: standard
  (2) fix qeq/reaxff, perpetual, copy from (1)
      attributes: half, newton off
      pair build: copy
      stencil: none
      bin: none
Setting up Verlet run ...
  Unit style    : real
  Current step  : 0
  Time step     : 0.5
Per MPI rank memory allocation (min/avg/max) = 124.9 | 126.6 | 128.4 Mbytes
   Step          Temp          PotEng         Press        f_avgp[1]        Volume    
         0   304.55252     -40394.257     -772.61767      0              4699.6115    
       100   294.33875     -40396.029     -2327.1325     -5262.9247      4699.6115    
       200   314.77267     -40430.662      6763.4375     -3589.3086      4699.6115    
       300   298.52969     -40406.519      5897.4929     -5860.0384      4699.6115    
       400   299.86308     -40430.93       617.44838     -5789.8046      4699.6115    
       500   293.39415     -40441.059     -7301.9128     -6972.5649      4699.6115    
       600   304.00593     -40446.029     -1992.6912     -4242.8504      4699.6115    
       700   310.91389     -40428.941     -3699.479      -8132.3924      4699.6115    
       800   288.03166     -40405.521     -6649.4784     -4511.9077      4699.6115    
       900   313.43206     -40417.682     -8039.5802     -4972.328       4699.6115    
      1000   309.3176      -40417.707     -4554.5543     -2019.4415      4699.6115    
      1100   302.58725     -40448.199     -11579.645     -2471.4226      4699.6115    
      1200   294.03666     -40501.779      2005.2666      55.797537      4699.6115    
      1300   292.71331     -40483.239     -6620.4093     -2670.0205      4699.6115    
      1400   311.63081     -40495.534      5902.6451     -5180.8445      4699.6115    
      1500   296.5728      -40495.871     -3008.3111     -2556.748       4699.6115    
      1600   325.96474     -40543.34      -13126.965     -4825.2903      4699.6115    
      1700   295.88237     -40534.783     -7562.6512     -11098.492      4699.6115    
      1800   300.83912     -40522.04      -9769.2436     -3197.1722      4699.6115    
      1900   311.422       -40506.017     -15202.462     -3921.5486      4699.6115    
      2000   304.48277     -40492.018     -11074.185     -4452.0913      4699.6115    
Loop time of 43.6692 on 16 procs for 2000 steps with 373 atoms

Performance: 1.979 ns/day, 12.130 hours/ns, 45.799 timesteps/s, 17.083 katom-step/s
99.7% CPU use with 8 MPI tasks x 2 OpenMP threads

MPI task timing breakdown:
Section |  min time  |  avg time  |  max time  |%varavg| %total
---------------------------------------------------------------
Pair    | 29.072     | 30.784     | 32.153     |  17.6 | 70.49
Bond    | 0.0002879  | 0.00038123 | 0.0005457  |   0.0 |  0.00
Neigh   | 3.9578     | 4.032      | 4.1441     |   3.3 |  9.23
Comm    | 0.41969    | 1.7947     | 3.5028     |  72.9 |  4.11
Output  | 0.003095   | 0.0054652  | 0.0069328  |   2.0 |  0.01
Modify  | 6.8942     | 7.0085     | 7.086      |   2.6 | 16.05
Other   |            | 0.04454    |            |       |  0.10

Nlocal:         46.625 ave          56 max          39 min
Histogram: 1 0 2 1 1 1 0 1 0 1
Nghost:        3057.62 ave        3113 max        3008 min
Histogram: 2 1 1 0 0 0 2 0 0 2
Neighs:          25695 ave       30475 max       21826 min
Histogram: 1 0 2 1 1 1 0 1 0 1

Total # of neighbors = 205560
Ave neighs/atom = 551.0992
Ave special neighs/atom = 0
Neighbor list builds = 200
Dangerous builds not checked
  using 2 OpenMP thread(s) per MPI task
Reading restart file ...
  restart file = 2 Aug 2023, LAMMPS = 2 Aug 2023
  restoring atom style full from restart
  triclinic box = (0 0 0) to (19.0492 14.0575 17.55) with tilt (-10.7944 1.3894 -3.3406)
WARNING: Triclinic box skew is large. LAMMPS will run inefficiently. (src/domain.cpp:220)
  2 by 2 by 2 MPI processor grid
  pair style reaxff stores no restart info
  373 atoms
Finding 1-2 1-3 1-4 neighbors ...
  special bond factors lj:    0        0        0       
  special bond factors coul:  0        0        0       
     0 = max # of 1-2 neighbors
     0 = max # of 1-3 neighbors
     0 = max # of 1-4 neighbors
     1 = max # of special neighbors
  special bonds CPU = 0.000 seconds
  read_restart CPU = 0.002 seconds
*****Positive-deform 6 starts.*****
Neighbor list info ...
  update: every = 10 steps, delay = 0 steps, check = no
  max neighbors/atom: 2000, page size: 100000
  master list distance cutoff = 12
  ghost atom cutoff = 12
  binsize = 6, bins = 6 3 3
  2 neighbor lists, perpetual/occasional/extra = 2 0 0
  (1) pair reaxff, perpetual
      attributes: half, newton off, ghost
      pair build: half/bin/newtoff/ghost
      stencil: full/ghost/bin/3d
      bin: standard
  (2) fix qeq/reaxff, perpetual, copy from (1)
      attributes: half, newton off
      pair build: copy
      stencil: none
      bin: none
Setting up Verlet run ...
  Unit style    : real
  Current step  : 0
  Time step     : 0.5
Per MPI rank memory allocation (min/avg/max) = 124.9 | 126.6 | 128.4 Mbytes
   Step          Temp          PotEng         Press        f_avgp[1]        Volume    
         0   304.55252     -40394.257     -772.61767      0              4699.6115    
       100   294.33875     -40396.029     -2327.1325     -5262.9247      4699.6115    
       200   315.0796      -40430.911      6890.6141     -3452.9572      4699.6115    
       300   295.64927     -40396.548      7701.5973     -6057.1376      4699.6115    
       400   311.91523     -40410.483     -2855.1137     -5438.1713      4699.6115    
       500   305.78422     -40423.731     -14791.982     -7032.7959      4699.6115    
       600   296.50747     -40427.106     -18524.901     -7801.6208      4699.6115    
       700   289.16285     -40438.606     -3463.6161     -2973.452       4699.6115    
       800   308.11117     -40422.144     -5733.9399     -2449.7798      4699.6115    
       900   313.4545      -40423.362      1561.4829     -2743.7833      4699.6115    
      1000   314.36186     -40411.586      1929.0434     -4182.9341      4699.6115    
      1100   291.02131     -40424.908      2969.4263      2180.8674      4699.6115    
      1200   291.6025      -40435.975     -7088.5406     -6370.2146      4699.6115    
      1300   303.0542      -40442.754     -5210.856      -5315.7811      4699.6115    
      1400   311.51358     -40451.482      2430.06       -6235.1163      4699.6115    
      1500   298.57507     -40461.194     -6520.9159     -6686.4482      4699.6115    
      1600   279.18029     -40435.976      9809.262      -778.57976      4699.6115    
      1700   306.99987     -40471.439     -5875.3428     -2072.9032      4699.6115    
      1800   297.7761      -40473.297     -6415.373      -6612.7692      4699.6115    
      1900   291.97631     -40459.94       9931.505      -2109.2163      4699.6115    
      2000   288.13613     -40487.363     -3537.7652     -5455.3365      4699.6115    
Loop time of 43.9303 on 16 procs for 2000 steps with 373 atoms

Performance: 1.967 ns/day, 12.203 hours/ns, 45.527 timesteps/s, 16.981 katom-step/s
99.6% CPU use with 8 MPI tasks x 2 OpenMP threads

MPI task timing breakdown:
Section |  min time  |  avg time  |  max time  |%varavg| %total
---------------------------------------------------------------
Pair    | 29.102     | 30.856     | 32.312     |  18.7 | 70.24
Bond    | 0.0002937  | 0.00037358 | 0.00055124 |   0.0 |  0.00
Neigh   | 3.9718     | 4.0649     | 4.1783     |   3.7 |  9.25
Comm    | 0.40989    | 1.8713     | 3.6229     |  76.0 |  4.26
Output  | 0.0030761  | 0.0052441  | 0.0065316  |   1.8 |  0.01
Modify  | 6.9754     | 7.0888     | 7.1819     |   2.8 | 16.14
Other   |            | 0.04417    |            |       |  0.10

Nlocal:         46.625 ave          53 max          38 min
Histogram: 1 2 0 0 0 0 0 2 0 3
Nghost:        3086.38 ave        3108 max        3052 min
Histogram: 1 0 1 0 0 1 0 3 1 1
Neighs:        25701.4 ave       28987 max       21297 min
Histogram: 1 2 0 0 0 0 0 2 0 3

Total # of neighbors = 205611
Ave neighs/atom = 551.23592
Ave special neighs/atom = 0
Neighbor list builds = 200
Dangerous builds not checked
Total wall time: 0:09:35
