LAMMPS data file via write_data, version 2 Aug 2023, timestep = 2000, units = real

310 atoms
4 atom types

0 15.4114 xlo xhi
0 12.7411 ylo yhi
0 17.5034 zlo zhi
-7.2027 -1.8261 0.3384 xy xz yz

Masses

1 12.0107
2 1.00794
3 15.9994
4 28.0855

Atoms # full

168 7 2 0.1601342621541252 2.222820587870433 4.77324074974911 7.87981193194086 0 0 0
3 1 4 1.021516040304257 3.1068826354363233 2.019040049079941 3.2705242492433984 0 0 0
4 1 4 1.44121361066525 4.199146333563177 4.501338350356543 1.9223123031513587 0 0 0
22 1 2 0.2176232265918254 5.581643453220443 2.2902024784870716 3.329047614314683 0 0 0
294 33 2 0.1674819944215055 5.708802353094526 0.5995145709783356 7.7809462686535955 0 1 0
24 1 2 0.1397017480468614 4.780434826662232 1.826475598659376 4.962346237877693 0 0 0
25 1 2 0.1618501875265254 1.2210437825469147 0.9093633658460714 4.765460220846887 0 0 0
26 1 2 0.1450168736816585 1.269810669945957 2.870850727644938 5.032673507167547 0 0 0
27 1 2 0.1261373630577442 2.833889284648267 1.7539594595145693 5.508384378229306 0 0 0
41 1 1 -0.674089238306029 4.883850438907872 1.6194341277080693 3.851773011132492 0 0 0
42 1 1 -0.6520897272023859 1.865157178514631 1.8543684618827223 4.760207688758849 0 0 0
48 1 3 -0.7627217481704622 2.734477578707084 0.6829719612390887 1.8532090968589585 0 0 0
49 1 3 -0.7910549446271192 3.0406741278334763 3.512554091193313 2.692646374902607 0 0 0
51 1 3 -0.8357906585066919 3.7954260607801285 5.788716113196775 0.9317948590826335 0 0 0
71 2 4 0.7673028247544109 -1.3261694300085534 2.521371993776758 3.190653349621417 0 0 0
72 2 2 0.007132923752343836 0.37650556551136277 2.287366239941712 3.5505612925257504 0 0 0
176 7 1 -0.6396316524899562 1.6460181739380642 5.8142265041006285 7.946496718313392 0 0 0
74 2 2 0.1430907455830585 -0.3429022654910564 5.006553919094855 2.2582507593157306 0 0 0
75 2 2 0.2272555682711683 -1.6000000913418406 4.826223210504676 3.6745278030672544 0 0 0
76 2 1 -0.6813328119926244 -1.13610322026957 4.3762985605163465 2.7547651102206236 0 0 0
310 43 3 -0.8628596246494377 6.862383310472789 1.2435830238853613 0.9057670446474518 0 0 0
23 1 2 0.16493291069317 5.093922386315667 0.545171456998387 3.7012255442782482 0 0 0
160 7 2 -0.0009005470244515881 1.3725098521354426 6.4091727197022275 6.115819412935448 0 0 0
150 7 4 0.8346820429240749 -0.023939397692539277 4.775539303032061 7.987896162013377 0 0 0
159 7 2 -0.01377321731928938 0.0045367634794008516 5.063757120957039 4.243970361843156 0 0 0
163 7 2 0.1579672657847468 0.3489203832141704 3.345922424135599 5.985144133992571 0 0 0
164 7 2 0.2609714104567065 -0.9337222706427489 2.545947672787405 7.131017485824676 0 0 0
165 7 2 0.2413319873505605 0.8675081180911609 2.4860440347939643 7.58119146148023 0 0 0
175 7 1 -0.6653874314806738 0.09313320104237521 3.121834486490266 7.067521613314582 0 0 0
179 7 3 -0.7931134124999873 -2.9969520445134714 5.52470924581891 5.076025608569872 0 0 0
180 7 3 -0.783548920199071 -1.0919657491279844 5.518408355292922 7.067538575739913 0 0 0
195 9 2 0.1842044656662619 -1.279520410495802 6.10689752664094 1.8628138013490714 0 0 0
287 31 2 0.1480803061510794 1.1631583545065054 1.5876235821973457 0.3088434981280517 0 0 1
50 1 3 -0.7952350965204126 5.284616317855017 3.496094406509234 1.108982129354134 0 0 0
280 26 2 0.1659773662986783 2.196542987413596 0.25716156643615695 5.942496686694982 0 0 0
152 7 4 1.38517241021793 -2.0741645103846458 6.469510963339818 6.040920568796141 0 0 0
293 32 1 -0.670751362827237 6.1415322238769425 0.9712329770788755 8.71275007532059 0 0 0
73 2 2 0.1471264945086971 -2.165654892304958 4.101754667547186 1.882879605037565 0 0 0
1 1 4 1.011936323693704 2.900407560228514 0.03284683751832522 0.41686840880331494 0 0 0
132 5 3 -0.8145532404584798 1.899789384239549 1.4216441406627078 8.692197698756424 0 0 0
286 30 2 0.1460697874449437 0.2414370340091826 0.12071655543866408 2.3800623301552233 0 0 0
94 5 4 0.6139938863744325 0.4369607146778336 3.1189836828885844 11.7160481369774 0 0 0
95 5 4 1.29596692481851 2.7450144081156838 2.5787923485258983 9.905397791202724 0 0 0
97 5 4 1.201140980568883 4.862719653761625 2.1757010651596613 11.875239493089824 0 0 0
291 32 2 0.179740955110713 5.416160749608081 1.1267198233350568 9.505423255103572 0 0 0
103 5 2 -0.01680729163347065 -0.751096745632549 1.9385032826328552 11.259787152669734 0 0 0
104 5 2 -0.05908799446724136 -0.32489800826351667 4.582419220418909 12.132184463955054 0 0 0
105 5 2 -0.04860693004294341 1.1739341991702623 2.666422135696356 13.184902703587332 0 0 0
108 5 2 -0.006200841143966226 1.1714686549433257 5.9476183437232075 15.752845133285003 0 0 0
111 5 2 -0.01285084991639472 2.63594450407091 3.6318768481263066 14.728177365348753 0 0 0
289 31 2 0.1226377054256773 0.4458330076313617 1.579545743311778 16.063906134546674 0 0 0
218 13 2 0.1278532096228903 4.015729759333873 2.645470460760413 16.09139928428149 0 0 0
301 37 2 0.2562183653396044 0.14813745304278436 1.2721455369423107 9.118201050085005 0 0 0
133 5 3 -0.7976133285347058 1.5096829636052578 3.2887224698462116 10.599965447196931 0 0 0
134 5 3 -0.7761591891430559 3.631017950207739 1.4685543392842142 11.035251176656503 0 0 0
290 31 1 -0.6403079280258769 -0.2883924139425298 1.166157954765545 16.92082353418066 0 0 0
136 5 3 -0.8038401158468886 3.8498022637793072 3.746693733175917 9.26838514611624 0 0 0
142 6 4 0.7012812870542688 -2.190183884239598 5.723586582141996 16.360635816641267 0 0 0
135 5 3 -0.7849048850394114 5.815080344872294 1.1429490278077539 12.66636937282107 0 0 0
144 6 2 0.06764692430162866 -1.0657154114593312 3.919880789643571 16.74711899993024 0 0 0
43 1 1 -0.6674042009610505 -0.9683517949094408 1.2025088855366013 9.447427399238727 1 0 0
146 6 2 0.1241367452237065 -1.8117389211522599 3.9675359529342216 14.669720048344189 0 0 0
147 6 2 0.1279464104865607 -0.1317402298993442 4.781751185617146 14.943364235869964 0 0 0
148 6 1 -0.6491560919192747 -1.1396503880311688 4.54248843816552 15.400531372409791 0 0 0
149 6 3 -0.7567897835018763 -3.7167978178785903 5.502037805622234 16.15473360589388 0 0 0
156 7 2 -0.03255610744237382 -0.6851989143892591 4.376990138107553 9.46642245823776 0 0 0
28 1 2 0.1491664046067212 -1.4822554171801774 2.14769444507951 9.701761201767054 1 0 0
145 6 2 0.006535744144150901 -1.3671833666192055 6.348125917074569 14.87711805148747 0 0 0
137 5 3 -0.8486327508920577 4.393233389886981 3.267373685501278 12.890540355570241 0 0 0
217 13 2 0.1309732235901107 2.4446589646824997 1.8717439760967878 15.339139283107826 0 0 0
275 21 2 -0.01680997672383994 -2.120492281351348 1.9293648207191283 16.72479493475312 1 0 -1
219 13 2 0.1633975309604184 2.2605404358968197 3.177639315486644 16.600251560127088 0 0 0
220 13 1 -0.6465515706094038 2.8900730230072194 2.3557987245293672 16.28359800474634 0 0 0
276 22 2 -0.04339819327116664 0.8347721585846115 0.2912177363330964 13.687106506612583 0 0 0
16 1 2 0.06508824347680815 2.789244573346088 1.001547940608841 17.36296837439422 0 0 -1
98 5 4 1.06721013618986 2.3996944719511055 6.564038319598776 16.922980556263983 0 0 0
166 7 2 0.124251795929331 1.3308905092797216 6.166835702623721 9.084603041190928 0 0 0
162 7 2 -0.008894460050389692 -3.6689886683946407 5.233473412893908 9.921232850773155 0 0 0
302 38 2 0.1908122823981988 -1.0983665386069477 0.4249106983204572 10.257401795613706 0 1 0
83 3 2 0.1385692443605923 -4.161973248341964 11.267516954459612 6.395443682654058 0 0 0
87 3 1 -0.6685713055974066 -4.942713386200884 12.078698428936956 6.743966431711129 0 0 0
177 7 1 -0.6512798136319855 -3.0225108044699 9.887337176468657 7.96814410031293 0 0 0
153 7 4 1.091047979211885 -3.9626934602702004 8.226924148189122 8.023650036480417 0 0 0
154 7 4 0.9361186931100395 0.46679297761384275 6.657147145540251 4.6511496839661435 0 0 0
155 7 4 1.017136768996607 1.942523715625722 8.176657046969003 2.284477544699239 0 0 0
197 9 2 0.1642953012965319 -1.9826809267136136 6.992123361701737 0.18838602409234065 0 0 0
232 14 1 -0.6509335851704241 0.3884199539386109 11.805856190761641 4.739160531763899 0 0 0
196 9 2 0.2319344339141078 -0.4567701260540077 7.824494389847714 1.188762107907962 0 0 0
279 25 2 0.2019539079469482 -6.046593339060994 11.64476021896233 6.802258106460991 0 -1 0
171 7 2 0.1742560521734315 -1.951893715824266 9.52468316565611 8.059902658056945 0 0 0
182 7 3 -0.7967904553963419 -3.0848343080778746 7.5017781732306 6.964733167504745 0 0 0
183 7 3 -0.7638451487855283 -0.8692597341970081 7.388760259273306 5.064989746379322 0 0 0
184 7 3 -0.8173534466338395 1.2873472527974257 7.381171388090903 3.526670231509242 0 0 0
185 7 3 -0.7960870698576944 1.1091932079411786 8.767010584638536 1.029222537811418 0 0 0
193 9 4 1.145390133715719 -2.985536341567612 8.001921531022365 1.9725602757849372 0 0 0
194 9 2 0.03420511970004417 -1.4003017328332814 8.774300238020649 2.3472259664521404 0 0 0
170 7 2 0.1437111372347421 -3.1688339282909106 10.520199615965403 6.981722832776788 0 0 0
198 9 1 -0.6774150983567175 -1.4250833768690037 7.202196377055481 1.2257115459256407 0 0 0
199 9 3 -0.8262388301096406 -3.465017019739538 6.900162587413646 2.9212768530919364 0 0 0
200 9 3 -0.8074259227199774 -3.878615033902795 8.858913504633398 0.9924287616129545 0 0 0
202 10 2 0.232992096460071 -4.957523985278586 12.103515567400246 2.940703227433228 0 0 0
203 10 2 0.1900666433679217 -4.914678305982086 10.178956465983777 3.4245142240571176 0 0 0
204 10 2 0.1755190578463499 -5.261430568436733 11.511313073570385 4.766573973177542 0 0 0
143 6 2 -0.01251828457324825 0.09478518963473766 6.411840425930009 0.04753335164371949 0 0 1
206 10 1 -0.6735037646644664 -5.381369274058015 11.223738178720147 3.6469656720286894 0 0 0
224 14 2 -0.02040591958427844 0.3714767575733613 9.426098593325909 6.601967804118649 0 0 0
212 12 2 0.009412033072148628 -0.4923266568233163 12.55473193704356 3.1793249927657525 0 0 0
80 3 2 0.01792540256832072 -3.4044756807218044 12.294184411068377 7.949371132981904 0 0 0
167 7 2 0.1314201061019328 2.3057176920233697 6.640967110486774 7.467768163054776 0 0 0
228 14 2 0.1350827255637347 -0.5742180147461649 11.078143007304286 4.777833730970406 0 0 0
77 3 4 1.083687908088631 -5.008976844910356 12.63445418565619 8.584982916471214 0 0 0
214 12 3 -0.7817488500649459 0.7420045788590246 11.5721004964946 0.8643303267531887 0 0 0
309 42 3 -0.8118443849191707 -4.465309055872053 11.2173208873476 0.0630073644356945 0 0 0
158 7 2 0.07058531829328994 -5.490422646904531 8.691973297303113 7.388592997642783 0 0 0
126 5 2 0.1574197378121849 0.043363568150249554 7.895395496422171 16.425531290773264 0 0 0
78 3 4 1.23942238200436 -6.31598855262934 10.539818899125965 10.600214427510448 0 0 0
79 3 4 0.7049479220093945 -5.7699390748234425 11.482701961120675 13.545048806818384 0 0 0
277 23 2 0.008719171987430534 -1.924658944553705 11.52386852667033 13.871031915740984 0 0 0
81 3 2 -0.06917720201523399 -6.802053893957842 10.776305870216728 14.711080297807996 0 0 0
119 5 2 0.1439325990576452 1.3139786468206411 8.788917112440924 13.25761106081275 0 0 0
84 3 2 0.1916195308331906 -3.5965140359357948 11.624591827243513 12.712146699840785 0 0 0
85 3 2 0.1278633115226903 -4.065376423774964 10.218387510049018 14.244464760622702 0 0 0
169 7 2 0.1651235116481817 -3.383666004401808 10.39193067646586 8.903492991621516 0 0 0
88 3 1 -0.6299151105329905 -3.8756599899658424 11.371366550259488 13.831680187832852 0 0 0
89 3 3 -0.811999664038319 -5.625441788053768 11.523205217687611 9.52211315473593 0 0 0
90 3 3 -0.807418626041185 -6.013722542577122 10.972683546589323 12.063441735230928 0 0 0
226 14 2 0.1348656369850952 -0.4120432784079153 11.518663403410509 10.48273094456274 0 0 0
225 14 2 0.1557922905072862 0.9145953745777384 10.310326042018293 9.784182325415708 0 0 0
124 5 2 0.1500301333935721 1.219615683788973 7.833322064775654 14.976893684906953 0 0 0
237 15 2 0.1287022709089036 -1.7775354731238897 9.841458273024227 15.426801871725566 0 0 0
82 3 2 0.01551083213254808 -5.7167368189144785 8.97452586718242 10.343574816191122 0 0 0
129 5 1 -0.669086537085209 1.2323785510222185 7.705885533340599 12.91190108709185 0 0 0
131 5 1 -0.6770988600232719 1.1561316124072478 7.810373162172192 16.18319615923941 0 0 0
238 15 2 0.1708178495437843 -2.9588889968119503 10.76818068558255 16.553751648430076 0 0 0
157 7 2 -0.0457699050230401 -3.338958993132509 6.8973955517553955 11.97570896842952 0 0 0
86 3 2 0.1312017438378563 -3.897063960040315 12.21153163105362 14.616075084544448 0 0 0
118 5 2 0.140501332180114 0.968001319292521 7.675097657056637 11.807916285572114 0 0 0
120 5 2 0.1477555086814165 0.6123046997195725 7.003600044796983 13.538336969219195 0 0 0
283 28 2 0.1489475618226061 -5.0560504783984195 8.231308301124873 15.885309603788084 0 0 0
181 7 3 -0.8316913427242316 -4.003937268185739 7.829212250250904 9.510323959384095 0 0 0
236 15 2 0.1711741356494398 -2.6486166384525505 8.996533751676948 16.96430932794295 0 0 0
239 15 1 -0.658141718977984 -2.239185962352656 9.936202815773301 16.470494495661246 0 0 0
210 11 2 -0.03790695334497761 -6.2370424978343655 9.497998713959337 15.875849869968865 0 0 0
151 7 4 0.8883612217951207 -4.2647958478153285 6.698171622561877 10.617078124418917 0 0 0
234 15 4 0.9084022736474638 -0.7552500566592211 10.411813597978252 17.47449524023979 0 0 0
208 11 4 0.9403758737106518 -6.564821415828992 9.97465371442074 17.43350324741606 0 0 0
288 31 2 0.1505535986731746 -8.181950594858506 13.030538690115423 16.616540313307794 0 -1 0
2 1 4 1.621421343220523 11.282627386021058 5.758476930470618 3.808098778165661 0 0 0
211 12 4 0.9487964360568923 7.503951288634224 0.08872394975505074 1.6718137675464908 0 1 0
5 1 4 0.9316640158488192 11.04185031783084 1.1308071875974752 0.34900968888038947 0 0 0
9 1 4 1.304690502694246 6.0776031769593715 6.3509009442020625 3.52697573495677 0 0 0
7 1 4 1.194628206315947 12.128035536568529 1.6538693034590375 5.678329163057638 0 0 0
8 1 4 1.285856538793418 10.066538707153093 3.275646676419254 2.308547185788007 0 0 0
110 5 2 0.03308428750780756 4.197371665872547 5.7375387565072025 7.0832002491106545 0 0 0
10 1 4 1.526577368205401 9.162835959912032 5.6111555640951165 0.512200424148952 0 0 0
11 1 4 1.058726833300139 10.015270656008607 3.5078204600580554 7.073328126564673 0 0 0
12 1 4 1.445300574300855 8.797679835944528 6.058552326789909 5.563252151670722 0 0 0
46 1 1 -0.6642985987464506 11.341239950818784 4.151796600126632 8.291820039954118 0 0 0
191 8 3 -0.7740194706936321 10.843802082474516 5.6271211516824335 0.10383146049483906 0 0 1
19 1 2 -0.008239691975994815 8.897228692420052 2.5138196181311656 8.032494287256986 0 0 0
29 1 2 0.1630843973576433 9.444145599440999 1.530344783939803 4.001754167404623 0 0 0
30 1 2 0.1608470807186549 7.838602559378081 2.2110235207990017 3.013521047837737 0 0 0
31 1 2 0.2171137520695486 8.880561430193486 3.312540814205713 4.300113119937827 0 0 0
115 5 2 0.2496438016940861 6.4261670136907 5.137199873089759 6.177480458042538 0 0 0
274 20 2 0.002935545204886526 13.944118473374967 1.3102871806404344 1.9367096547311586 0 0 0
44 1 1 -0.6591147061654914 8.88986659881947 2.414888912061976 3.504532766944108 0 0 0
117 5 2 0.02436857221050408 6.6344051918723235 4.258362640114111 8.338055837638063 0 0 0
128 5 1 -0.6423067499974906 5.640442518687845 4.707805520171945 6.971761319637971 0 0 0
213 12 2 0.00221165617391053 8.803897019507255 0.7533361434495185 2.3953166867524764 0 1 0
53 1 3 -0.7658315332622803 13.17205846780974 2.1603453079278045 4.3777442044735455 0 0 0
54 1 3 -0.8274717734553085 12.93971836091896 1.5489338990448127 7.089386637598411 0 0 0
55 1 3 -0.8421414614546711 10.759139708789803 1.980745211942424 1.6373440965453074 0 0 0
56 1 3 -0.841486341223881 10.942924738954602 4.365068499308466 3.0978942004753076 0 0 0
57 1 3 -0.7864464162229565 5.263657746663623 5.027282359547427 3.0034233242469424 0 0 0
58 1 3 -0.8482007948044473 8.794750075484943 4.185781650397803 1.0944887993368613 0 0 0
59 1 3 -0.773426901001027 10.814478019894892 2.5325583195916628 6.002491005508846 0 0 0
215 13 4 1.044123766502497 6.35933545303962 2.597085781602442 0.3473102280786389 0 0 1
61 1 3 -0.8194881612634076 7.383317587808373 5.871194386196037 4.889200636626165 0 0 0
62 1 3 -0.8214977437474048 9.229718457851133 4.699495781440888 6.382784280024183 0 0 0
292 32 2 0.1250567082717292 6.781295389761837 2.0051875771416663 8.479719063185788 0 0 0
99 5 4 0.6890477023169972 4.810618472760606 4.845329664248147 8.674041565002977 0 0 0
6 1 4 1.283583700896466 13.278397081839989 0.2759997683264304 8.024832531023286 0 0 0
230 14 2 0.1609878563199029 7.467184700657571 0.13414238755553778 5.18834814492934 0 1 0
35 1 2 0.1923066525216028 11.256303490599626 5.23040363855516 8.191447062138081 0 0 0
116 5 2 0.1734360573813764 5.307229478025604 3.7132638960728146 6.637636325630738 0 0 0
33 1 2 0.1615841943353938 4.040636883053666 6.405606335269604 4.788449079707767 0 0 0
60 1 3 -0.8024076632590177 9.961712474383017 6.394429784324581 4.418198345224585 0 0 0
36 1 2 0.2203936228814449 12.385361980050991 3.751565821890828 8.095889530749076 0 0 0
216 13 2 0.1254838436967018 7.779271436987759 3.5461625899681697 0.08080495746301636 0 0 1
17 1 2 -0.005800145900664735 7.8974689764031325 1.477133504122232 16.761990161840274 0 0 -1
295 34 2 0.1820184092452532 10.149404593888773 1.6273618586361713 9.15450659675223 0 0 0
37 1 2 0.114153701681601 10.748699832107356 3.6425511243379898 9.274458417444697 0 0 0
100 5 4 1.155597099002946 3.961236944427708 4.3590539661283705 13.903434963043477 0 0 0
91 4 4 0.6216443497168717 11.650458146678908 2.1858826276323846 16.162735663281214 0 0 0
92 4 2 -0.02814035175699633 11.503650672976704 1.6231241067582705 14.537941560817899 0 0 0
93 4 2 0.08664824688281327 11.597940811354894 3.875471801428316 15.981374172421843 0 0 0
296 34 2 0.1297320368629572 9.15212742653446 0.8112167223385796 10.62693883153881 0 0 0
251 17 2 0.06450379706424629 7.028954561503229 4.6151413640405625 10.109462260440827 0 0 0
102 5 4 1.221659117603802 5.286277542871221 6.187893957875622 15.659753318404636 0 0 0
52 1 3 -0.8266041197657708 10.472304013792922 1.7430602803686592 17.03005977240115 0 0 -1
107 5 2 0.005825795523430159 5.989265259687153 2.9093049110189857 10.76347747389398 0 0 0
141 5 3 -0.8367138312324179 3.8464515760378957 6.559002870508832 16.35510153267907 0 0 0
114 5 2 0.04924616218373083 6.888168842765294 2.561462345948129 15.282256371175963 0 0 0
127 5 1 -0.6285961436664419 7.0163518425602796 0.7509995069152078 15.123930364598664 0 0 0
297 34 2 0.128810780009133 8.52233003410181 2.521318325114786 9.863421409639475 0 0 0
138 5 3 -0.8308866135699826 3.442409247120075 5.744617920345189 13.308377493330648 0 0 0
139 5 3 -0.8219304992829638 5.248546506648503 4.573564634151125 15.18548430492327 0 0 0
140 5 3 -0.8508746043928006 6.464331469833792 6.375197549668714 16.67869182187324 0 0 0
186 8 4 1.187545681754425 9.755421135004735 5.86919225605838 16.136796139120936 0 0 0
187 8 4 0.6132850831023997 8.161439376063964 3.5425766520541697 14.332664998834305 0 0 0
188 8 2 -0.009760310452084876 8.5478858178078 1.8857463047686587 14.585419811840794 0 0 0
189 8 2 -0.01291545558092676 8.50487214324274 3.149514622671779 12.707015450923908 0 0 0
190 8 2 0.06831154709571133 6.506291245386614 3.995005230737198 14.078389548644004 0 0 0
303 39 2 0.1190902298647151 13.190485877476224 0.9716733583362293 14.965469431314263 -1 0 0
192 8 3 -0.7704108070044029 9.034277976614355 4.700176956827046 15.131686235159076 0 0 0
122 5 2 0.1738546085784795 3.5351059206077062 5.978666777582619 10.62181476715604 0 0 0
255 17 1 -0.6436362463630027 7.534626255396905 4.099618904569917 11.239315853561754 0 0 0
298 34 1 -0.650913907295205 9.104860071617427 1.4810378386984764 9.639841420990034 0 0 0
241 16 2 0.1164091660113705 12.416142460729569 1.9313284954630643 12.603920482957793 0 0 0
242 16 2 0.1578414756165466 10.99923967819651 1.4971305542595776 11.372218367159457 0 0 0
243 16 2 0.1844906338797378 12.928963672833621 1.2738225295831762 10.808068583131279 0 0 0
252 17 2 0.08245454620053852 7.941453182587055 6.247323173628921 13.387848520039476 0 0 0
245 16 1 -0.6413969152097875 12.076981740970815 1.3467224533536566 11.695659232889048 0 0 0
257 17 3 -0.7839704886337608 9.665172191870342 6.362351581730182 11.052341319033115 0 0 0
247 17 4 0.7162379334277962 8.085204939090936 6.001698427242141 11.461690237170863 0 0 0
249 17 2 0.1210130365397555 6.767512575125476 4.192953141265579 12.077172034964478 0 0 0
250 17 2 0.1453956464733806 7.903731143469427 2.9811318122623827 11.042418185389582 0 0 0
253 17 2 0.1430024731215826 5.792422343715632 6.533875703652336 12.826833026331482 0 0 0
109 5 2 -0.03150266487445455 5.009234517250093 6.289736479462529 9.683914723004422 0 0 0
300 36 2 0.1466659340147497 6.234508008750376 0.31074520170285785 15.870661064704386 0 1 0
13 1 4 1.514351404380524 7.799640965484482 7.944434779361427 1.7244424313167646 0 0 0
14 1 4 0.9238666702495683 7.295220386944382 7.851378091069044 7.269179167690967 0 0 0
15 1 4 1.313616407700955 6.566616866915365 10.618184440778153 6.155556255110446 0 0 0
285 29 2 0.1661570899162921 6.562220901907393 12.48726255873612 2.712708720725904 0 0 0
21 1 2 -0.02322087440012061 6.2166743669855675 6.600416175625157 7.073957080450656 0 0 0
278 24 2 -0.04605749309057797 3.8547143853613646 12.274249962499931 0.7704364881760344 0 0 0
34 1 2 0.1814676842931653 4.2528780994751125 8.054566318904659 3.997852271446267 0 0 0
38 1 2 0.1414547430961531 4.201934197864784 9.878629942861934 6.0236833651529 0 0 0
39 1 2 0.1428040823361812 4.88662705436331 11.150205457777558 4.614801686785066 0 0 0
40 1 2 0.1350881380980726 4.027447880573449 11.755824361398856 6.373344655555978 0 0 0
207 10 1 -0.6635607979347152 7.464364854115872 12.225908333251901 2.1701101432420873 -1 0 0
47 1 1 -0.6749077637855078 4.580005304878619 10.941669061754059 5.792436091830207 0 0 0
63 1 3 -0.8672316720145564 6.573460877401924 7.274553596242505 2.329086465456619 0 0 0
64 1 3 -0.821160988322667 8.989240173376848 6.9557357544925384 1.4714530150535274 0 0 0
65 1 3 -0.7906458439631193 8.221783927640999 9.36239508554415 2.545217288206795 0 0 0
66 1 3 -0.7614109100036518 7.388250843861822 8.924497248179742 0.028238820464415233 0 0 0
67 1 3 -0.8013401085547804 8.819931743614037 7.355216346001039 6.950501186732682 0 0 0
68 1 3 -0.7816761367305805 7.41149068570876 10.835496694867862 4.727091579871909 0 0 0
69 1 3 -0.8425204313222695 6.602985235293878 9.085904671586606 6.588636657356215 0 0 0
70 1 3 -0.8047245955090018 6.951915520607502 11.795397150043508 7.1543648087313585 0 0 0
172 7 2 0.1392763008379539 2.5575800473891768 10.389707549904193 2.4851581335753425 0 0 0
173 7 2 0.1645798381885265 4.238342895852623 9.402048137991898 2.6106648153514707 0 0 0
174 7 2 0.1611433191791314 3.1362562180278557 9.416844551409904 4.052977220719721 0 0 0
178 7 1 -0.699392411938752 3.1960220065560105 9.438142522452942 2.971460472617515 0 0 0
201 10 4 1.14335114481428 8.23823993781615 10.770630255075385 3.3184618211230674 -1 0 0
161 7 2 0.05893416316782936 3.60249915109485 7.806012398060049 1.9759043425164355 0 0 0
222 14 4 0.6374607711479466 1.0702711661840387 10.946264304211168 6.255960569669881 0 0 0
223 14 2 -0.03257592939005866 2.6350881825816472 10.392524567921795 5.970895540923758 0 0 0
229 14 2 0.1104929545545616 1.3838347731627274 11.558811284004072 4.056138030005968 0 0 0
233 14 3 -0.7360551013527679 1.0132735457126172 11.959793960579573 7.666696910150054 0 0 0
267 19 2 -0.02879193850276591 3.59510438803421 10.434002452644972 7.491801461398323 0 0 0
205 10 2 0.158289043688785 7.375920581187944 11.826134111410154 1.102868168735281 -1 0 0
32 1 2 0.1919649297851728 5.219017495486089 7.724050984584175 5.5220526318303715 0 0 0
45 1 1 -0.6768668850929417 4.794373019084796 7.265286243357755 4.610636259203048 0 0 0
18 1 2 -0.02200504122175824 4.522594782439946 12.829929138556416 5.185871355072853 0 -1 0
101 5 4 0.7986965270360078 3.0489086213594208 7.163946448226599 12.66485550816332 0 0 0
112 5 2 -0.005156925860570259 3.8224509704135547 8.474093115602887 13.59167982114834 0 0 0
113 5 2 -0.01988546766213902 5.5989666465853025 7.313748819395351 14.388686488364447 0 0 0
246 16 1 -0.6620774820986083 5.463796947373866 12.752258788040153 14.66218124486868 0 -1 0
123 5 2 0.1423810357798936 4.633094679597934 7.59010365533557 11.015119071836102 0 0 0
130 5 1 -0.650772364143997 3.6103283622604483 7.162495896099619 10.759484952822218 0 0 0
304 40 2 0.1219990665192422 6.276443905269499 11.919522052458001 14.591830875928263 0 0 0
235 15 2 -0.05198291089245015 0.6208249749964669 10.598437058984027 16.49906411129264 0 0 0
227 14 2 0.1665926907418866 1.3877967950831949 11.421330200785013 11.292307114930404 0 0 0
248 17 2 -0.007591460783451386 6.883815334071278 7.29145672558582 10.948303828699189 0 0 0
125 5 2 0.1367867309312075 1.7929530198890873 8.737607188797243 16.673136933036478 0 0 0
254 17 2 0.1365485423115309 6.798407398416277 8.040346148011713 13.357586437820299 0 0 0
256 17 1 -0.651523351782784 6.790093611652908 7.0962234612514035 12.786989455408397 0 0 0
258 18 4 0.692936526010259 5.071575991794116 10.138762808662236 16.364085772608394 0 0 0
259 18 2 -0.03557629945394372 5.83222331039213 11.666632257684258 16.24772692873478 0 0 0
260 18 2 0.01662184303301763 5.2446292232333445 9.36216462212346 14.67354667810415 0 0 0
261 18 2 0.1811515651828091 3.0698059753159983 8.679177691177513 15.236817791124027 0 0 0
262 18 2 0.1490820300373616 3.154488889975303 10.40151076751018 14.266622773160908 0 0 0
240 16 4 0.8178245950965729 4.723093318336559 12.403645627784336 12.71009210819969 0 -1 0
264 18 1 -0.6278594273986975 3.598998040781526 9.65569973489463 15.11383049251748 0 0 0
265 19 4 0.9616026635300118 4.160369434492867 11.065589245815353 8.985020560215476 0 0 0
266 19 4 1.179466555108138 6.1182276011221015 10.181647889340935 10.900011939734268 0 0 0
268 19 2 0.009440386648579789 2.6162986482153103 11.239709695616652 9.851151005228628 0 0 0
269 19 2 -0.0100124545131223 6.364758308510365 8.682699300044291 11.77638619076113 0 0 0
271 19 3 -0.8313956830075755 7.535311425052287 10.43395334305995 10.322245191304614 0 0 0
272 19 3 -0.8008085969137281 5.017256490578408 9.909969287918079 9.5828684880171 0 0 0
273 19 3 -0.8104083929147587 5.459213093372035 11.25261221371223 11.911528416626005 0 0 0
281 27 2 0.1501588534067451 8.457852956184485 7.844229851093343 15.810878321890522 0 0 0
284 28 1 -0.6821066729710783 9.544428284898503 7.567481582432288 15.469225591245312 -1 0 0
231 14 1 -0.6343227142945209 0.7356920284138773 11.280081592806646 10.320292829372121 0 0 0
106 5 2 0.03961138255093617 0.7590238449490725 12.017211265202194 12.866650522458409 0 -1 0
221 14 4 0.8608012826421682 0.6085575902784168 12.813636859575652 8.96924762420558 0 0 0
305 41 2 0.1314326865834679 2.819247989591124 11.9200398021283 14.006348023792365 0 0 0
306 41 2 0.1446447267133747 2.673923513327089 10.76928915940321 12.563119664073065 0 0 0
263 18 2 0.01611501516630242 3.275361630534195 10.626419510993852 16.642727000994075 0 0 0
308 41 1 -0.6492997597735183 2.4366957687991517 11.783691068610443 12.996791416243642 0 0 0
20 1 2 -0.04602735840764145 7.072539938828177 7.919943322153589 8.893253127666576 0 0 0
282 28 2 0.1487896113307423 9.628172876321551 7.345723768496264 14.318730529335499 -1 0 0
307 41 2 0.1108305574967672 2.823023698653452 12.59807013797656 12.276280595811208 0 0 0
121 5 2 0.1512518265280032 2.9953199903535808 7.82697287847381 10.075413325802264 0 0 0
244 16 2 0.1065498038477427 4.507027498262472 12.437321625163156 15.302787318394127 0 -1 0
270 19 3 -0.8295145410101815 4.779386052503996 12.525325718776052 8.807920398950586 0 0 0
96 5 4 0.7348938986568986 -0.740202554038091 12.796668774068163 13.611112909315198 0 -1 0
299 35 2 0.1015606675786558 0.9077880409124475 12.939218116438848 15.195956240320587 0 0 0
209 11 2 0.06675016943058201 7.160294249876547 9.520449572297743 17.463498258293193 -1 0 0

Velocities

168 0.017626296452732136 -0.01330125867751102 0.006455686546285764
3 -0.0031695352066496573 -0.004999634248224509 0.004213344091840128
4 -0.0034257712250422164 0.0026918592059002894 0.008469934700851217
22 -0.040333028955653986 -0.012174953703570975 -0.008984510841290923
294 0.005890729272605282 0.004933565099026829 -0.0064906041994528575
24 0.0002230943857618588 0.01476703924549769 0.00011276355837569412
25 0.05065957659800044 -0.003500967763254998 0.005498868491125871
26 0.007267380861347275 0.0002801518909675133 0.009304647669948563
27 0.0016446458483834693 0.009943679025870808 0.013576782541706144
41 -0.0005192059124568521 0.0016781401708286293 -0.005506076096157873
42 -0.004337439722197829 0.0007816801057757242 0.0033860986555131526
48 -0.003608271912326489 -3.928709030388118e-05 0.0037701660440120906
49 0.00213268595956203 0.007752285577042665 -0.0018302461955923871
51 -0.004083668732620451 -0.001391363140279688 -0.009485890615452052
71 -0.0021885765804601706 0.0007586872833665183 -0.00153547266046532
72 0.01672901895121896 -0.01513281518370704 0.01090491238842497
176 -0.0018046636282162498 -0.003970187367949032 0.00903853293363496
74 0.006733173975438047 -0.029963420427151496 0.020840858839395217
75 -0.007486134821244658 -0.01567549903343076 -0.020956353324865985
76 -0.0047215804909547954 0.005638815714241743 0.006291293139458616
310 0.000549062545367618 0.0030512635179976485 -0.0013920399033273629
23 0.008614317968909728 0.0007769755973085867 0.0010664769269090025
160 0.00932428376598982 -0.010973419270875726 0.023070016913136947
150 0.0014350900441430943 0.0021244457039941225 0.0030842035703692026
159 0.026368569905132686 0.018750048741066862 -0.006122491083823123
163 -0.002608430925079316 0.012078593425952041 -0.0008589576973978139
164 -0.00019418306800774078 0.008693631498168982 0.0022896680221250556
165 0.003075592899481845 -0.005390140542402515 0.016525764583066184
175 -0.006627595184025188 -0.0022997441849825417 0.0032906140361695277
179 0.00024384637418914783 -0.003965311607888318 0.00583546745451884