LAMMPS (2 Aug 2023 - Update 2)
OMP_NUM_THREADS environment is not set. Defaulting to 1 thread. (src/comm.cpp:98)
  using 1 OpenMP thread(s) per MPI task
# Initialization
units           real
dimension       3
boundary        p p p
atom_style      full
timestep        0.5   # fs

# Define MD parameters
variable nevery equal 10                  # sampling interval
variable nrepeat equal 10                 # number of samples
variable nthermo equal ${nevery}*${nrepeat}           # interval for thermo output
variable nthermo equal 10*${nrepeat}           
variable nthermo equal 10*10           
variable nfreq equal ${nthermo} # length of one average
variable nfreq equal 100 
# 1 ps : 1e3 fs / 0.5 fs = 2e3 steps
variable nequil equal 30*${nthermo}       # steps of equilibration run 20
variable nequil equal 30*100       
variable nrun equal 30*${nthermo}          # stpes of equilibrated run 20
variable nrun equal 30*100          
variable temp equal 300.0                # temperature of initial sample
variable tdamp equal 50.0                 # time constant for thermostat
variable seed equal 123456                # seed for thermostat
variable ufac equal 1.01325e-4         # pressure unit conversion, from atm to Gpa
variable up equal 0.01                  # the deformation magnitude 2.0e-2

# Read the initial sctructure
# box tilt large
variable structure string 333-RV-31-vasp
read_data       ${structure}.data
read_data       333-RV-31-vasp.data
Reading data file ...
  triclinic box = (0 0 0) to (15.4114 12.7411 17.5034) with tilt (-7.2027 -1.8261 0.3384)
WARNING: Triclinic box skew is large. LAMMPS will run inefficiently. (src/domain.cpp:220)
  2 by 2 by 2 MPI processor grid
  reading atoms ...
  310 atoms
Finding 1-2 1-3 1-4 neighbors ...
  special bond factors lj:    0        0        0       
  special bond factors coul:  0        0        0       
     0 = max # of 1-2 neighbors
     0 = max # of 1-3 neighbors
     0 = max # of 1-4 neighbors
     1 = max # of special neighbors
  special bonds CPU = 0.001 seconds
  read_data CPU = 0.007 seconds

# Energy minimization
print "*****Minimization starts.*****"
*****Minimization starts.*****
minimize 1.0e-6 1.0e-6 100 1000
WARNING: No pairwise cutoff or binsize set. Atom sorting therefore disabled. (src/atom.cpp:2366)
WARNING: Communication cutoff is 0.0. No ghost atoms will be generated. Atoms may get lost. (src/comm_brick.cpp:210)
Per MPI rank memory allocation (min/avg/max) = 6.365 | 6.365 | 6.365 Mbytes
   Step          Temp          E_pair         E_mol          TotEng         Press     
         0   0              0              0              0              0            
         1   0              0              0              0              0            
Loop time of 7.08711e-05 on 8 procs for 1 steps with 310 atoms

52.9% CPU use with 8 MPI tasks x 1 OpenMP threads

Minimization stats:
  Stopping criterion = search direction is not downhill
  Energy initial, next-to-last, final = 
                     0                  0                  0
  Force two-norm initial, final = 0 0
  Force max component initial, final = 0 0
  Final line search alpha, max atom move = 0 0
  Iterations, force evaluations = 1 0

MPI task timing breakdown:
Section |  min time  |  avg time  |  max time  |%varavg| %total
---------------------------------------------------------------
Pair    | 0          | 0          | 0          |   0.0 |  0.00
Bond    | 1.397e-06  | 1.9385e-06 | 2.165e-06  |   0.0 |  2.74
Neigh   | 0          | 0          | 0          |   0.0 |  0.00
Comm    | 3.352e-06  | 4.7835e-06 | 5.656e-06  |   0.0 |  6.75
Output  | 0          | 0          | 0          |   0.0 |  0.00
Modify  | 0          | 0          | 0          |   0.0 |  0.00
Other   |            | 6.415e-05  |            |       | 90.52

Nlocal:          38.75 ave          46 max          34 min
Histogram: 1 2 0 1 2 0 1 0 0 1
Nghost:              0 ave           0 max           0 min
Histogram: 8 0 0 0 0 0 0 0 0 0
Neighs:              0 ave           0 max           0 min
Histogram: 8 0 0 0 0 0 0 0 0 0

Total # of neighbors = 0
Ave neighs/atom = 0
Ave special neighs/atom = 0
Neighbor list builds = 0
Dangerous builds = 0
min_style cg
# Save the optimized structure
write_data ${structure}_opt.data
write_data 333-RV-31-vasp_opt.data
System init for write_data ...
WARNING: Communication cutoff is 0.0. No ghost atoms will be generated. Atoms may get lost. (src/comm_brick.cpp:210)
velocity        all create ${temp} ${seed} dist gaussian
velocity        all create 300 ${seed} dist gaussian
velocity        all create 300 123456 dist gaussian

# Equilibration
include ff.mod.lmp
# Setup forcefield, system
# undefine any fix ave/* fix before using reset_timestep
if "$(is_defined(fix,avgp))" then "unfix avgp"
reset_timestep 0

# Assign the force field
pair_style reaxff NULL safezone 3.0 mincap 150
# pair_coeff * * CHONSSi.ff O Si
# pair_coeff * * CHOSiNa.ff O Si
# pair_coeff * * SiOCHN_2018.ff O Si
# pair_coeff * * PDMSDecomp.ff Si O
pair_coeff * * CHONSi.ff C H O Si
# pair_coeff * * CHOFe.ff O Si

# charge method for reaxff
fix myqeq all qeq/reaxff 1 0.0 10.0 1.0e-6 reaxff maxiter 400
# Setup neighbor style
neighbor        2 bin
neigh_modify    every 10 delay 0 check no

# Setup output
fix avgp all ave/time  ${nevery} ${nrepeat} ${nfreq} c_thermo_press mode vector
fix avgp all ave/time  10 ${nrepeat} ${nfreq} c_thermo_press mode vector
fix avgp all ave/time  10 10 ${nfreq} c_thermo_press mode vector
fix avgp all ave/time  10 10 100 c_thermo_press mode vector
thermo		${nthermo}
thermo		100
thermo_style custom step temp pe press f_avgp[1] vol
thermo_modify norm no

# NVT
fix 4 all nvt temp ${temp} ${temp} ${tdamp}
fix 4 all nvt temp 300 ${temp} ${tdamp}
fix 4 all nvt temp 300 300 ${tdamp}
fix 4 all nvt temp 300 300 50
thermo_style custom step temp pe press f_avgp[1] density vol
WARNING: New thermo_style command, previous thermo_modify settings will be lost (src/output.cpp:903)
run ${nequil}
run 3000

CITE-CITE-CITE-CITE-CITE-CITE-CITE-CITE-CITE-CITE-CITE-CITE-CITE

Your simulation uses code contributions which should be cited:

- pair reaxff command: doi:10.1016/j.parco.2011.08.005

@Article{Aktulga12,
 author = {H. M. Aktulga and J. C. Fogarty and S. A. Pandit and A. Y. Grama},
 title = {Parallel Reactive Molecular Dynamics: {N}umerical Methods and Algorithmic Techniques},
 journal = {Parallel Computing},
 year =    2012,
 volume =  38,
 number =  {4--5},
 pages =   {245--259}
}

- fix qeq/reaxff command: doi:10.1016/j.parco.2011.08.005

@Article{Aktulga12,
 author = {H. M. Aktulga and J. C. Fogarty and S. A. Pandit and A. Y. Grama},
 title = {Parallel Reactive Molecular Dynamics: {N}umerical Methods and Algorithmic Techniques},
 journal = {Parallel Computing},
 year =    2012,
 volume =  38,
 pages =   {245--259}
}

CITE-CITE-CITE-CITE-CITE-CITE-CITE-CITE-CITE-CITE-CITE-CITE-CITE

WARNING: Fix qeq/reaxff group is not charge neutral, net charge = 22.14 (src/REAXFF/fix_qeq_reaxff.cpp:392)
Neighbor list info ...
  update: every = 10 steps, delay = 0 steps, check = no
  max neighbors/atom: 2000, page size: 100000
  master list distance cutoff = 12
  ghost atom cutoff = 12
  binsize = 6, bins = 5 3 3
  2 neighbor lists, perpetual/occasional/extra = 2 0 0
  (1) pair reaxff, perpetual
      attributes: half, newton off, ghost
      pair build: half/bin/newtoff/ghost
      stencil: full/ghost/bin/3d
      bin: standard
  (2) fix qeq/reaxff, perpetual, copy from (1)
      attributes: half, newton off
      pair build: copy
      stencil: none
      bin: none
Per MPI rank memory allocation (min/avg/max) = 121 | 121.6 | 122.5 Mbytes
   Step          Temp          PotEng         Press        f_avgp[1]       Density         Volume    
         0   300           -32388.564      119735.25      0              1.4204665      3436.9359    
       100   826.21848     -33370.206     -34153.459      448.70616      1.4204665      3436.9359    
       200   604.64313     -33652.984     -23357.291     -5001.2167      1.4204665      3436.9359    
       300   465.54625     -33876.865      44.965454     -2084.9334      1.4204665      3436.9359    
       400   399.37626     -34043.579     -1989.4513      3745.059       1.4204665      3436.9359    
       500   311.7999      -34116.163      20211.59      -1103.6108      1.4204665      3436.9359    
       600   286.41955     -34190.476      6298.2812     -2313.3177      1.4204665      3436.9359    
       700   293.04756     -34250.499     -5385.4937      2197.0842      1.4204665      3436.9359    
       800   315.2187      -34288.078     -13872.111      724.47901      1.4204665      3436.9359    
       900   296.85319     -34277.216     -293.91465     -418.2502       1.4204665      3436.9359    
      1000   325.84368     -34312.491     -388.81292      4302.0036      1.4204665      3436.9359    
      1100   296.98178     -34298.167      4917.4619      1564.16        1.4204665      3436.9359    
      1200   313.94806     -34333.653      5759.7625      8245.3788      1.4204665      3436.9359    
      1300   286.29838     -34332.402      1147.5279      4980.525       1.4204665      3436.9359    
      1400   299.88672     -34345.993      8313.5888      1799.4627      1.4204665      3436.9359    
      1500   314.0539      -34352.758      12676.746      6309.5915      1.4204665      3436.9359    
      1600   308.7959      -34341.532     -5185.8517      5028.355       1.4204665      3436.9359    
      1700   315.75942     -34336.158     -8060.5058      2627.6871      1.4204665      3436.9359    
      1800   301.26072     -34326.253     -3628.4647      5160.5372      1.4204665      3436.9359    
      1900   306.14107     -34346.982     -3949.8385      3701.4035      1.4204665      3436.9359    
      2000   297.28055     -34358.755      15824.21       7087.0779      1.4204665      3436.9359    
      2100   289.0004      -34361.916      10993.438     -144.80974      1.4204665      3436.9359    
      2200   289.76911     -34351.469      795.36954      8561.2193      1.4204665      3436.9359    
      2300   318.4501      -34360.164     -9424.3303      4835.0714      1.4204665      3436.9359    
      2400   301.58268     -34327.7        4574.119       626.41771      1.4204665      3436.9359    
      2500   315.91539     -34344.135     -662.15945      5717.2715      1.4204665      3436.9359    
      2600   309.40156     -34363.754     -10319.725     -1572.6901      1.4204665      3436.9359    
      2700   287.04496     -34372.336      8138.1091      867.17179      1.4204665      3436.9359    
      2800   284.98128     -34377.549     -9135.8395      3022.4681      1.4204665      3436.9359    
      2900   285.91652     -34367.357      3113.9802      3384.3841      1.4204665      3436.9359    
      3000   293.7744      -34353.4        12024.799      4879.8162      1.4204665      3436.9359    
Loop time of 131.368 on 8 procs for 3000 steps with 310 atoms

Performance: 0.987 ns/day, 24.327 hours/ns, 22.837 timesteps/s, 7.079 katom-step/s
98.7% CPU use with 8 MPI tasks x 1 OpenMP threads

MPI task timing breakdown:
Section |  min time  |  avg time  |  max time  |%varavg| %total
---------------------------------------------------------------
Pair    | 76.219     | 99.793     | 108.6      | 101.5 | 75.96
Bond    | 0.0084286  | 0.0090135  | 0.0094119  |   0.4 |  0.01
Neigh   | 5.8067     | 7.5709     | 8.1444     |  27.5 |  5.76
Comm    | 3.2715     | 12.076     | 35.662     | 291.9 |  9.19
Output  | 0.0016528  | 0.0018439  | 0.0028471  |   0.9 |  0.00
Modify  | 11.268     | 11.847     | 13.608     |  22.0 |  9.02
Other   |            | 0.06988    |            |       |  0.05

Nlocal:          38.75 ave          45 max          35 min
Histogram: 1 2 0 0 2 2 0 0 0 1
Nghost:        3088.25 ave        3120 max        3049 min
Histogram: 2 0 0 0 0 2 2 0 0 2
Neighs:        24493.2 ave       28198 max       22345 min
Histogram: 3 0 0 1 2 1 0 0 0 1

Total # of neighbors = 195946
Ave neighs/atom = 632.08387
Ave special neighs/atom = 0
Neighbor list builds = 300
Dangerous builds not checked
# Save the optimized structure
write_data ${structure}_opt.data
write_data 333-RV-31-vasp_opt.data
System init for write_data ...

# Save initial pressure, box size
variable pxx0 equal f_avgp[1]
variable pyy0 equal f_avgp[2]
variable pzz0 equal f_avgp[3]
variable pxy0 equal f_avgp[4]
variable pxz0 equal f_avgp[5]
variable pyz0 equal f_avgp[6]

# use tmp to save initial box length
variable tmp equal lx
variable lx0 equal ${tmp}
variable lx0 equal 15.4114
variable tmp equal ly
variable ly0 equal ${tmp}
variable ly0 equal 12.7411
variable tmp equal lz
variable lz0 equal ${tmp}
variable lz0 equal 17.5034

# define the derivatives, w.r.t. strain tensor
# Constants uses $, variables use v_
variable d1 equal -(v_pxx1-${pxx0})/(v_delta/v_len0)*${ufac}
variable d1 equal -(v_pxx1-4879.81618462464)/(v_delta/v_len0)*${ufac}
variable d1 equal -(v_pxx1-4879.81618462464)/(v_delta/v_len0)*0.000101325
variable d2 equal -(v_pyy1-${pyy0})/(v_delta/v_len0)*${ufac}
variable d2 equal -(v_pyy1-78.8060071315636)/(v_delta/v_len0)*${ufac}
variable d2 equal -(v_pyy1-78.8060071315636)/(v_delta/v_len0)*0.000101325
variable d3 equal -(v_pzz1-${pzz0})/(v_delta/v_len0)*${ufac}
variable d3 equal -(v_pzz1--1709.87281182333)/(v_delta/v_len0)*${ufac}
variable d3 equal -(v_pzz1--1709.87281182333)/(v_delta/v_len0)*0.000101325
variable d4 equal -(v_pyz1-${pyz0})/(v_delta/v_len0)*${ufac}*0.5
variable d4 equal -(v_pyz1--797.710136813866)/(v_delta/v_len0)*${ufac}*0.5
variable d4 equal -(v_pyz1--797.710136813866)/(v_delta/v_len0)*0.000101325*0.5
variable d5 equal -(v_pxz1-${pxz0})/(v_delta/v_len0)*${ufac}*0.5
variable d5 equal -(v_pxz1-885.14251244761)/(v_delta/v_len0)*${ufac}*0.5
variable d5 equal -(v_pxz1-885.14251244761)/(v_delta/v_len0)*0.000101325*0.5
variable d6 equal -(v_pxy1-${pxy0})/(v_delta/v_len0)*${ufac}*0.5
variable d6 equal -(v_pxy1-3417.12386903903)/(v_delta/v_len0)*${ufac}*0.5
variable d6 equal -(v_pxy1-3417.12386903903)/(v_delta/v_len0)*0.000101325*0.5

# Write restart
write_restart equil.res
System init for write_restart ...

# dir: direction
# uxx Perturbation
variable dir equal 1
include displace.mod.lmp
# Find which reference length to use
if "${dir} == 1" then    "variable len0 equal ${lx0}"
variable len0 equal ${lx0}
variable len0 equal 15.4114
if "${dir} == 2" then    "variable len0 equal ${ly0}"
if "${dir} == 3" then    "variable len0 equal ${lz0}"
if "${dir} == 4" then    "variable len0 equal ${lz0}"
if "${dir} == 5" then    "variable len0 equal ${lz0}"
if "${dir} == 6" then    "variable len0 equal ${ly0}"

# Reset box and simulation parameters
clear
OMP_NUM_THREADS environment is not set. Defaulting to 1 thread. (src/comm.cpp:98)
  using 1 OpenMP thread(s) per MPI task
# box tilt large
read_restart equil.res
Reading restart file ...
  restart file = 2 Aug 2023, LAMMPS = 2 Aug 2023
  restoring atom style full from restart
  triclinic box = (0 0 0) to (15.4114 12.7411 17.5034) with tilt (-7.2027 -1.8261 0.3384)
WARNING: Triclinic box skew is large. LAMMPS will run inefficiently. (src/domain.cpp:220)
  2 by 2 by 2 MPI processor grid
  pair style reaxff stores no restart info
  310 atoms
Finding 1-2 1-3 1-4 neighbors ...
  special bond factors lj:    0        0        0       
  special bond factors coul:  0        0        0       
     0 = max # of 1-2 neighbors
     0 = max # of 1-3 neighbors
     0 = max # of 1-4 neighbors
     1 = max # of special neighbors
  special bonds CPU = 0.000 seconds
  read_restart CPU = 0.003 seconds
print "*****Negative-change ${dir} starts.*****"
*****Negative-change 1 starts.*****
include ff.mod.lmp
# Setup forcefield, system
# undefine any fix ave/* fix before using reset_timestep
if "$(is_defined(fix,avgp))" then "unfix avgp"
reset_timestep 0

# Assign the force field
pair_style reaxff NULL safezone 3.0 mincap 150
# pair_coeff * * CHONSSi.ff O Si
# pair_coeff * * CHOSiNa.ff O Si
# pair_coeff * * SiOCHN_2018.ff O Si
# pair_coeff * * PDMSDecomp.ff Si O
pair_coeff * * CHONSi.ff C H O Si
# pair_coeff * * CHOFe.ff O Si

# charge method for reaxff
fix myqeq all qeq/reaxff 1 0.0 10.0 1.0e-6 reaxff maxiter 400
# Setup neighbor style
neighbor        2 bin
neigh_modify    every 10 delay 0 check no

# Setup output
fix avgp all ave/time  ${nevery} ${nrepeat} ${nfreq} c_thermo_press mode vector
fix avgp all ave/time  10 ${nrepeat} ${nfreq} c_thermo_press mode vector
fix avgp all ave/time  10 10 ${nfreq} c_thermo_press mode vector
fix avgp all ave/time  10 10 100 c_thermo_press mode vector
thermo		${nthermo}
thermo		100
thermo_style custom step temp pe press f_avgp[1] vol
thermo_modify norm no

# NVT
fix 4 all nvt temp ${temp} ${temp} ${tdamp}
fix 4 all nvt temp 300 ${temp} ${tdamp}
fix 4 all nvt temp 300 300 ${tdamp}
fix 4 all nvt temp 300 300 50
Resetting global fix info from restart file:
  fix style: nvt, fix ID: 4

# Negative deformation
variable delta equal -${up}*${len0}
variable delta equal -0.01*${len0}
variable delta equal -0.01*15.4114
variable deltaxy equal -${up}*xy
variable deltaxy equal -0.01*xy
variable deltaxz equal -${up}*xz
variable deltaxz equal -0.01*xz
variable deltayz equal -${up}*yz
variable deltayz equal -0.01*yz
if "${dir} == 1" then    "change_box all x delta 0 ${delta} xy delta ${deltaxy} xz delta ${deltaxz} remap units box"
change_box all x delta 0 ${delta} xy delta ${deltaxy} xz delta ${deltaxz} remap units box
change_box all x delta 0 -0.154114 xy delta ${deltaxy} xz delta ${deltaxz} remap units box
change_box all x delta 0 -0.154114 xy delta 0.072027 xz delta ${deltaxz} remap units box
change_box all x delta 0 -0.154114 xy delta 0.072027 xz delta 0.018261 remap units box
Changing box ...
WARNING: Triclinic box skew is large. LAMMPS will run inefficiently. (src/domain.cpp:220)
  triclinic box = (0 0 0) to (15.257286 12.7411 17.5034) with tilt (-7.2027 -1.8261 0.3384)
WARNING: Triclinic box skew is large. LAMMPS will run inefficiently. (src/domain.cpp:220)
  triclinic box = (0 0 0) to (15.257286 12.7411 17.5034) with tilt (-7.130673 -1.8261 0.3384)
WARNING: Triclinic box skew is large. LAMMPS will run inefficiently. (src/domain.cpp:220)
  triclinic box = (0 0 0) to (15.257286 12.7411 17.5034) with tilt (-7.130673 -1.807839 0.3384)
if "${dir} == 2" then    "change_box all y delta 0 ${delta} yz delta ${deltayz} remap units box"
if "${dir} == 3" then    "change_box all z delta 0 ${delta} remap units box"
if "${dir} == 4" then    "change_box all yz delta ${delta} remap units box"
if "${dir} == 5" then    "change_box all xz delta ${delta} remap units box"
if "${dir} == 6" then    "change_box all xy delta ${delta} remap units box"

# Run MD for Negative deformation
# save trajectory
dump dump_neg${dir} all custom ${nthermo} dump/neg_deform${dir}.lammpstrj id type x y z
dump dump_neg1 all custom ${nthermo} dump/neg_deform${dir}.lammpstrj id type x y z
dump dump_neg1 all custom 100 dump/neg_deform${dir}.lammpstrj id type x y z
dump dump_neg1 all custom 100 dump/neg_deform1.lammpstrj id type x y z
run ${nrun}
run 3000
All restart file global fix info was re-assigned
Neighbor list info ...
  update: every = 10 steps, delay = 0 steps, check = no
  max neighbors/atom: 2000, page size: 100000
  master list distance cutoff = 12
  ghost atom cutoff = 12
  binsize = 6, bins = 5 3 3
  2 neighbor lists, perpetual/occasional/extra = 2 0 0
  (1) pair reaxff, perpetual
      attributes: half, newton off, ghost
      pair build: half/bin/newtoff/ghost
      stencil: full/ghost/bin/3d
      bin: standard
  (2) fix qeq/reaxff, perpetual, copy from (1)
      attributes: half, newton off
      pair build: copy
      stencil: none
      bin: none
Per MPI rank memory allocation (min/avg/max) = 119.3 | 121 | 122.3 Mbytes
   Step          Temp          PotEng         Press        f_avgp[1]        Volume    
         0   293.7744      -34325.5        71877.551      0              3402.5666    
       100   329.78311     -34356.076      3806.8229      10879.026      3402.5666    
       200   295.94323     -34360.918     -19370.211     -1670.7642      3402.5666    
       300   291.89273     -34388.022     -453.12544      475.81454      3402.5666    
       400   312.93842     -34420.506      8485.706       4898.4808      3402.5666    
       500   283.09221     -34391.285     -4955.5192      5316.7742      3402.5666    
       600   283.40233     -34367.797     -11626.425      5819.0988      3402.5666    
       700   308.23589     -34359.793     -5956.1029      4025.8387      3402.5666    
       800   334.05764     -34365.624     -3927.6534     -1612.7836      3402.5666    
       900   304.97707     -34352.102     -6061.0221      4305.8477      3402.5666    
      1000   319.83912     -34406.958     -2710.08        4211.7588      3402.5666    
      1100   280.90557     -34401.162     -7795.7279      5188.2137      3402.5666    
      1200   287.53758     -34409.278      388.75231      2366.8696      3402.5666    
      1300   292.22652     -34387.196     -8012.7802      7721.8638      3402.5666    
      1400   309.60297     -34372.705     -13483.875      1419.8783      3402.5666    
      1500   326.96468     -34382.211     -5459.8175      3657.0561      3402.5666    
      1600   296.70199     -34387.044      4225.6498      4237.343       3402.5666    
      1700   276.3505      -34402.675      3414.3933      2127.0836      3402.5666    
      1800   280.32362     -34416.874      4638.7442      3816.0029      3402.5666    
      1900   290.63883     -34417.226     -10530.847      908.13995      3402.5666    
      2000   295.12061     -34402.585     -17162.257      2838.6069      3402.5666    
      2100   284.21031     -34383.259      3373.3241      5028.4866      3402.5666    
      2200   292.32837     -34385.236     -8149.5         2099.2605      3402.5666    
      2300   298.05927     -34401.333      176.87279      2710.6813      3402.5666    
      2400   298.1758      -34424.494     -14027.068      513.12854      3402.5666    
      2500   283.19653     -34422.024     -4159.1813      2683.1221      3402.5666    
      2600   286.54718     -34405.056      6406.0561     -3231.1804      3402.5666    
      2700   299.74079     -34399.218     -11333.176      3495.4184      3402.5666    
      2800   327.98014     -34426.524     -4760.8917      5170.9782      3402.5666    
      2900   281.36444     -34398.1        1589.5624      4017.2003      3402.5666    
      3000   288.03483     -34416.698     -557.78586      377.42897      3402.5666    
Loop time of 135.781 on 8 procs for 3000 steps with 310 atoms

Performance: 0.954 ns/day, 25.145 hours/ns, 22.094 timesteps/s, 6.849 katom-step/s
98.8% CPU use with 8 MPI tasks x 1 OpenMP threads

MPI task timing breakdown:
Section |  min time  |  avg time  |  max time  |%varavg| %total
---------------------------------------------------------------
Pair    | 98.938     | 107.49     | 114.29     |  56.7 | 79.16
Bond    | 0.0084451  | 0.0091848  | 0.009966   |   0.5 |  0.01
Neigh   | 7.4481     | 8.0201     | 8.4638     |  12.9 |  5.91
Comm    | 1.4023     | 8.2234     | 16.789     | 205.5 |  6.06
Output  | 0.0063116  | 0.0079667  | 0.0094849  |   1.4 |  0.01
Modify  | 11.491     | 11.956     | 12.523     |  10.4 |  8.81
Other   |            | 0.07407    |            |       |  0.05

Nlocal:          38.75 ave          46 max          28 min
Histogram: 1 0 0 0 1 2 1 1 1 1
Nghost:        3099.12 ave        3123 max        3068 min
Histogram: 1 0 0 1 0 2 1 1 1 1
Neighs:          24745 ave       29072 max       18257 min
Histogram: 1 0 0 0 1 2 1 1 1 1

Total # of neighbors = 197960
Ave neighs/atom = 638.58065
Ave special neighs/atom = 0
Neighbor list builds = 300
Dangerous builds not checked
undump dump_neg${dir}
undump dump_neg1

# Run equilibration
print "*****Equilibration neg${dir} starts.*****"
*****Equilibration neg1 starts.*****
include ff.mod.lmp
# Setup forcefield, system
# undefine any fix ave/* fix before using reset_timestep
if "$(is_defined(fix,avgp))" then "unfix avgp"
unfix avgp
reset_timestep 0

# Assign the force field
pair_style reaxff NULL safezone 3.0 mincap 150
# pair_coeff * * CHONSSi.ff O Si
# pair_coeff * * CHOSiNa.ff O Si
# pair_coeff * * SiOCHN_2018.ff O Si
# pair_coeff * * PDMSDecomp.ff Si O
pair_coeff * * CHONSi.ff C H O Si
# pair_coeff * * CHOFe.ff O Si

# charge method for reaxff
fix myqeq all qeq/reaxff 1 0.0 10.0 1.0e-6 reaxff maxiter 400
# Setup neighbor style
neighbor        2 bin
neigh_modify    every 10 delay 0 check no

# Setup output
fix avgp all ave/time  ${nevery} ${nrepeat} ${nfreq} c_thermo_press mode vector
fix avgp all ave/time  10 ${nrepeat} ${nfreq} c_thermo_press mode vector
fix avgp all ave/time  10 10 ${nfreq} c_thermo_press mode vector
fix avgp all ave/time  10 10 100 c_thermo_press mode vector
thermo		${nthermo}
thermo		100
thermo_style custom step temp pe press f_avgp[1] vol
WARNING: New thermo_style command, previous thermo_modify settings will be lost (src/output.cpp:903)
thermo_modify norm no

# NVT
fix 4 all nvt temp ${temp} ${temp} ${tdamp}
fix 4 all nvt temp 300 ${temp} ${tdamp}
fix 4 all nvt temp 300 300 ${tdamp}
fix 4 all nvt temp 300 300 50
run ${nequil}
run 3000
Neighbor list info ...
  update: every = 10 steps, delay = 0 steps, check = no
  max neighbors/atom: 2000, page size: 100000
  master list distance cutoff = 12
  ghost atom cutoff = 12
  binsize = 6, bins = 5 3 3
  2 neighbor lists, perpetual/occasional/extra = 2 0 0
  (1) pair reaxff, perpetual
      attributes: half, newton off, ghost
      pair build: half/bin/newtoff/ghost
      stencil: full/ghost/bin/3d
      bin: standard
  (2) fix qeq/reaxff, perpetual, copy from (1)
      attributes: half, newton off
      pair build: copy
      stencil: none
      bin: none
Per MPI rank memory allocation (min/avg/max) = 119.3 | 121 | 122.5 Mbytes
   Step          Temp          PotEng         Press        f_avgp[1]        Volume    
         0   288.03483     -34416.698     -557.78298      0              3402.5666    
       100   298.15031     -34425.544     -10778.877      1487.1467      3402.5666    
       200   311.03841     -34417.24      -7455.8188      4607.6418      3402.5666    
       300   328.67504     -34411.804     -1347.9555      5784.7711      3402.5666    
       400   299.82887     -34406.789      2155.0259      1339.9531      3402.5666    
       500   307.77125     -34430.264     -5439.3721      4134.1977      3402.5666    
       600   308.14409     -34427.995      11075.56       5860.5455      3402.5666    
       700   293.31354     -34400.294     -12631.723      946.59594      3402.5666    
       800   321.23106     -34403.837      1219.1344     -91.620891      3402.5666    
       900   336.89012     -34394.962      265.14489     -493.22491      3402.5666    
      1000   328.95161     -34399.829     -155.31919      1489.1359      3402.5666    
      1100   286.54409     -34396.964     -4717.0052      5024.7983      3402.5666    
      1200   303.45369     -34417.825      7490.451       6901.7142      3402.5666    
      1300   293.66909     -34396.969      791.24307      2834.2895      3402.5666    
      1400   311.09329     -34412.027     -23220.42       951.6351       3402.5666    
      1500   295.14244     -34420.871     -10807.77      -2837.5132      3402.5666    
      1600   281.28118     -34424.056     -2702.3205      1742.1943      3402.5666    
      1700   303.52333     -34435.286     -8719.8236      3833.2064      3402.5666    
      1800   312.5001      -34404.012     -15.695859      49.189892      3402.5666    
      1900   307.26268     -34395.893     -8243.2936      8770.5563      3402.5666    
      2000   301.77368     -34411.711     -19363.068      468.01409      3402.5666    
      2100   301.11166     -34426.015     -5547.5843     -1300.5302      3402.5666    
      2200   311.53333     -34439.398     -10750.145      1503.2277      3402.5666    
      2300   276.04827     -34415.544      232.31454     -2664.5902      3402.5666    
      2400   293.36374     -34432.164      6460.1304     -28.900394      3402.5666    
      2500   282.05443     -34401.681      10296.225      7615.3199      3402.5666    
      2600   312.7121      -34410.175     -7811.9306      2095.3434      3402.5666    
      2700   326.33652     -34421.873      7430.3641      1729.6944      3402.5666    
      2800   292.66687     -34417.446     -16494.19       5655.6233      3402.5666    
      2900   291.43893     -34435.659     -8172.2947      5455.4089      3402.5666    
      3000   276.50926     -34415.343     -9925.6337      1675.75        3402.5666    
Loop time of 137.192 on 8 procs for 3000 steps with 310 atoms

Performance: 0.945 ns/day, 25.406 hours/ns, 21.867 timesteps/s, 6.779 katom-step/s
98.8% CPU use with 8 MPI tasks x 1 OpenMP threads

MPI task timing breakdown:
Section |  min time  |  avg time  |  max time  |%varavg| %total
---------------------------------------------------------------
Pair    | 90.13      | 108.11     | 115.61     |  86.5 | 78.80
Bond    | 0.0083258  | 0.0091147  | 0.0097544  |   0.5 |  0.01
Neigh   | 6.9768     | 8.0297     | 8.5433     |  20.7 |  5.85
Comm    | 1.2951     | 8.8211     | 26.822     | 303.3 |  6.43
Output  | 0.0013536  | 0.001665   | 0.00361    |   1.8 |  0.00
Modify  | 11.6       | 12.144     | 13.186     |  16.8 |  8.85
Other   |            | 0.0746     |            |       |  0.05

Nlocal:          38.75 ave          44 max          33 min
Histogram: 2 0 0 1 1 1 0 0 0 3
Nghost:        3113.75 ave        3146 max        3076 min
Histogram: 1 0 1 1 1 1 0 0 1 2
Neighs:        24751.6 ave       27990 max       21316 min
Histogram: 2 0 0 1 1 1 0 0 2 1

Total # of neighbors = 198013
Ave neighs/atom = 638.75161
Ave special neighs/atom = 0
Neighbor list builds = 300
Dangerous builds not checked

# Obtain new stress tensor Negative deformation, convert index from LAMMPS to Voigt
variable pxx1 equal f_avgp[1]
variable pyy1 equal f_avgp[2]
variable pzz1 equal f_avgp[3]
variable pxy1 equal f_avgp[4]
variable pxz1 equal f_avgp[5]
variable pyz1 equal f_avgp[6]

# Compute elastic constant from pressure
# d1 = -[pxx1-pxx0]/[(]v_delta/v_len0] defined in input script
variable C1neg equal ${d1}
variable C1neg equal -32.4652006067262
variable C2neg equal ${d2}
variable C2neg equal -78.4676388717401
variable C3neg equal ${d3}
variable C3neg equal -105.010851490713
variable C4neg equal ${d4}
variable C4neg equal -23.7832642699697
variable C5neg equal ${d5}
variable C5neg equal 14.6500863426017
variable C6neg equal ${d6}
variable C6neg equal 0.776595763070091

# Reset box and simulation parameters
clear
OMP_NUM_THREADS environment is not set. Defaulting to 1 thread. (src/comm.cpp:98)
  using 1 OpenMP thread(s) per MPI task
# box tilt large
read_restart equil.res
Reading restart file ...
  restart file = 2 Aug 2023, LAMMPS = 2 Aug 2023
  restoring atom style full from restart
  triclinic box = (0 0 0) to (15.4114 12.7411 17.5034) with tilt (-7.2027 -1.8261 0.3384)
WARNING: Triclinic box skew is large. LAMMPS will run inefficiently. (src/domain.cpp:220)
  2 by 2 by 2 MPI processor grid
  pair style reaxff stores no restart info
  310 atoms
Finding 1-2 1-3 1-4 neighbors ...
  special bond factors lj:    0        0        0       
  special bond factors coul:  0        0        0       
     0 = max # of 1-2 neighbors
     0 = max # of 1-3 neighbors
     0 = max # of 1-4 neighbors
     1 = max # of special neighbors
  special bonds CPU = 0.000 seconds
  read_restart CPU = 0.004 seconds
print "*****Positive-change ${dir} starts.*****"
*****Positive-change 1 starts.*****
include ff.mod.lmp
# Setup forcefield, system
# undefine any fix ave/* fix before using reset_timestep
if "$(is_defined(fix,avgp))" then "unfix avgp"
reset_timestep 0

# Assign the force field
pair_style reaxff NULL safezone 3.0 mincap 150
# pair_coeff * * CHONSSi.ff O Si
# pair_coeff * * CHOSiNa.ff O Si
# pair_coeff * * SiOCHN_2018.ff O Si
# pair_coeff * * PDMSDecomp.ff Si O
pair_coeff * * CHONSi.ff C H O Si
# pair_coeff * * CHOFe.ff O Si

# charge method for reaxff
fix myqeq all qeq/reaxff 1 0.0 10.0 1.0e-6 reaxff maxiter 400
# Setup neighbor style
neighbor        2 bin
neigh_modify    every 10 delay 0 check no

# Setup output
fix avgp all ave/time  ${nevery} ${nrepeat} ${nfreq} c_thermo_press mode vector
fix avgp all ave/time  10 ${nrepeat} ${nfreq} c_thermo_press mode vector
fix avgp all ave/time  10 10 ${nfreq} c_thermo_press mode vector
fix avgp all ave/time  10 10 100 c_thermo_press mode vector
thermo		${nthermo}
thermo		100
thermo_style custom step temp pe press f_avgp[1] vol
thermo_modify norm no

# NVT
fix 4 all nvt temp ${temp} ${temp} ${tdamp}
fix 4 all nvt temp 300 ${temp} ${tdamp}
fix 4 all nvt temp 300 300 ${tdamp}
fix 4 all nvt temp 300 300 50
Resetting global fix info from restart file:
  fix style: nvt, fix ID: 4

# Positive deformation
variable delta equal ${up}*${len0}
variable delta equal 0.01*${len0}
variable delta equal 0.01*15.4114
variable deltaxy equal ${up}*xy
variable deltaxy equal 0.01*xy
variable deltaxz equal ${up}*xz
variable deltaxz equal 0.01*xz
variable deltayz equal ${up}*yz
variable deltayz equal 0.01*yz
if "${dir} == 1" then    "change_box all x delta 0 ${delta} xy delta ${deltaxy} xz delta ${deltaxz} remap units box"
change_box all x delta 0 ${delta} xy delta ${deltaxy} xz delta ${deltaxz} remap units box
change_box all x delta 0 0.154114 xy delta ${deltaxy} xz delta ${deltaxz} remap units box
change_box all x delta 0 0.154114 xy delta -0.072027 xz delta ${deltaxz} remap units box
change_box all x delta 0 0.154114 xy delta -0.072027 xz delta -0.018261 remap units box
Changing box ...
WARNING: Triclinic box skew is large. LAMMPS will run inefficiently. (src/domain.cpp:220)
  triclinic box = (0 0 0) to (15.565514 12.7411 17.5034) with tilt (-7.2027 -1.8261 0.3384)
WARNING: Triclinic box skew is large. LAMMPS will run inefficiently. (src/domain.cpp:220)
  triclinic box = (0 0 0) to (15.565514 12.7411 17.5034) with tilt (-7.274727 -1.8261 0.3384)
WARNING: Triclinic box skew is large. LAMMPS will run inefficiently. (src/domain.cpp:220)
  triclinic box = (0 0 0) to (15.565514 12.7411 17.5034) with tilt (-7.274727 -1.844361 0.3384)
if "${dir} == 2" then    "change_box all y delta 0 ${delta} yz delta ${deltayz} remap units box"
if "${dir} == 3" then    "change_box all z delta 0 ${delta} remap units box"
if "${dir} == 4" then    "change_box all yz delta ${delta} remap units box"
if "${dir} == 5" then    "change_box all xz delta ${delta} remap units box"
if "${dir} == 6" then    "change_box all xy delta ${delta} remap units box"

# Run positive deformation MD
# save trajectory
dump dump_pos${dir} all custom ${nthermo} dump/pos_deform${dir}.lammpstrj id type x y z
dump dump_pos1 all custom ${nthermo} dump/pos_deform${dir}.lammpstrj id type x y z
dump dump_pos1 all custom 100 dump/pos_deform${dir}.lammpstrj id type x y z
dump dump_pos1 all custom 100 dump/pos_deform1.lammpstrj id type x y z
run ${nrun}
run 3000
All restart file global fix info was re-assigned
Neighbor list info ...
  update: every = 10 steps, delay = 0 steps, check = no
  max neighbors/atom: 2000, page size: 100000
  master list distance cutoff = 12
  ghost atom cutoff = 12
  binsize = 6, bins = 5 3 3
  2 neighbor lists, perpetual/occasional/extra = 2 0 0
  (1) pair reaxff, perpetual
      attributes: half, newton off, ghost
      pair build: half/bin/newtoff/ghost
      stencil: full/ghost/bin/3d
      bin: standard
  (2) fix qeq/reaxff, perpetual, copy from (1)
      attributes: half, newton off
      pair build: copy
      stencil: none
      bin: none
Per MPI rank memory allocation (min/avg/max) = 117.7 | 119.4 | 120.9 Mbytes
   Step          Temp          PotEng         Press        f_avgp[1]        Volume    
         0   293.7744      -34342.437     -36404.14       0              3471.3053    
       100   326.30907     -34363.107      4625.316       7482.4369      3471.3053    
       200   311.43851     -34369.396     -13109.784     -6748.2864      3471.3053    
       300   291.52681     -34375.542     -11193.127     -3170.5198      3471.3053    
       400   290.2923      -34386.472     -5787.1313     -3754.6328      3471.3053    
       500   280.54982     -34382.951      10426.642      3108.2009      3471.3053    
       600   291.74903     -34377.743     -10455.785     -234.77146      3471.3053    
       700   303.60221     -34361.585      3278.4677      669.30231      3471.3053    
       800   338.04703     -34383.017     -3676.9481     -2604.7423      3471.3053    
       900   293.092       -34361.862     -13855.926      992.84141      3471.3053    
      1000   300.88717     -34398.756     -6341.4279     -1244.1478      3471.3053    
      1100   286.75527     -34401.118     -19374.737     -4882.6778      3471.3053    
      1200   305.40971     -34410.617     -5746.7808     -2016.1186      3471.3053    
      1300   296.76694     -34387.08      -17107.126     -6632.5367      3471.3053    
      1400   316.86417     -34395.823     -8228.9376      1099.7214      3471.3053    
      1500   313.70855     -34400.741      857.07216      3718.4836      3471.3053    
      1600   312.20184     -34408.964      1937.3249     -2109.7173      3471.3053    
      1700   299.08818     -34413.714      9.623326      -441.67728      3471.3053    
      1800   291.26602     -34412.624     -17948.581      3012.094       3471.3053    
      1900   308.75145     -34419.285     -9563.6399     -5190.4961      3471.3053    
      2000   298.40048     -34392.205     -3544.2081     -197.9924       3471.3053    
      2100   297.02489     -34387.709     -6006.7739     -3187.051       3471.3053    
      2200   307.48385     -34411.46      -655.11499      4435.7842      3471.3053    
      2300   299.6792      -34420.015     -6627.7958     -3981.9002      3471.3053    
      2400   309.09351     -34433.361      7550.0713     -6773.0145      3471.3053    
      2500   276.01143     -34393.54      -16224.541      2085.5893      3471.3053    
      2600   298.12219     -34382.051     -4622.1257      1549.4812      3471.3053    
      2700   308.68186     -34387.08      -13601.645     -4975.5747      3471.3053    
      2800   289.49034     -34384.152     -9574.2052     -4762.1509      3471.3053    
      2900   305.7048      -34407.328     -5366.0937      210.10098      3471.3053    
      3000   261.76067     -34384.234      17992.374      7.7970184      3471.3053    
Loop time of 134.327 on 8 procs for 3000 steps with 310 atoms

Performance: 0.965 ns/day, 24.875 hours/ns, 22.334 timesteps/s, 6.923 katom-step/s
98.7% CPU use with 8 MPI tasks x 1 OpenMP threads

MPI task timing breakdown:
Section |  min time  |  avg time  |  max time  |%varavg| %total
---------------------------------------------------------------
Pair    | 97.838     | 108.43     | 113.09     |  41.6 | 80.72
Bond    | 0.0084266  | 0.0093453  | 0.010126   |   0.6 |  0.01
Neigh   | 7.6862     | 8.1978     | 8.439      |   8.2 |  6.10
Comm    | 1.2254     | 5.9025     | 16.523     | 178.7 |  4.39
Output  | 0.0066643  | 0.0082582  | 0.0097086  |   1.3 |  0.01
Modify  | 11.441     | 11.701     | 12.188     |   6.9 |  8.71
Other   |            | 0.07497    |            |       |  0.06

Nlocal:          38.75 ave          44 max          34 min
Histogram: 1 0 1 2 0 2 0 0 0 2
Nghost:        3083.62 ave        3101 max        3044 min
Histogram: 1 0 0 0 1 1 0 1 1 3
Neighs:        24230.8 ave       27504 max       21378 min
Histogram: 1 0 3 0 1 1 0 0 0 2

Total # of neighbors = 193846
Ave neighs/atom = 625.30968
Ave special neighs/atom = 0
Neighbor list builds = 300
Dangerous builds not checked
undump dump_pos${dir}
undump dump_pos1

# Run equilibration
print "*****Equilibration pos${dir} starts.*****"
*****Equilibration pos1 starts.*****
include ff.mod.lmp
# Setup forcefield, system
# undefine any fix ave/* fix before using reset_timestep
if "$(is_defined(fix,avgp))" then "unfix avgp"
unfix avgp
reset_timestep 0

# Assign the force field
pair_style reaxff NULL safezone 3.0 mincap 150
# pair_coeff * * CHONSSi.ff O Si
# pair_coeff * * CHOSiNa.ff O Si
# pair_coeff * * SiOCHN_2018.ff O Si
# pair_coeff * * PDMSDecomp.ff Si O
pair_coeff * * CHONSi.ff C H O Si
# pair_coeff * * CHOFe.ff O Si

# charge method for reaxff
fix myqeq all qeq/reaxff 1 0.0 10.0 1.0e-6 reaxff maxiter 400
# Setup neighbor style
neighbor        2 bin
neigh_modify    every 10 delay 0 check no

# Setup output
fix avgp all ave/time  ${nevery} ${nrepeat} ${nfreq} c_thermo_press mode vector
fix avgp all ave/time  10 ${nrepeat} ${nfreq} c_thermo_press mode vector
fix avgp all ave/time  10 10 ${nfreq} c_thermo_press mode vector
fix avgp all ave/time  10 10 100 c_thermo_press mode vector
thermo		${nthermo}
thermo		100
thermo_style custom step temp pe press f_avgp[1] vol
WARNING: New thermo_style command, previous thermo_modify settings will be lost (src/output.cpp:903)
thermo_modify norm no

# NVT
fix 4 all nvt temp ${temp} ${temp} ${tdamp}
fix 4 all nvt temp 300 ${temp} ${tdamp}
fix 4 all nvt temp 300 300 ${tdamp}
fix 4 all nvt temp 300 300 50
run ${nequil}
run 3000
Neighbor list info ...
  update: every = 10 steps, delay = 0 steps, check = no
  max neighbors/atom: 2000, page size: 100000
  master list distance cutoff = 12
  ghost atom cutoff = 12
  binsize = 6, bins = 5 3 3
  2 neighbor lists, perpetual/occasional/extra = 2 0 0
  (1) pair reaxff, perpetual
      attributes: half, newton off, ghost
      pair build: half/bin/newtoff/ghost
      stencil: full/ghost/bin/3d
      bin: standard
  (2) fix qeq/reaxff, perpetual, copy from (1)
      attributes: half, newton off
      pair build: copy
      stencil: none
      bin: none
Per MPI rank memory allocation (min/avg/max) = 117.8 | 119.4 | 120.9 Mbytes
   Step          Temp          PotEng         Press        f_avgp[1]        Volume    
         0   261.76067     -34384.234      17992.368      0              3471.3053    
       100   306.88165     -34415.039     -2310.0965      4510.0972      3471.3053    
       200   308.77699     -34403.897     -292.60802      2829.1597      3471.3053    
       300   317.54725     -34405.838     -126.80584     -3204.7417      3471.3053    
       400   306.89604     -34410.912     -7637.2025      4615.5389      3471.3053    
       500   292.50661     -34423.342     -8897.8645     -3391.0273      3471.3053    
       600   295.9942      -34427.474     -3556.7385      1578.7106      3471.3053    
       700   287.59335     -34409.803     -11766.654      983.30823      3471.3053    
       800   318.64082     -34400.328      1733.4906      1686.0002      3471.3053    
       900   316.96151     -34400.94      -1647.3778     -1408.8233      3471.3053    
      1000   292.67246     -34402.199     -2706.3137     -3447.3836      3471.3053    
      1100   297.5187      -34424.781     -3895.4691      863.05594      3471.3053    
      1200   267.76281     -34404.893      7258.5924     -785.05033      3471.3053    
      1300   304.68028     -34436.572     -826.20789     -1937.4829      3471.3053    
      1400   307.98056     -34423.651     -564.49536     -214.60872      3471.3053    
      1500   297.62057     -34389.165     -1845.1197     -341.33954      3471.3053    
      1600   329.16473     -34421.827      5416.0744     -383.82806      3471.3053    
      1700   300.30086     -34423.174     -12298.517     -1075.4438      3471.3053    
      1800   287.30842     -34424.539      6092.0884     -1236.4229      3471.3053    
      1900   306.48939     -34445.145      7806.5391     -5760.5824      3471.3053    
      2000   300.01726     -34424.183      8295.9398      3944.0191      3471.3053    
      2100   306.64691     -34410.81      -7066.6553     -1328.3658      3471.3053    
      2200   310.19747     -34426.869     -10734.135      2407.4915      3471.3053    
      2300   287.45167     -34441.613      4493.8838      1574.9511      3471.3053    
      2400   292.27064     -34443.472     -1071.0133     -867.89871      3471.3053    
      2500   319.9754      -34446.016      5145.5742      3351.1491      3471.3053    
      2600   311.93094     -34424.102     -4649.3768     -2559.2466      3471.3053    
      2700   311.7693      -34424.024     -4634.0137      2750.9333      3471.3053    
      2800   266.14972     -34406.789     -957.05768     -2590.7248      3471.3053    
      2900   290.5193      -34452.914      466.21681      852.08432      3471.3053    
      3000   284.26676     -34432.777     -16015.702     -5849.5332      3471.3053    
Loop time of 135.782 on 8 procs for 3000 steps with 310 atoms

Performance: 0.954 ns/day, 25.145 hours/ns, 22.094 timesteps/s, 6.849 katom-step/s
98.8% CPU use with 8 MPI tasks x 1 OpenMP threads

MPI task timing breakdown:
Section |  min time  |  avg time  |  max time  |%varavg| %total
---------------------------------------------------------------
Pair    | 75.529     | 101.23     | 114.34     | 138.9 | 74.56
Bond    | 0.0080625  | 0.0091168  | 0.0097194  |   0.6 |  0.01
Neigh   | 5.8694     | 7.6718     | 8.7051     |  36.8 |  5.65
Comm    | 1.0171     | 14.132     | 39.816     | 371.9 | 10.41
Output  | 0.0013491  | 0.001571   | 0.0028235  |   1.2 |  0.00
Modify  | 11.623     | 12.663     | 14.495     |  28.7 |  9.33
Other   |            | 0.07043    |            |       |  0.05

Nlocal:          38.75 ave          42 max          36 min
Histogram: 1 3 0 1 0 0 0 0 1 2
Nghost:         3066.5 ave        3120 max        3005 min
Histogram: 1 1 0 1 0 0 2 1 1 1
Neighs:        24274.6 ave       26192 max       22727 min
Histogram: 1 2 1 1 0 0 0 0 1 2

Total # of neighbors = 194197
Ave neighs/atom = 626.44194
Ave special neighs/atom = 0
Neighbor list builds = 300
Dangerous builds not checked

# Obtain new stress tensor, convert index from LAMMPS to Voigt
variable pxx1 equal f_avgp[1]
variable pyy1 equal f_avgp[2]
variable pzz1 equal f_avgp[3]
variable pxy1 equal f_avgp[4]
variable pxz1 equal f_avgp[5]
variable pyz1 equal f_avgp[6]

# Compute elastic constant from pressure tensor
# d1 = -[pxx1-pxx0]/[(]v_delta/v_len0] defined in input script
variable C1pos equal ${d1}
variable C1pos equal 108.715132926324
variable C2pos equal ${d2}
variable C2pos equal 90.6118787467871
variable C3pos equal ${d3}
variable C3pos equal 122.136645275922
variable C4pos equal ${d4}
variable C4pos equal 29.2182997638987
variable C5pos equal ${d5}
variable C5pos equal -14.7597153376145
variable C6pos equal ${d6}
variable C6pos equal -7.3365240110791

# Combine positive and negative
variable C1${dir} equal 0.5*(${C1neg}+${C1pos})
variable C11 equal 0.5*(${C1neg}+${C1pos})
variable C11 equal 0.5*(-32.4652006067262+${C1pos})
variable C11 equal 0.5*(-32.4652006067262+108.715132926324)
variable C2${dir} equal 0.5*(${C2neg}+${C2pos})
variable C21 equal 0.5*(${C2neg}+${C2pos})
variable C21 equal 0.5*(-78.4676388717401+${C2pos})
variable C21 equal 0.5*(-78.4676388717401+90.6118787467871)
variable C3${dir} equal 0.5*(${C3neg}+${C3pos})
variable C31 equal 0.5*(${C3neg}+${C3pos})
variable C31 equal 0.5*(-105.010851490713+${C3pos})
variable C31 equal 0.5*(-105.010851490713+122.136645275922)
variable C4${dir} equal 0.5*(${C4neg}+${C4pos})
variable C41 equal 0.5*(${C4neg}+${C4pos})
variable C41 equal 0.5*(-23.7832642699697+${C4pos})
variable C41 equal 0.5*(-23.7832642699697+29.2182997638987)
variable C5${dir} equal 0.5*(${C5neg}+${C5pos})
variable C51 equal 0.5*(${C5neg}+${C5pos})
variable C51 equal 0.5*(14.6500863426017+${C5pos})
variable C51 equal 0.5*(14.6500863426017+-14.7597153376145)
variable C6${dir} equal 0.5*(${C6neg}+${C6pos})
variable C61 equal 0.5*(${C6neg}+${C6pos})
variable C61 equal 0.5*(0.776595763070091+${C6pos})
variable C61 equal 0.5*(0.776595763070091+-7.3365240110791)

# Delete dir to make sure it is not reused
variable dir delete
# uyy Perturbation
variable dir equal 2
include displace.mod.lmp
# Find which reference length to use
if "${dir} == 1" then    "variable len0 equal ${lx0}"
if "${dir} == 2" then    "variable len0 equal ${ly0}"
variable len0 equal ${ly0}
variable len0 equal 12.7411
if "${dir} == 3" then    "variable len0 equal ${lz0}"
if "${dir} == 4" then    "variable len0 equal ${lz0}"
if "${dir} == 5" then    "variable len0 equal ${lz0}"
if "${dir} == 6" then    "variable len0 equal ${ly0}"

# Reset box and simulation parameters
clear
OMP_NUM_THREADS environment is not set. Defaulting to 1 thread. (src/comm.cpp:98)
  using 1 OpenMP thread(s) per MPI task
# box tilt large
read_restart equil.res
Reading restart file ...
  restart file = 2 Aug 2023, LAMMPS = 2 Aug 2023
  restoring atom style full from restart
  triclinic box = (0 0 0) to (15.4114 12.7411 17.5034) with tilt (-7.2027 -1.8261 0.3384)
WARNING: Triclinic box skew is large. LAMMPS will run inefficiently. (src/domain.cpp:220)
  2 by 2 by 2 MPI processor grid
  pair style reaxff stores no restart info
  310 atoms
Finding 1-2 1-3 1-4 neighbors ...
  special bond factors lj:    0        0        0       
  special bond factors coul:  0        0        0       
     0 = max # of 1-2 neighbors
     0 = max # of 1-3 neighbors
     0 = max # of 1-4 neighbors
     1 = max # of special neighbors
  special bonds CPU = 0.000 seconds
  read_restart CPU = 0.003 seconds
print "*****Negative-change ${dir} starts.*****"
*****Negative-change 2 starts.*****
include ff.mod.lmp
# Setup forcefield, system
# undefine any fix ave/* fix before using reset_timestep
if "$(is_defined(fix,avgp))" then "unfix avgp"
reset_timestep 0

# Assign the force field
pair_style reaxff NULL safezone 3.0 mincap 150
# pair_coeff * * CHONSSi.ff O Si
# pair_coeff * * CHOSiNa.ff O Si
# pair_coeff * * SiOCHN_2018.ff O Si
# pair_coeff * * PDMSDecomp.ff Si O
pair_coeff * * CHONSi.ff C H O Si
# pair_coeff * * CHOFe.ff O Si

# charge method for reaxff
fix myqeq all qeq/reaxff 1 0.0 10.0 1.0e-6 reaxff maxiter 400
# Setup neighbor style
neighbor        2 bin
neigh_modify    every 10 delay 0 check no

# Setup output
fix avgp all ave/time  ${nevery} ${nrepeat} ${nfreq} c_thermo_press mode vector
fix avgp all ave/time  10 ${nrepeat} ${nfreq} c_thermo_press mode vector
fix avgp all ave/time  10 10 ${nfreq} c_thermo_press mode vector
fix avgp all ave/time  10 10 100 c_thermo_press mode vector
thermo		${nthermo}
thermo		100
thermo_style custom step temp pe press f_avgp[1] vol
thermo_modify norm no

# NVT
fix 4 all nvt temp ${temp} ${temp} ${tdamp}
fix 4 all nvt temp 300 ${temp} ${tdamp}
fix 4 all nvt temp 300 300 ${tdamp}
fix 4 all nvt temp 300 300 50
Resetting global fix info from restart file:
  fix style: nvt, fix ID: 4

# Negative deformation
variable delta equal -${up}*${len0}
variable delta equal -0.01*${len0}
variable delta equal -0.01*12.7411
variable deltaxy equal -${up}*xy
variable deltaxy equal -0.01*xy
variable deltaxz equal -${up}*xz
variable deltaxz equal -0.01*xz
variable deltayz equal -${up}*yz
variable deltayz equal -0.01*yz
if "${dir} == 1" then    "change_box all x delta 0 ${delta} xy delta ${deltaxy} xz delta ${deltaxz} remap units box"
if "${dir} == 2" then    "change_box all y delta 0 ${delta} yz delta ${deltayz} remap units box"
change_box all y delta 0 ${delta} yz delta ${deltayz} remap units box
change_box all y delta 0 -0.127411 yz delta ${deltayz} remap units box
change_box all y delta 0 -0.127411 yz delta -0.003384 remap units box
Changing box ...
WARNING: Triclinic box skew is large. LAMMPS will run inefficiently. (src/domain.cpp:220)
  triclinic box = (0 0 0) to (15.4114 12.613689 17.5034) with tilt (-7.2027 -1.8261 0.3384)
WARNING: Triclinic box skew is large. LAMMPS will run inefficiently. (src/domain.cpp:220)
  triclinic box = (0 0 0) to (15.4114 12.613689 17.5034) with tilt (-7.2027 -1.8261 0.335016)
if "${dir} == 3" then    "change_box all z delta 0 ${delta} remap units box"
if "${dir} == 4" then    "change_box all yz delta ${delta} remap units box"
if "${dir} == 5" then    "change_box all xz delta ${delta} remap units box"
if "${dir} == 6" then    "change_box all xy delta ${delta} remap units box"

# Run MD for Negative deformation
# save trajectory
dump dump_neg${dir} all custom ${nthermo} dump/neg_deform${dir}.lammpstrj id type x y z
dump dump_neg2 all custom ${nthermo} dump/neg_deform${dir}.lammpstrj id type x y z
dump dump_neg2 all custom 100 dump/neg_deform${dir}.lammpstrj id type x y z
dump dump_neg2 all custom 100 dump/neg_deform2.lammpstrj id type x y z
run ${nrun}
run 3000
All restart file global fix info was re-assigned
Neighbor list info ...
  update: every = 10 steps, delay = 0 steps, check = no
  max neighbors/atom: 2000, page size: 100000
  master list distance cutoff = 12
  ghost atom cutoff = 12
  binsize = 6, bins = 5 3 3
  2 neighbor lists, perpetual/occasional/extra = 2 0 0
  (1) pair reaxff, perpetual
      attributes: half, newton off, ghost
      pair build: half/bin/newtoff/ghost
      stencil: full/ghost/bin/3d
      bin: standard
  (2) fix qeq/reaxff, perpetual, copy from (1)
      attributes: half, newton off
      pair build: copy
      stencil: none
      bin: none
Per MPI rank memory allocation (min/avg/max) = 120.4 | 121.6 | 122.5 Mbytes
   Step          Temp          PotEng         Press        f_avgp[1]        Volume    
         0   293.7744      -34332.672      66378.029      0              3402.5666    
       100   326.83534     -34358.913      9347.8287      8150.4703      3402.5666    
       200   304.29088     -34369.724     -7650.5899     -1960.6274      3402.5666    
       300   301.92049     -34402.808      10545.553      4380.4403      3402.5666    
       400   290.11484     -34415.39       5475.2882      3958.2052      3402.5666    
       500   273.44432     -34403.981     -432.96106      4658.9853      3402.5666    
       600   301.28754     -34406.179      2739.0347      2396.2624      3402.5666    
       700   298.45129     -34373.048     -6661.5867     -588.89949      3402.5666    
       800   325.07592     -34381.432     -595.45295      1686.849       3402.5666    
       900   302.34106     -34376.439      6725.4839      4980.5039      3402.5666    
      1000   292.19818     -34400.93       5967.6242      3330.4849      3402.5666    
      1100   287.05602     -34420.76      -3006.7091      3737.1117      3402.5666    
      1200   303.20149     -34450.287     -1205.9782      3556.9463      3402.5666    
      1300   299.07004     -34440.651      1145.0034      2915.3407      3402.5666    
      1400   289.92092     -34405.73       6487.4223      678.67166      3402.5666    
      1500   316.60979     -34401.322      1245.8423      3410.4538      3402.5666    
      1600   320.92766     -34402.749     -8153.8995      6175.7297      3402.5666    
      1700   312.96295     -34422.321      2699.0669      7735.0446      3402.5666    
      1800   279.37517     -34418.27      -220.12249     -2031.067       3402.5666    
      1900   277.88438     -34422.653     -3265.7669      3814.6582      3402.5666    
      2000   307.48103     -34432.684     -10839.539      1271.5         3402.5666    
      2100   298.5663      -34402.667      1176.7361      5648.8651      3402.5666    
      2200   320.79786     -34407.121      468.09416      2964.2186      3402.5666    
      2300   299.78327     -34396.715      5623.3128      11437.643      3402.5666    
      2400   282.62318     -34409.99      -2998.8695      2307.9061      3402.5666    
      2500   288.10354     -34425.674     -4010.286       2859.2694      3402.5666    
      2600   301.92266     -34434.071     -918.59668      5376.3465      3402.5666    
      2700   326.71022     -34427.484      7789.8459      5976.5202      3402.5666    
      2800   314.70166     -34404.721     -3955.5937      3960.8869      3402.5666    
      2900   306.22507     -34406.597      338.54365      4600.2444      3402.5666    
      3000   301.44375     -34410.542      5817.2218      1216.8381      3402.5666    
Loop time of 137.988 on 8 procs for 3000 steps with 310 atoms

Performance: 0.939 ns/day, 25.553 hours/ns, 21.741 timesteps/s, 6.740 katom-step/s
98.8% CPU use with 8 MPI tasks x 1 OpenMP threads

MPI task timing breakdown:
Section |  min time  |  avg time  |  max time  |%varavg| %total
---------------------------------------------------------------
Pair    | 78.122     | 102.13     | 116.38     | 142.0 | 74.01
Bond    | 0.0079983  | 0.0090425  | 0.0097842  |   0.6 |  0.01
Neigh   | 5.9147     | 7.656      | 8.7629     |  39.7 |  5.55
Comm    | 1.1176     | 15.385     | 39.368     | 366.0 | 11.15
Output  | 0.0067201  | 0.0083589  | 0.0099379  |   1.4 |  0.01
Modify  | 11.628     | 12.735     | 14.502     |  30.8 |  9.23
Other   |            | 0.06997    |            |       |  0.05

Nlocal:          38.75 ave          47 max          34 min
Histogram: 1 0 2 3 1 0 0 0 0 1
Nghost:        3109.25 ave        3155 max        3084 min
Histogram: 2 1 0 2 1 1 0 0 0 1
Neighs:        24753.1 ave       29826 max       21933 min
Histogram: 1 0 4 1 1 0 0 0 0 1

Total # of neighbors = 198025
Ave neighs/atom = 638.79032
Ave special neighs/atom = 0
Neighbor list builds = 300
Dangerous builds not checked
undump dump_neg${dir}
undump dump_neg2

# Run equilibration
print "*****Equilibration neg${dir} starts.*****"
*****Equilibration neg2 starts.*****
include ff.mod.lmp
# Setup forcefield, system
# undefine any fix ave/* fix before using reset_timestep
if "$(is_defined(fix,avgp))" then "unfix avgp"
unfix avgp
reset_timestep 0

# Assign the force field
pair_style reaxff NULL safezone 3.0 mincap 150
# pair_coeff * * CHONSSi.ff O Si
# pair_coeff * * CHOSiNa.ff O Si
# pair_coeff * * SiOCHN_2018.ff O Si
# pair_coeff * * PDMSDecomp.ff Si O
pair_coeff * * CHONSi.ff C H O Si
# pair_coeff * * CHOFe.ff O Si

# charge method for reaxff
fix myqeq all qeq/reaxff 1 0.0 10.0 1.0e-6 reaxff maxiter 400
# Setup neighbor style
neighbor        2 bin
neigh_modify    every 10 delay 0 check no

# Setup output
fix avgp all ave/time  ${nevery} ${nrepeat} ${nfreq} c_thermo_press mode vector
fix avgp all ave/time  10 ${nrepeat} ${nfreq} c_thermo_press mode vector
fix avgp all ave/time  10 10 ${nfreq} c_thermo_press mode vector
fix avgp all ave/time  10 10 100 c_thermo_press mode vector
thermo		${nthermo}
thermo		100
thermo_style custom step temp pe press f_avgp[1] vol
WARNING: New thermo_style command, previous thermo_modify settings will be lost (src/output.cpp:903)
thermo_modify norm no

# NVT
fix 4 all nvt temp ${temp} ${temp} ${tdamp}
fix 4 all nvt temp 300 ${temp} ${tdamp}
fix 4 all nvt temp 300 300 ${tdamp}
fix 4 all nvt temp 300 300 50
run ${nequil}
run 3000
Neighbor list info ...
  update: every = 10 steps, delay = 0 steps, check = no
  max neighbors/atom: 2000, page size: 100000
  master list distance cutoff = 12
  ghost atom cutoff = 12
  binsize = 6, bins = 5 3 3
  2 neighbor lists, perpetual/occasional/extra = 2 0 0
  (1) pair reaxff, perpetual
      attributes: half, newton off, ghost
      pair build: half/bin/newtoff/ghost
      stencil: full/ghost/bin/3d
      bin: standard
  (2) fix qeq/reaxff, perpetual, copy from (1)
      attributes: half, newton off
      pair build: copy
      stencil: none
      bin: none
Per MPI rank memory allocation (min/avg/max) = 120.3 | 121.6 | 122.4 Mbytes
   Step          Temp          PotEng         Press        f_avgp[1]        Volume    
         0   301.44375     -34410.542      5817.2388      0              3402.5666    
       100   293.1692      -34410.464     -3990.4005      2118.9091      3402.5666    
       200   285.42109     -34428.308     -5550.5378      67.854008      3402.5666    
       300   273.46829     -34433.969     -8696.2877     -412.66027      3402.5666    
       400   293.80204     -34422.409     -7268.7252     -1757.4618      3402.5666    
       500   303.9797      -34410.755     -6852.6891      1311.7631      3402.5666    
       600   299.94648     -34412.473     -9718.2687      4230.1954      3402.5666    
       700   277.86207     -34408.544     -11747.653      4545.8547      3402.5666    
       800   291.68766     -34425.243     -1228.6247      5350.7781      3402.5666    
       900   308.66276     -34439.765      6893.6673      3385.3172      3402.5666    
      1000   307.1222      -34429.992      4083.6508      9995.2096      3402.5666    
      1100   291.82608     -34411.186      10056.979      8505.8947      3402.5666    
      1200   317.33895     -34419.28      -5871.0193      2863.463       3402.5666    
      1300   308.2949      -34408.387      684.6579       3942.9171      3402.5666    
      1400   277.343       -34400.072     -7950.5274      2298.6814      3402.5666    
      1500   286.33465     -34430.616      7236.2726      1229.5444      3402.5666    
      1600   285.26688     -34436.364      4600.7237      10050.16       3402.5666    
      1700   298.25056     -34416.434      130.80668      443.23121      3402.5666    
      1800   313.8241      -34411.19       6455.8202      5765.0233      3402.5666    
      1900   307.8218      -34413.502      1347.0097      911.73644      3402.5666    
      2000   314.46195     -34438.582      1415.1129      1873.7216      3402.5666    
      2100   301.1612      -34438.994     -1846.5074      1429.0437      3402.5666    
      2200   305.96042     -34450.736     -2137.6253      3302.1472      3402.5666    
      2300   308.17511     -34461.32       6871.4176      4523.7795      3402.5666    
      2400   283.15297     -34437.504     -13796.227      1443.3757      3402.5666    
      2500   290.72353     -34420.924      6499.8437      532.01654      3402.5666    
      2600   300.89864     -34415.01      -20403.942      166.56899      3402.5666    
      2700   291.76185     -34405.82      -11606.805      2189.7935      3402.5666    
      2800   284.70349     -34425.584     -24934.675      2080.8868      3402.5666    
      2900   274.9363      -34435.189     -5984.9459     -1114.0905      3402.5666    
      3000   309.63517     -34454.275     -6911.5729      1894.6594      3402.5666    
Loop time of 139.146 on 8 procs for 3000 steps with 310 atoms

Performance: 0.931 ns/day, 25.768 hours/ns, 21.560 timesteps/s, 6.684 katom-step/s
98.4% CPU use with 8 MPI tasks x 1 OpenMP threads

MPI task timing breakdown:
Section |  min time  |  avg time  |  max time  |%varavg| %total
---------------------------------------------------------------
Pair    | 80.699     | 102.33     | 114.68     | 112.7 | 73.54
Bond    | 0.0082027  | 0.0090996  | 0.0096653  |   0.5 |  0.01
Neigh   | 5.9625     | 7.6246     | 8.3465     |  29.4 |  5.48
Comm    | 3.6221     | 15.923     | 37.66      | 286.8 | 11.44
Output  | 0.0013141  | 0.0015225  | 0.0025697  |   1.0 |  0.00
Modify  | 12.422     | 13.19      | 14.753     |  20.9 |  9.48
Other   |            | 0.06944    |            |       |  0.05

Nlocal:          38.75 ave          48 max          33 min
Histogram: 2 0 0 1 3 1 0 0 0 1
Nghost:        3114.25 ave        3158 max        3067 min
Histogram: 1 1 1 0 0 1 1 1 1 1
Neighs:        24755.9 ave       30256 max       21186 min
Histogram: 2 0 0 2 2 1 0 0 0 1

Total # of neighbors = 198047
Ave neighs/atom = 638.86129
Ave special neighs/atom = 0
Neighbor list builds = 300
Dangerous builds not checked

# Obtain new stress tensor Negative deformation, convert index from LAMMPS to Voigt
variable pxx1 equal f_avgp[1]
variable pyy1 equal f_avgp[2]
variable pzz1 equal f_avgp[3]
variable pxy1 equal f_avgp[4]
variable pxz1 equal f_avgp[5]
variable pyz1 equal f_avgp[6]

# Compute elastic constant from pressure
# d1 = -[pxx1-pxx0]/[(]v_delta/v_len0] defined in input script
variable C1neg equal ${d1}
variable C1neg equal -30.2471011076472
variable C2neg equal ${d2}
variable C2neg equal -30.4102881711318
variable C3neg equal ${d3}
variable C3neg equal -10.2500524010067
variable C4neg equal ${d4}
variable C4neg equal -24.30278474801
variable C5neg equal ${d5}
variable C5neg equal 12.0090270537106
variable C6neg equal ${d6}
variable C6neg equal -10.2081280161415

# Reset box and simulation parameters
clear
OMP_NUM_THREADS environment is not set. Defaulting to 1 thread. (src/comm.cpp:98)
  using 1 OpenMP thread(s) per MPI task
# box tilt large
read_restart equil.res
Reading restart file ...
  restart file = 2 Aug 2023, LAMMPS = 2 Aug 2023
  restoring atom style full from restart
  triclinic box = (0 0 0) to (15.4114 12.7411 17.5034) with tilt (-7.2027 -1.8261 0.3384)
WARNING: Triclinic box skew is large. LAMMPS will run inefficiently. (src/domain.cpp:220)
  2 by 2 by 2 MPI processor grid
  pair style reaxff stores no restart info
  310 atoms
Finding 1-2 1-3 1-4 neighbors ...
  special bond factors lj:    0        0        0       
  special bond factors coul:  0        0        0       
     0 = max # of 1-2 neighbors
     0 = max # of 1-3 neighbors
     0 = max # of 1-4 neighbors
     1 = max # of special neighbors
  special bonds CPU = 0.000 seconds
  read_restart CPU = 0.003 seconds
print "*****Positive-change ${dir} starts.*****"
*****Positive-change 2 starts.*****
include ff.mod.lmp
# Setup forcefield, system
# undefine any fix ave/* fix before using reset_timestep
if "$(is_defined(fix,avgp))" then "unfix avgp"
reset_timestep 0

# Assign the force field
pair_style reaxff NULL safezone 3.0 mincap 150
# pair_coeff * * CHONSSi.ff O Si
# pair_coeff * * CHOSiNa.ff O Si
# pair_coeff * * SiOCHN_2018.ff O Si
# pair_coeff * * PDMSDecomp.ff Si O
pair_coeff * * CHONSi.ff C H O Si
# pair_coeff * * CHOFe.ff O Si

# charge method for reaxff
fix myqeq all qeq/reaxff 1 0.0 10.0 1.0e-6 reaxff maxiter 400
# Setup neighbor style
neighbor        2 bin
neigh_modify    every 10 delay 0 check no

# Setup output
fix avgp all ave/time  ${nevery} ${nrepeat} ${nfreq} c_thermo_press mode vector
fix avgp all ave/time  10 ${nrepeat} ${nfreq} c_thermo_press mode vector
fix avgp all ave/time  10 10 ${nfreq} c_thermo_press mode vector
fix avgp all ave/time  10 10 100 c_thermo_press mode vector
thermo		${nthermo}
thermo		100
thermo_style custom step temp pe press f_avgp[1] vol
thermo_modify norm no

# NVT
fix 4 all nvt temp ${temp} ${temp} ${tdamp}
fix 4 all nvt temp 300 ${temp} ${tdamp}
fix 4 all nvt temp 300 300 ${tdamp}
fix 4 all nvt temp 300 300 50
Resetting global fix info from restart file:
  fix style: nvt, fix ID: 4

# Positive deformation
variable delta equal ${up}*${len0}
variable delta equal 0.01*${len0}
variable delta equal 0.01*12.7411
variable deltaxy equal ${up}*xy
variable deltaxy equal 0.01*xy
variable deltaxz equal ${up}*xz
variable deltaxz equal 0.01*xz
variable deltayz equal ${up}*yz
variable deltayz equal 0.01*yz
if "${dir} == 1" then    "change_box all x delta 0 ${delta} xy delta ${deltaxy} xz delta ${deltaxz} remap units box"
if "${dir} == 2" then    "change_box all y delta 0 ${delta} yz delta ${deltayz} remap units box"
change_box all y delta 0 ${delta} yz delta ${deltayz} remap units box
change_box all y delta 0 0.127411 yz delta ${deltayz} remap units box
change_box all y delta 0 0.127411 yz delta 0.003384 remap units box
Changing box ...
WARNING: Triclinic box skew is large. LAMMPS will run inefficiently. (src/domain.cpp:220)
  triclinic box = (0 0 0) to (15.4114 12.868511 17.5034) with tilt (-7.2027 -1.8261 0.3384)
WARNING: Triclinic box skew is large. LAMMPS will run inefficiently. (src/domain.cpp:220)
  triclinic box = (0 0 0) to (15.4114 12.868511 17.5034) with tilt (-7.2027 -1.8261 0.341784)
if "${dir} == 3" then    "change_box all z delta 0 ${delta} remap units box"
if "${dir} == 4" then    "change_box all yz delta ${delta} remap units box"
if "${dir} == 5" then    "change_box all xz delta ${delta} remap units box"
if "${dir} == 6" then    "change_box all xy delta ${delta} remap units box"

# Run positive deformation MD
# save trajectory
dump dump_pos${dir} all custom ${nthermo} dump/pos_deform${dir}.lammpstrj id type x y z
dump dump_pos2 all custom ${nthermo} dump/pos_deform${dir}.lammpstrj id type x y z
dump dump_pos2 all custom 100 dump/pos_deform${dir}.lammpstrj id type x y z
dump dump_pos2 all custom 100 dump/pos_deform2.lammpstrj id type x y z
run ${nrun}
run 3000
All restart file global fix info was re-assigned
Neighbor list info ...
  update: every = 10 steps, delay = 0 steps, check = no
  max neighbors/atom: 2000, page size: 100000
  master list distance cutoff = 12
  ghost atom cutoff = 12
  binsize = 6, bins = 5 3 3
  2 neighbor lists, perpetual/occasional/extra = 2 0 0
  (1) pair reaxff, perpetual
      attributes: half, newton off, ghost
      pair build: half/bin/newtoff/ghost
      stencil: full/ghost/bin/3d
      bin: standard
  (2) fix qeq/reaxff, perpetual, copy from (1)
      attributes: half, newton off
      pair build: copy
      stencil: none
      bin: none
Per MPI rank memory allocation (min/avg/max) = 117.6 | 118.8 | 119.9 Mbytes
   Step          Temp          PotEng         Press        f_avgp[1]        Volume    
         0   293.7744      -34341.74      -33276.511      0              3471.3053    
       100   326.55698     -34361.078      4974.7039      7760.9292      3471.3053    
       200   311.69419     -34367.477     -21690.695     -4082.5301      3471.3053    
       300   298.6784      -34375.4       -2078.7133     -2836.7819      3471.3053    
       400   313.78705     -34398.303     -1221.9502     -1604.0691      3471.3053    
       500   279.42874     -34371.837      1670.2516     -1273.2549      3471.3053    
       600   297.00209     -34374.945     -15649.44       4886.4634      3471.3053    
       700   304.44692     -34369.06      -344.01911      1445.9237      3471.3053    
       800   312.11237     -34365.202     -5269.8773     -4211.8197      3471.3053    
       900   325.73788     -34375.423     -6249.9404      169.49019      3471.3053    
      1000   298.98091     -34357.159      10957.473     -4847.7274      3471.3053    
      1100   297.28048     -34374.046     -5189.577       582.01475      3471.3053    
      1200   305.87348     -34396.367      5953.545       3023.6608      3471.3053    
      1300   295.00486     -34387.692      8990.2086      2265.5899      3471.3053    
      1400   308.52935     -34381.977      427.85573     -3793.9295      3471.3053    
      1500   315.71607     -34369.478      2360.9629      752.30781      3471.3053    
      1600   301.45487     -34356.666     -17715.314     -4302.116       3471.3053    
      1700   304.20112     -34380.617     -11777.529     -2314.9354      3471.3053    
      1800   294.82396     -34385.901     -6690.1801     -1499.1765      3471.3053    
      1900   290.72623     -34379.215     -1536.8346      782.41619      3471.3053    
      2000   319.46491     -34388.746     -14155.823     -6185.3112      3471.3053    
      2100   322.15694     -34379.999     -221.29827     -823.04931      3471.3053    
      2200   314.02313     -34379.743     -4964.9097     -4501.1048      3471.3053    
      2300   296.27817     -34385.219     -9325.0681     -5184.6134      3471.3053    
      2400   290.82982     -34386.58       3817.3811     -553.41216      3471.3053    
      2500   295.30318     -34376.545     -4128.5117      1414.3435      3471.3053    
      2600   305.96631     -34357.78       10427.075      306.80251      3471.3053    
      2700   306.77428     -34356.14       22.967673      2873.2292      3471.3053    
      2800   313.60851     -34374.142     -2699.5887      1614.3608      3471.3053    
      2900   300.78098     -34372.743     -8689.4343      5457.7267      3471.3053    
      3000   281.82381     -34360.191      10458.981      1194.321       3471.3053    
Loop time of 133.932 on 8 procs for 3000 steps with 310 atoms

Performance: 0.968 ns/day, 24.802 hours/ns, 22.399 timesteps/s, 6.944 katom-step/s
98.3% CPU use with 8 MPI tasks x 1 OpenMP threads

MPI task timing breakdown:
Section |  min time  |  avg time  |  max time  |%varavg| %total
---------------------------------------------------------------
Pair    | 94.833     | 106.15     | 110.94     |  45.9 | 79.26
Bond    | 0.0086579  | 0.0092061  | 0.010293   |   0.6 |  0.01
Neigh   | 7.0277     | 7.9918     | 8.5183     |  14.9 |  5.97
Comm    | 2.6139     | 7.4183     | 18.738     | 173.9 |  5.54
Output  | 0.0069094  | 0.0088457  | 0.010884   |   1.6 |  0.01
Modify  | 11.74      | 12.274     | 13.245     |  12.5 |  9.16
Other   |            | 0.07663    |            |       |  0.06

Nlocal:          38.75 ave          45 max          34 min
Histogram: 3 1 0 0 0 0 1 2 0 1
Nghost:        3069.25 ave        3128 max        3005 min
Histogram: 1 0 0 2 1 1 1 0 1 1
Neighs:        24263.1 ave       27906 max       21462 min
Histogram: 3 0 1 0 0 0 1 2 0 1

Total # of neighbors = 194105
Ave neighs/atom = 626.14516
Ave special neighs/atom = 0
Neighbor list builds = 300
Dangerous builds not checked
undump dump_pos${dir}
undump dump_pos2

# Run equilibration
print "*****Equilibration pos${dir} starts.*****"
*****Equilibration pos2 starts.*****
include ff.mod.lmp
# Setup forcefield, system
# undefine any fix ave/* fix before using reset_timestep
if "$(is_defined(fix,avgp))" then "unfix avgp"
unfix avgp
reset_timestep 0

# Assign the force field
pair_style reaxff NULL safezone 3.0 mincap 150
# pair_coeff * * CHONSSi.ff O Si
# pair_coeff * * CHOSiNa.ff O Si
# pair_coeff * * SiOCHN_2018.ff O Si
# pair_coeff * * PDMSDecomp.ff Si O
pair_coeff * * CHONSi.ff C H O Si
# pair_coeff * * CHOFe.ff O Si

# charge method for reaxff
fix myqeq all qeq/reaxff 1 0.0 10.0 1.0e-6 reaxff maxiter 400
# Setup neighbor style
neighbor        2 bin
neigh_modify    every 10 delay 0 check no

# Setup output
fix avgp all ave/time  ${nevery} ${nrepeat} ${nfreq} c_thermo_press mode vector
fix avgp all ave/time  10 ${nrepeat} ${nfreq} c_thermo_press mode vector
fix avgp all ave/time  10 10 ${nfreq} c_thermo_press mode vector
fix avgp all ave/time  10 10 100 c_thermo_press mode vector
thermo		${nthermo}
thermo		100
thermo_style custom step temp pe press f_avgp[1] vol
WARNING: New thermo_style command, previous thermo_modify settings will be lost (src/output.cpp:903)
thermo_modify norm no

# NVT
fix 4 all nvt temp ${temp} ${temp} ${tdamp}
fix 4 all nvt temp 300 ${temp} ${tdamp}
fix 4 all nvt temp 300 300 ${tdamp}
fix 4 all nvt temp 300 300 50
run ${nequil}
run 3000
Neighbor list info ...
  update: every = 10 steps, delay = 0 steps, check = no
  max neighbors/atom: 2000, page size: 100000
  master list distance cutoff = 12
  ghost atom cutoff = 12
  binsize = 6, bins = 5 3 3
  2 neighbor lists, perpetual/occasional/extra = 2 0 0
  (1) pair reaxff, perpetual
      attributes: half, newton off, ghost
      pair build: half/bin/newtoff/ghost
      stencil: full/ghost/bin/3d
      bin: standard
  (2) fix qeq/reaxff, perpetual, copy from (1)
      attributes: half, newton off
      pair build: copy
      stencil: none
      bin: none
Per MPI rank memory allocation (min/avg/max) = 117.7 | 118.8 | 119.8 Mbytes
   Step          Temp          PotEng         Press        f_avgp[1]        Volume    
         0   281.82381     -34360.191      10459.006      0              3471.3053    
       100   310.7645      -34381.381     -7674.5986     -7873.9271      3471.3053    
       200   332.403       -34379.842     -3079.0634      1767.0515      3471.3053    
       300   301.05108     -34342.797     -10800.235     -2681.188       3471.3053    
       400   306.27701     -34370.049     -10932.188     -5541.7373      3471.3053    
       500   288.38118     -34376.775     -2857.426      -3326.8998      3471.3053    
       600   287.87758     -34383.858      8267.1261      5921.3371      3471.3053    
       700   294.46152     -34383.275     -7506.0182     -946.92663      3471.3053    
       800   299.22643     -34376.184      2438.0097      1808.5796      3471.3053    
       900   308.66646     -34379.313      3265.9685      774.32712      3471.3053    
      1000   304.86883     -34377.37      -17310.519      3606.0388      3471.3053    
      1100   305.00031     -34387.057     -6521.2677      5374.3514      3471.3053    
      1200   287.20235     -34387.184     -8047.7811      833.14166      3471.3053    
      1300   292.97342     -34407.11      -7002.4058      5585.9312      3471.3053    
      1400   286.96627     -34406.636     -5528.8588      2212.3767      3471.3053    
      1500   309.12751     -34406.532      2139.4966     -4841.2333      3471.3053    
      1600   332.80765     -34403.695      561.00218     -1354.9242      3471.3053    
      1700   318.16964     -34390.845     -3668.2893     -493.33576      3471.3053    
      1800   294.18864     -34398.46       7086.3664      1517.8876      3471.3053    
      1900   298.16925     -34416.4        536.22562      1430.2364      3471.3053    
      2000   301.40047     -34428.108     -1410.3985     -4358.5455      3471.3053    
      2100   307.61101     -34441.333     -8836.7837      1872.5608      3471.3053    
      2200   293.90212     -34435.768     -7205.8718     -74.756272      3471.3053    
      2300   297.35167     -34440.067      3700.8582      2441.8652      3471.3053    
      2400   302.05887     -34433.127     -7943.1824      7716.9945      3471.3053    
      2500   312.1796      -34420.29      -12508.82       606.95102      3471.3053    
      2600   339.56237     -34438.473      4937.9283     -3001.6674      3471.3053    
      2700   308.88764     -34439.07      -12747.231     -3865.1363      3471.3053    
      2800   292.52905     -34444.409     -18527.05      -11422.466      3471.3053    
      2900   298.12859     -34444.878     -9735.8759     -962.29516      3471.3053    
      3000   297.91746     -34424.883     -1257.7419     -2348.3278      3471.3053    
Loop time of 132.726 on 8 procs for 3000 steps with 310 atoms

Performance: 0.976 ns/day, 24.579 hours/ns, 22.603 timesteps/s, 7.007 katom-step/s
98.7% CPU use with 8 MPI tasks x 1 OpenMP threads

MPI task timing breakdown:
Section |  min time  |  avg time  |  max time  |%varavg| %total
---------------------------------------------------------------
Pair    | 78.76      | 104.88     | 111.34     |  98.4 | 79.02
Bond    | 0.0086312  | 0.0092052  | 0.010456   |   0.6 |  0.01
Neigh   | 5.8787     | 7.8381     | 8.5249     |  27.3 |  5.91
Comm    | 1.6088     | 8.0684     | 34.164     | 354.6 |  6.08
Output  | 0.0013169  | 0.0016277  | 0.0034349  |   1.7 |  0.00
Modify  | 11.146     | 11.849     | 13.848     |  22.6 |  8.93
Other   |            | 0.07626    |            |       |  0.06

Nlocal:          38.75 ave          46 max          35 min
Histogram: 1 3 1 1 0 1 0 0 0 1
Nghost:        3062.75 ave        3115 max        3015 min
Histogram: 1 1 0 1 1 1 1 1 0 1
Neighs:        24246.2 ave       28427 max       21892 min
Histogram: 1 2 2 0 1 1 0 0 0 1

Total # of neighbors = 193970
Ave neighs/atom = 625.70968
Ave special neighs/atom = 0
Neighbor list builds = 300
Dangerous builds not checked

# Obtain new stress tensor, convert index from LAMMPS to Voigt
variable pxx1 equal f_avgp[1]
variable pyy1 equal f_avgp[2]
variable pzz1 equal f_avgp[3]
variable pxy1 equal f_avgp[4]
variable pxz1 equal f_avgp[5]
variable pyz1 equal f_avgp[6]

# Compute elastic constant from pressure tensor
# d1 = -[pxx1-pxx0]/[(]v_delta/v_len0] defined in input script
variable C1pos equal ${d1}
variable C1pos equal 73.2391687652144
variable C2pos equal ${d2}
variable C2pos equal 70.5827163765979
variable C3pos equal ${d3}
variable C3pos equal 48.3987228047101
variable C4pos equal ${d4}
variable C4pos equal -5.09669332845051
variable C5pos equal ${d5}
variable C5pos equal -32.9489243195864
variable C6pos equal ${d6}
variable C6pos equal -12.2953806630492

# Combine positive and negative
variable C1${dir} equal 0.5*(${C1neg}+${C1pos})
variable C12 equal 0.5*(${C1neg}+${C1pos})
variable C12 equal 0.5*(-30.2471011076472+${C1pos})
variable C12 equal 0.5*(-30.2471011076472+73.2391687652144)
variable C2${dir} equal 0.5*(${C2neg}+${C2pos})
[...]

# Reset box and simulation parameters
clear
OMP_NUM_THREADS environment is not set. Defaulting to 1 thread. (src/comm.cpp:98)
  using 1 OpenMP thread(s) per MPI task
# box tilt large
read_restart equil.res
Reading restart file ...
  restart file = 2 Aug 2023, LAMMPS = 2 Aug 2023
  restoring atom style full from restart
  triclinic box = (0 0 0) to (15.4114 12.7411 17.5034) with tilt (-7.2027 -1.8261 0.3384)
WARNING: Triclinic box skew is large. LAMMPS will run inefficiently. (src/domain.cpp:220)
  2 by 2 by 2 MPI processor grid
  pair style reaxff stores no restart info
  310 atoms
Finding 1-2 1-3 1-4 neighbors ...
  special bond factors lj:    0        0        0       
  special bond factors coul:  0        0        0       
     0 = max # of 1-2 neighbors
     0 = max # of 1-3 neighbors
     0 = max # of 1-4 neighbors
     1 = max # of special neighbors
  special bonds CPU = 0.000 seconds
  read_restart CPU = 0.003 seconds
print "*****Positive-change ${dir} starts.*****"
*****Positive-change 6 starts.*****
include ff.mod.lmp
# Setup forcefield, system
# undefine any fix ave/* fix before using reset_timestep
if "$(is_defined(fix,avgp))" then "unfix avgp"
reset_timestep 0

# Assign the force field
pair_style reaxff NULL safezone 3.0 mincap 150
# pair_coeff * * CHONSSi.ff O Si
# pair_coeff * * CHOSiNa.ff O Si
# pair_coeff * * SiOCHN_2018.ff O Si
# pair_coeff * * PDMSDecomp.ff Si O
pair_coeff * * CHONSi.ff C H O Si
# pair_coeff * * CHOFe.ff O Si

# charge method for reaxff
fix myqeq all qeq/reaxff 1 0.0 10.0 1.0e-6 reaxff maxiter 400
# Setup neighbor style
neighbor        2 bin
neigh_modify    every 10 delay 0 check no

# Setup output
fix avgp all ave/time  ${nevery} ${nrepeat} ${nfreq} c_thermo_press mode vector
fix avgp all ave/time  10 ${nrepeat} ${nfreq} c_thermo_press mode vector
fix avgp all ave/time  10 10 ${nfreq} c_thermo_press mode vector
fix avgp all ave/time  10 10 100 c_thermo_press mode vector
thermo		${nthermo}
thermo		100
thermo_style custom step temp pe press f_avgp[1] vol
thermo_modify norm no

# NVT
fix 4 all nvt temp ${temp} ${temp} ${tdamp}
fix 4 all nvt temp 300 ${temp} ${tdamp}
fix 4 all nvt temp 300 300 ${tdamp}
fix 4 all nvt temp 300 300 50
Resetting global fix info from restart file:
  fix style: nvt, fix ID: 4

# Positive deformation
variable delta equal ${up}*${len0}
variable delta equal 0.01*${len0}
variable delta equal 0.01*12.7411
variable deltaxy equal ${up}*xy
variable deltaxy equal 0.01*xy
variable deltaxz equal ${up}*xz
variable deltaxz equal 0.01*xz
variable deltayz equal ${up}*yz
variable deltayz equal 0.01*yz
if "${dir} == 1" then    "change_box all x delta 0 ${delta} xy delta ${deltaxy} xz delta ${deltaxz} remap units box"
if "${dir} == 2" then    "change_box all y delta 0 ${delta} yz delta ${deltayz} remap units box"
if "${dir} == 3" then    "change_box all z delta 0 ${delta} remap units box"
if "${dir} == 4" then    "change_box all yz delta ${delta} remap units box"
if "${dir} == 5" then    "change_box all xz delta ${delta} remap units box"
if "${dir} == 6" then    "change_box all xy delta ${delta} remap units box"
change_box all xy delta ${delta} remap units box
change_box all xy delta 0.127411 remap units box
Changing box ...
WARNING: Triclinic box skew is large. LAMMPS will run inefficiently. (src/domain.cpp:220)
  triclinic box = (0 0 0) to (15.4114 12.7411 17.5034) with tilt (-7.075289 -1.8261 0.3384)

# Run positive deformation MD
# save trajectory
dump dump_pos${dir} all custom ${nthermo} dump/pos_deform${dir}.lammpstrj id type x y z
dump dump_pos6 all custom ${nthermo} dump/pos_deform${dir}.lammpstrj id type x y z
dump dump_pos6 all custom 100 dump/pos_deform${dir}.lammpstrj id type x y z
dump dump_pos6 all custom 100 dump/pos_deform6.lammpstrj id type x y z
run ${nrun}
run 3000
All restart file global fix info was re-assigned
Neighbor list info ...
  update: every = 10 steps, delay = 0 steps, check = no
  max neighbors/atom: 2000, page size: 100000
  master list distance cutoff = 12
  ghost atom cutoff = 12
  binsize = 6, bins = 5 3 3
  2 neighbor lists, perpetual/occasional/extra = 2 0 0
  (1) pair reaxff, perpetual
      attributes: half, newton off, ghost
      pair build: half/bin/newtoff/ghost
      stencil: full/ghost/bin/3d
      bin: standard
  (2) fix qeq/reaxff, perpetual, copy from (1)
      attributes: half, newton off
      pair build: copy
      stencil: none
      bin: none
Per MPI rank memory allocation (min/avg/max) = 118.5 | 119.8 | 120.9 Mbytes
   Step          Temp          PotEng         Press        f_avgp[1]        Volume    
         0   293.7744      -34350.153      10393.165      0              3436.9359    
       100   322.60256     -34364.931      13077.322      9659.2983      3436.9359    
       200   298.49435     -34359.495     -19364.474     -5532.7796      3436.9359    
       300   299.84944     -34383.366      9323.2996      3221.4251      3436.9359    
       400   310.42995     -34407.632      9535.7314      568.39029      3436.9359    
       500   297.92095     -34403.21      -13781.957      5873.0115      3436.9359    
       600   269.2621      -34361.659      6515.8653      6192.5988      3436.9359    
       700   304.33559     -34369.08      -1590.9931      3719.9905      3436.9359    
       800   294.69179     -34348.582      1621.1817     -1085.324       3436.9359    
       900   317.23832     -34379.287     -4384.8705     -284.81567      3436.9359    
      1000   312.01957     -34401.988      842.23127     -1049.9909      3436.9359    
      1100   286.42736     -34401.776     -9920.92        1021.6221      3436.9359    
      1200   297.112       -34409.279      10117.817      7802.3388      3436.9359    
      1300   302.72261     -34393.501     -6170.6042      6457.0181      3436.9359    
      1400   305.95143     -34376.846     -98.349799      1862.5498      3436.9359    
      1500   312.55751     -34387.001     -5042.0084     -3105.6098      3436.9359    
      1600   300.19078     -34389.333     -1236.4543      2683.9287      3436.9359    
      1700   292.7285      -34397.019      3605.1094      8609.5025      3436.9359    
      1800   294.16779     -34403.083     -4841.9511      10430.398      3436.9359    
      1900   296.37092     -34393.09      -12724.146      432.06929      3436.9359    
      2000   315.01021     -34391.008      11076.1       -1998.5871      3436.9359    
      2100   292.281       -34367.257     -12897.963      8791.8825      3436.9359    
      2200   300.0009      -34384.645     -2950.3865      855.36192      3436.9359    
      2300   292.59799     -34397.665     -17316.926     -3017.4862      3436.9359    
      2400   289.11645     -34397.584     -4135.6791      1326.1907      3436.9359    
      2500   305.55561     -34386.859     -3095.2731      1575.5213      3436.9359    
      2600   312.54423     -34379.284     -6994.9019      1725.5794      3436.9359    
      2700   310.30086     -34383.674      526.80555     -1058.4352      3436.9359    
      2800   305.60541     -34391.887     -18266.255     -4757.5478      3436.9359    
      2900   292.70166     -34386.525     -193.58028     -2092.602       3436.9359    
      3000   311.96618     -34409.186     -3707.3308      2439.8592      3436.9359    
Loop time of 135.115 on 8 procs for 3000 steps with 310 atoms

Performance: 0.959 ns/day, 25.021 hours/ns, 22.203 timesteps/s, 6.883 katom-step/s
98.8% CPU use with 8 MPI tasks x 1 OpenMP threads

MPI task timing breakdown:
Section |  min time  |  avg time  |  max time  |%varavg| %total
---------------------------------------------------------------
Pair    | 75.552     | 106.11     | 113.97     | 114.5 | 78.53
Bond    | 0.0085737  | 0.0091464  | 0.0096198  |   0.3 |  0.01
Neigh   | 5.7083     | 7.968      | 8.6096     |  30.7 |  5.90
Comm    | 1.2328     | 9.118      | 39.702     | 391.0 |  6.75
Output  | 0.0066913  | 0.0082664  | 0.0097445  |   1.3 |  0.01
Modify  | 11.164     | 11.826     | 14.077     |  25.2 |  8.75
Other   |            | 0.07576    |            |       |  0.06

Nlocal:          38.75 ave          47 max          32 min
Histogram: 1 0 2 0 1 2 1 0 0 1
Nghost:        3079.62 ave        3105 max        3044 min
Histogram: 1 1 0 0 0 2 0 2 1 1
Neighs:        24523.6 ave       29440 max       20448 min
Histogram: 1 0 2 0 1 2 1 0 0 1

Total # of neighbors = 196189
Ave neighs/atom = 632.86774
Ave special neighs/atom = 0
Neighbor list builds = 300
Dangerous builds not checked
undump dump_pos${dir}
undump dump_pos6

# Run equilibration
print "*****Equilibration pos${dir} starts.*****"
*****Equilibration pos6 starts.*****
include ff.mod.lmp
# Setup forcefield, system
# undefine any fix ave/* fix before using reset_timestep
if "$(is_defined(fix,avgp))" then "unfix avgp"
unfix avgp
reset_timestep 0

# Assign the force field
pair_style reaxff NULL safezone 3.0 mincap 150
# pair_coeff * * CHONSSi.ff O Si
# pair_coeff * * CHOSiNa.ff O Si
# pair_coeff * * SiOCHN_2018.ff O Si
# pair_coeff * * PDMSDecomp.ff Si O
pair_coeff * * CHONSi.ff C H O Si
# pair_coeff * * CHOFe.ff O Si

# charge method for reaxff
fix myqeq all qeq/reaxff 1 0.0 10.0 1.0e-6 reaxff maxiter 400
# Setup neighbor style
neighbor        2 bin
neigh_modify    every 10 delay 0 check no

# Setup output
fix avgp all ave/time  ${nevery} ${nrepeat} ${nfreq} c_thermo_press mode vector
fix avgp all ave/time  10 ${nrepeat} ${nfreq} c_thermo_press mode vector
fix avgp all ave/time  10 10 ${nfreq} c_thermo_press mode vector
fix avgp all ave/time  10 10 100 c_thermo_press mode vector
thermo		${nthermo}
thermo		100
thermo_style custom step temp pe press f_avgp[1] vol
WARNING: New thermo_style command, previous thermo_modify settings will be lost (src/output.cpp:903)
thermo_modify norm no

# NVT
fix 4 all nvt temp ${temp} ${temp} ${tdamp}
fix 4 all nvt temp 300 ${temp} ${tdamp}
fix 4 all nvt temp 300 300 ${tdamp}
fix 4 all nvt temp 300 300 50
run ${nequil}
run 3000
Neighbor list info ...
  update: every = 10 steps, delay = 0 steps, check = no
  max neighbors/atom: 2000, page size: 100000
  master list distance cutoff = 12
  ghost atom cutoff = 12
  binsize = 6, bins = 5 3 3
  2 neighbor lists, perpetual/occasional/extra = 2 0 0
  (1) pair reaxff, perpetual
      attributes: half, newton off, ghost
      pair build: half/bin/newtoff/ghost
      stencil: full/ghost/bin/3d
      bin: standard
  (2) fix qeq/reaxff, perpetual, copy from (1)
      attributes: half, newton off
      pair build: copy
      stencil: none
      bin: none
Per MPI rank memory allocation (min/avg/max) = 118.5 | 119.8 | 120.8 Mbytes
   Step          Temp          PotEng         Press        f_avgp[1]        Volume    
         0   311.96618     -34409.186     -3707.3221      0              3436.9359    
       100   294.34823     -34386.262     -6434.0523      1843.1454      3436.9359    
       200   337.63732     -34398.843     -2147.1696      2550.3589      3436.9359    
       300   317.76221     -34366.271     -1889.5717     -1585.3776      3436.9359    
       400   295.57657     -34379.242     -7281.8449      3103.1123      3436.9359    
       500   308.80773     -34407.761      608.76062      6735.5106      3436.9359    
       600   288.30358     -34387.81      -6306.3754     -460.7648       3436.9359    
       700   269.69588     -34361.722      6005.0303      1868.1632      3436.9359    
       800   305.78874     -34375.126     -18738.915      1976.0099      3436.9359    
       900   310.72582     -34376.145     -5669.4586      822.89828      3436.9359    
      1000   288.1392      -34382.336      708.59326      2807.912       3436.9359    
      1100   284.13468     -34400.446     -8998.347      -1076.1754      3436.9359    
      1200   271.95104     -34389.894     -1612.3737      286.58901      3436.9359    
      1300   299.59071     -34397.867     -1057.0273     -1360.1854      3436.9359    
      1400   319.67923     -34387.958      12646.304      6152.7319      3436.9359    
      1500   331.92093     -34401.543     -160.56695      7593.9663      3436.9359    
      1600   287.50577     -34377.188     -3011.6232     -1433.9653      3436.9359    
      1700   296.08366     -34402.229     -3623.2991      4504.9693      3436.9359    
      1800   304.58864     -34419.033     -14338.924      924.1548       3436.9359    
      1900   291.55413     -34411.271     -2399.6159      247.43886      3436.9359    
      2000   298.28253     -34397.999     -6160.3757      4954.0703      3436.9359    
      2100   319.57975     -34392.05      -314.47907      494.52064      3436.9359    
      2200   304.30059     -34378.014      5052.6689      2096.1514      3436.9359    
      2300   295.4355      -34397.233      2377.7571      734.3252       3436.9359    
      2400   284.31336     -34397.914     -5591.9725      275.3906       3436.9359    
      2500   301.93296     -34415.338     -4996.4428     -1702.2669      3436.9359    
      2600   294.45821     -34407.457     -18983.03      -2119.959       3436.9359    
      2700   302.81636     -34388.255     -1386.196       4053.2853      3436.9359    
      2800   313.01885     -34374.454      7415.5893     -4577.0372      3436.9359    
      2900   310.51666     -34389.643     -10394.436     -3301.6526      3436.9359    
      3000   312.66588     -34413.79       12670.839      3306.6963      3436.9359    
Loop time of 135.443 on 8 procs for 3000 steps with 310 atoms

Performance: 0.957 ns/day, 25.082 hours/ns, 22.150 timesteps/s, 6.866 katom-step/s
98.8% CPU use with 8 MPI tasks x 1 OpenMP threads

MPI task timing breakdown:
Section |  min time  |  avg time  |  max time  |%varavg| %total
---------------------------------------------------------------
Pair    | 75.852     | 106.37     | 113.9      | 114.3 | 78.53
Bond    | 0.0088664  | 0.0093185  | 0.0098065  |   0.3 |  0.01
Neigh   | 5.6811     | 7.9503     | 8.6111     |  30.9 |  5.87
Comm    | 1.5518     | 9.1076     | 39.645     | 391.1 |  6.72
Output  | 0.0013315  | 0.0015267  | 0.0024357  |   0.9 |  0.00
Modify  | 11.255     | 11.933     | 14.193     |  25.2 |  8.81
Other   |            | 0.07619    |            |       |  0.06

Nlocal:          38.75 ave          44 max          32 min
Histogram: 1 0 0 2 0 2 1 0 0 2
Nghost:           3091 ave        3136 max        3037 min
Histogram: 1 2 1 0 0 0 0 0 1 3
Neighs:        24492.4 ave       27920 max       20304 min
Histogram: 1 0 0 2 0 2 1 0 0 2

Total # of neighbors = 195939
Ave neighs/atom = 632.06129
Ave special neighs/atom = 0
Neighbor list builds = 300
Dangerous builds not checked

# Obtain new stress tensor, convert index from LAMMPS to Voigt
variable pxx1 equal f_avgp[1]
variable pyy1 equal f_avgp[2]
variable pzz1 equal f_avgp[3]
variable pxy1 equal f_avgp[4]
variable pxz1 equal f_avgp[5]
variable pyz1 equal f_avgp[6]

# Compute elastic constant from pressure tensor
# d1 = -[pxx1-pxx0]/[(]v_delta/v_len0] defined in input script
variable C1pos equal ${d1}
variable C1pos equal 15.939636730154
variable C2pos equal ${d2}
variable C2pos equal 75.6785373947929
variable C3pos equal ${d3}
variable C3pos equal 106.372066239228
variable C4pos equal ${d4}
variable C4pos equal 26.0963928350682
variable C5pos equal ${d5}
variable C5pos equal -10.454279566338
variable C6pos equal ${d6}
variable C6pos equal -1.27611250697766

# Combine positive and negative
variable C1${dir} equal 0.5*(${C1neg}+${C1pos})
variable C16 equal 0.5*(${C1neg}+${C1pos})
variable C16 equal 0.5*(-8.7496588770378+${C1pos})
variable C16 equal 0.5*(-8.7496588770378+15.939636730154)
variable C2${dir} equal 0.5*(${C2neg}+${C2pos})
variable C26 equal 0.5*(${C2neg}+${C2pos})
variable C26 equal 0.5*(-11.1621243071353+${C2pos})
variable C26 equal 0.5*(-11.1621243071353+75.6785373947929)
variable C3${dir} equal 0.5*(${C3neg}+${C3pos})
variable C36 equal 0.5*(${C3neg}+${C3pos})
variable C36 equal 0.5*(-35.570611828069+${C3pos})
variable C36 equal 0.5*(-35.570611828069+106.372066239228)
variable C4${dir} equal 0.5*(${C4neg}+${C4pos})
variable C46 equal 0.5*(${C4neg}+${C4pos})
variable C46 equal 0.5*(1.98786203157014+${C4pos})
variable C46 equal 0.5*(1.98786203157014+26.0963928350682)
variable C5${dir} equal 0.5*(${C5neg}+${C5pos})
variable C56 equal 0.5*(${C5neg}+${C5pos})
variable C56 equal 0.5*(-0.502064837890138+${C5pos})
variable C56 equal 0.5*(-0.502064837890138+-10.454279566338)
variable C6${dir} equal 0.5*(${C6neg}+${C6pos})
variable C66 equal 0.5*(${C6neg}+${C6pos})
variable C66 equal 0.5*(4.77601954750154+${C6pos})
variable C66 equal 0.5*(4.77601954750154+-1.27611250697766)

# Delete dir to make sure it is not reused
variable dir delete

# Calc and output
include calc.mod.lmp
variable C11all equal ${C11}
variable C11all equal 38.1249661597989
variable C22all equal ${C22}
variable C22all equal 20.0862141027331
variable C33all equal ${C33}
variable C33all equal 16.2466193663963

variable C44all equal ${C44}
variable C44all equal -0.22239736483131
variable C55all equal ${C55}
variable C55all equal 14.4615634925991
variable C66all equal ${C66}
variable C66all equal 1.74995352026194

variable C12all equal 0.5*(${C12}+${C21})
variable C12all equal 0.5*(21.4960338287836+${C21})
variable C12all equal 0.5*(21.4960338287836+6.0721199375235)
variable C13all equal 0.5*(${C13}+${C31})
variable C13all equal 0.5*(-33.0800725535457+${C31})
variable C13all equal 0.5*(-33.0800725535457+8.56289689260451)
variable C23all equal 0.5*(${C23}+${C32})
variable C23all equal 0.5*(-14.0183666784422+${C32})
variable C23all equal 0.5*(-14.0183666784422+19.0743352018517)

variable C14all equal 0.5*(${C14}+${C41})
variable C14all equal 0.5*(48.3714888165315+${C41})
variable C14all equal 0.5*(48.3714888165315+2.7175177469645)
variable C15all equal 0.5*(${C15}+${C51})
variable C15all equal 0.5*(10.1019125284734+${C51})
variable C15all equal 0.5*(10.1019125284734+-0.0548144975064)
variable C16all equal 0.5*(${C16}+${C61})
variable C16all equal 0.5*(3.5949889265581+${C61})
variable C16all equal 0.5*(3.5949889265581+-3.2799641240045)

variable C24all equal 0.5*(${C24}+${C42})
variable C24all equal 0.5*(51.1924670581333+${C42})
variable C24all equal 0.5*(51.1924670581333+-14.6997390382303)
variable C25all equal 0.5*(${C25}+${C52})
variable C25all equal 0.5*(54.4807483428082+${C52})
variable C25all equal 0.5*(54.4807483428082+-10.4699486329379)
variable C26all equal 0.5*(${C26}+${C62})
variable C26all equal 0.5*(32.2582065438288+${C62})
variable C26all equal 0.5*(32.2582065438288+-11.2517543395953)

variable C34all equal 0.5*(${C34}+${C43})
variable C34all equal 0.5*(55.9152088924683+${C43})
variable C34all equal 0.5*(55.9152088924683+4.24244984546008)
variable C35all equal 0.5*(${C35}+${C53})
variable C35all equal 0.5*(-13.9930864869845+${C53})
variable C35all equal 0.5*(-13.9930864869845+14.4235839378557)
variable C36all equal 0.5*(${C36}+${C63})
variable C36all equal 0.5*(35.4007272055795+${C63})
variable C36all equal 0.5*(35.4007272055795+1.10303973553419)

variable C45all equal 0.5*(${C45}+${C54})
variable C45all equal 0.5*(-3.36621485220734+${C54})
variable C45all equal 0.5*(-3.36621485220734+0.287135725343956)
variable C46all equal 0.5*(${C46}+${C64})
variable C46all equal 0.5*(14.0421274333192+${C64})
variable C46all equal 0.5*(14.0421274333192+-3.0171677600901)
variable C56all equal 0.5*(${C56}+${C65})
variable C56all equal 0.5*(-5.47817220211407+${C65})
variable C56all equal 0.5*(-5.47817220211407+11.4729114233797)

# print stiffness tensor to "C.log"
print """
# stiffness tensor (GPa) for ${structure} by change-box method
${C11all} ${C12all} ${C13all} ${C14all} ${C15all} ${C16all}
${C12all} ${C22all} ${C23all} ${C24all} ${C25all} ${C26all}
${C13all} ${C23all} ${C33all} ${C34all} ${C35all} ${C36all}
${C14all} ${C24all} ${C34all} ${C44all} ${C45all} ${C46all}
${C15all} ${C25all} ${C35all} ${C45all} ${C55all} ${C56all}
${C16all} ${C26all} ${C36all} ${C46all} ${C56all} ${C66all}
"""  file C.log screen no

Total wall time: 0:56:32
