ITEM: TIMESTEP
0
ITEM: NUMBER OF ATOMS
366
ITEM: BOX BOUNDS xy xz yz pp pp pp
-7.6516000000000002e+00 1.5037200000000000e+01 -7.4931000000000001e+00
0.0000000000000000e+00 1.3615700000000000e+01 -1.5850000000000000e-01
0.0000000000000000e+00 1.7607399999999998e+01 8.0699999999999994e-02
ITEM: ATOMS id type x y z q
9 4 -1.00195 6.66485 0.467357 1.40861
10 4 -0.152696 4.24733 7.11563 1.23619
66 3 -0.257588 1.3955 4.45894 -0.839489
69 3 -0.983002 3.4358 2.89409 -0.868137
71 3 -0.358488 5.64938 1.53593 -0.86079
73 3 -2.23236 6.71143 4.41876 -0.862635
74 3 -0.74607 5.38746 6.21867 -0.83955
171 1 -1.45782 4.02631 8.54202 -0.669116
361 2 -0.309789 1.54069 8.09714 0.240009
3 4 1.07984 2.15276 0.640754 1.39216
5 4 0.833948 1.63666 5.62394 1.66332
7 4 0.203524 4.41414 2.44147 1.5861
24 4 3.63517 1.97633 4.29299 1.46642
27 4 6.28202 1.83446 5.92311 1.6189
28 4 1.68654 6.33964 4.25929 1.58015
30 4 5.29052 4.12258 7.72921 1.54921
31 4 4.09886 6.56804 6.15438 1.63965
65 3 1.23329 0.800795 1.47416 -0.822498
67 3 1.12463 0.337481 6.55128 -0.853586
70 3 1.35438 3.495 1.46049 -0.822682
72 3 0.185835 2.81924 6.56827 -0.870609
89 3 3.45057 1.07608 2.96611 -0.814985
90 3 2.24619 2.21834 5.04132 -0.854634
91 3 2.79063 0.819956 8.53715 -0.831943
92 3 4.78567 1.47708 5.30587 -0.819463
93 3 6.98246 0.594524 6.69277 -0.866851
94 3 1.07167 4.94083 3.69474 -0.840231
96 3 3.97725 3.32263 8.43211 -0.819282
97 3 6.18599 3.03737 6.99688 -0.863403
98 3 2.75902 6.0517 5.4066 -0.872366
99 3 4.73271 5.25094 6.7881 -0.888335
125 3 7.2041 2.35923 4.69224 -0.84265
172 1 1.58794 4.88808 7.77308 -0.667031
178 1 4.28071 3.69971 3.63728 -0.690704
197 1 5.66737 6.27099 2.52195 -0.69726
208 2 2.32258 4.39716 7.05526 0.275839
210 2 1.62278 6.02994 7.7206 0.190296
225 2 3.50008 4.05977 2.90365 0.221028
226 2 5.28154 3.47783 3.15614 0.192365
227 2 4.36951 4.36375 4.54535 0.224178
228 2 5.79415 1.02643 8.69811 0.221135
276 2 6.13512 5.24939 2.63529 0.193072
278 2 4.54566 6.27004 2.66294 0.211239
296 4 6.81539 2.01374 0.184635 0.979677
297 3 6.5142 0.889749 1.23815 -0.756445
298 1 6.39542 3.77256 0.904281 -0.670375
299 2 6.62021 4.54055 0.100998 0.216546
300 2 7.06819 3.88361 1.81103 0.223287
301 2 5.29265 3.72382 1.17248 0.168414
338 1 3.56856 5.33183 0.189691 -0.681458
339 2 2.46996 5.06937 0.242624 0.228467
340 2 4.06305 5.29149 1.20225 0.17777
2 4 13.5654 2.06552 3.61141 1.66422
44 4 8.63688 2.0852 3.99435 1.59668
45 4 12.6245 0.230603 7.64066 1.22693
46 4 11.2358 2.38968 5.71672 1.61067
48 4 9.84793 4.54608 2.34204 1.41358
51 4 10.0154 4.63279 7.47663 1.41881
123 3 13.0574 0.980225 2.48247 -0.849132
124 3 8.48164 0.751431 3.04814 -0.860523
126 3 12.3201 2.4055 4.55881 -0.857564
127 3 9.81931 1.89668 5.11237 -0.853185
128 3 11.8027 1.39832 6.93187 -0.837864
129 3 8.97361 3.42135 3.07465 -0.851516
130 3 10.7416 5.53527 3.22176 -0.843583
132 3 9.07938 5.40693 1.15716 -0.834128
133 3 11.0146 3.86564 6.43187 -0.830806
137 3 7.69995 6.51508 4.54361 -0.82555
138 3 9.0244 5.66761 6.75127 -0.851014
192 1 14.106 0.884459 8.77294 -0.682928
196 1 11.1423 3.46195 1.42507 -0.678601
198 1 8.91092 3.2025 8.2287 -0.67637
273 2 10.882 3.53265 0.324318 0.164062
274 2 11.0048 2.42003 1.85527 0.189726
275 2 12.1514 3.91114 1.67549 0.240074
279 2 8.60913 2.52952 7.37433 0.22733
280 2 8.02005 3.72744 8.6998 0.24995
335 2 9.46836 0.817145 8.58433 0.182087
351 2 11.7133 5.68832 0.365082 0.177828
352 2 12.7412 3.44049 8.04531 0.236703
354 2 9.28159 1.9658 0.719621 0.188519
359 2 10.8867 0.3387 0.342219 0.192456
360 2 10.3071 0.318915 2.12764 0.243143
12 4 -1.0683 6.8378 5.50708 1.64598
1 4 -5.16206 13.4941 2.39525 1.64321
4 4 -5.39611 13.1324 7.60225 1.6269
8 4 -3.73861 6.93037 3.88879 1.6579
15 4 -2.56652 9.05868 2.02499 1.62643
17 4 -4.07145 11.3012 0.396157 1.63348
18 4 -2.51215 8.65418 7.69593 1.68245
20 4 -3.8149 11.0155 5.97326 1.7083
35 4 -1.35977 11.1652 4.0334 1.68685
78 3 -3.70485 8.13738 2.75406 -0.831605
79 3 -1.67312 7.98579 1.11769 -0.874935
80 3 -3.23684 10.1011 1.02295 -0.880866
81 3 -4.46608 12.4117 1.46157 -0.854935
82 3 -3.45675 7.66141 8.53832 -0.849002
83 3 -1.55185 7.81896 6.68818 -0.871242
84 3 -6.24493 12.0839 8.50508 -0.882787
85 3 -5.09585 10.6307 5.03573 -0.842619
86 3 -3.34313 9.75707 6.86664 -0.857622
87 3 -4.22564 12.2896 6.89786 -0.854398
105 3 -1.64869 9.86014 3.07688 -0.870877
106 3 -1.04456 12.4856 3.1552 -0.842949
107 3 -2.61524 11.4266 4.98754 -0.852196
110 3 -1.55789 9.41392 8.78434 -0.864644
111 3 -0.681262 11.8554 8.12043 -0.853137
310 3 -5.86563 12.7521 3.66322 -0.855195
358 2 -0.215226 9.57021 0.390996 0.206264
364 2 -3.95947 7.60592 0.23695 0.215271
277 2 5.99578 6.81152 1.58738 0.21606
23 4 -0.0606808 13.3272 2.23915 1.5728
25 4 0.250184 12.9747 7.46774 1.43024
34 4 2.77925 8.47398 2.27307 1.43005
37 4 2.46716 8.82248 7.50046 1.24225
39 4 1.44806 11.0262 5.47543 1.58759
43 4 5.1987 13.0583 1.95462 1.46475
49 4 6.34404 7.27245 4.06642 1.49066
58 4 4.03593 10.828 3.88749 1.62864
60 4 7.26516 8.78083 7.70531 1.65329
61 4 6.1163 11.1437 6.07517 1.67232
95 3 0.347238 7.30762 4.82275 -0.828226
103 3 2.49857 7.11003 3.04263 -0.880777
104 3 3.01659 8.20046 0.712857 -0.852205
108 3 0.745006 12.2515 1.26006 -0.864323
109 3 3.53156 7.68857 7.23995 -0.836513
113 3 -0.035277 10.8863 4.90564 -0.872677
114 3 1.86153 9.6423 6.28813 -0.831039
115 3 1.50023 12.3018 6.65559 -0.806454
131 3 5.17042 7.17874 5.12145 -0.860468
146 3 6.66669 8.68819 3.42159 -0.833466
149 3 3.78689 9.48722 2.97432 -0.837991
150 3 4.8604 11.9803 3.07357 -0.868315
151 3 2.49407 11.366 4.2665 -0.84336
153 3 6.56149 9.84094 0.97001 -0.864202
154 3 5.99163 12.4351 0.689988 -0.831193
155 3 6.36792 7.56751 8.36315 -0.839433
158 3 7.39451 11.2883 5.10692 -0.869084
159 3 4.81841 10.554 5.27661 -0.830107
160 3 6.3559 10.065 7.25567 -0.866289
161 3 5.65863 12.5692 6.76388 -0.830477
184 1 1.05253 9.32714 2.48459 -0.697829
186 1 1.09178 7.97774 8.6369 -0.689383
187 1 3.23002 10.1006 8.75265 -0.67257
191 1 3.38111 13.3135 1.3188 -0.660928
243 2 0.834413 9.2307 3.58843 0.270103
244 2 0.296746 8.73737 1.88647 0.225547
245 2 1.09462 10.4121 2.15063 0.234263
248 2 0.333906 7.49309 7.95822 0.212908
250 2 4.12642 10.5475 8.21518 0.21948
262 2 3.02336 12.2449 1.20407 0.239642
343 2 3.12958 12.5518 8.43262 0.209722
357 2 1.61479 9.25003 0.0446312 0.250587
16 4 8.71498 11.2787 4.17885 1.69826
50 4 8.70729 6.87381 0.494066 1.41214
53 4 8.85316 6.94883 5.7582 1.64692
57 4 7.53878 9.30393 2.13077 1.66046
136 3 10.2853 7.32254 5.09934 -0.840482
147 3 8.3845 8.0336 1.54268 -0.844726
148 3 8.46506 10.445 2.77124 -0.853897
156 3 8.21795 8.20105 6.53612 -0.866574
6 4 -1.35438 2.31859 16.0153 1.14544
13 4 -0.459731 4.62343 14.0718 1.30701
14 4 -1.44444 6.29299 11.5791 1.17229
68 3 -0.497944 2.37176 17.3556 -0.797543
75 3 -1.29799 3.68916 15.1481 -0.788697
76 3 -2.72045 6.25136 10.6348 -0.835809
77 3 -1.41675 5.53645 12.989 -0.774802
170 1 -0.426614 0.92453 14.9909 -0.675321
206 2 -0.95897 3.44362 9.3724 0.145087
207 2 -1.79481 5.05987 8.86556 0.219342
211 2 -0.19086 2.77374 12.4147 0.147268
320 1 -2.56335 5.68401 17.3184 -0.680638
321 2 -2.12659 4.63889 17.3011 0.213847
322 2 -2.70789 6.11186 16.2835 0.17099
349 2 -3.13268 6.73283 14.5729 0.183496
209 2 1.70293 4.50399 8.82671 0.175798
26 4 3.61157 1.99613 9.23208 1.17908
32 4 4.98148 5.15562 13.9408 0.934545
52 4 6.18652 6.44106 9.49617 1.40653
100 3 0.644868 5.54968 14.7729 -0.832188
135 3 6.27912 4.88615 8.989 -0.81883
140 3 5.89954 5.45145 15.207 -0.768709
144 3 7.14488 6.76044 10.7524 -0.870517
173 1 0.55442 3.37829 13.0108 -0.664845
175 1 0.141203 5.59039 10.6482 -0.676858
179 1 5.39573 1.30471 9.73547 -0.687774
180 1 2.5817 2.67415 10.7343 -0.662476
181 1 3.49218 3.9845 14.4747 -0.677488
182 1 6.06632 4.30765 12.5276 -0.663686
199 1 4.33795 6.57799 10.0982 -0.678375
204 2 0.66123 1.23655 14.9517 0.156267
212 2 1.12896 2.74666 13.7535 0.155336
213 2 1.23601 4.00219 12.3574 0.168672
217 2 0.119612 6.02805 9.60672 0.165117
218 2 0.0321202 4.46628 10.6531 0.147868
219 2 1.0336 5.93986 11.2512 0.141775
229 2 5.31029 0.397147 10.3885 0.240155
230 2 5.99786 2.13786 10.1975 0.168177
231 2 1.58142 2.90263 10.2453 0.153797
232 2 3.10506 3.60877 11.1032 0.147687
233 2 2.50072 1.87693 11.5267 0.163927
234 2 3.95179 3.1942 15.1549 0.17267
235 2 3.07815 3.55244 13.5157 0.159518
236 2 2.75247 4.65722 15.0049 0.220435
237 2 5.33759 3.82733 11.8122 0.15157
238 2 6.73206 3.55702 13.0431 0.167908
239 2 6.65189 5.14048 12.0401 0.25176
241 2 3.29957 6.48057 12.6005 0.150918
282 2 3.71539 6.40302 9.17325 0.204965
284 2 4.21349 5.76012 10.8645 0.152697
303 1 4.94626 1.44043 12.9705 -0.669713
305 2 3.92648 1.08023 13.3262 0.167218
306 2 5.02722 1.59861 11.8059 0.165391
307 2 5.32254 2.31696 13.5897 0.157831
312 1 2.39247 2.1897 16.9636 -0.691145
313 2 2.53554 1.11033 16.6526 0.176665
314 2 3.24295 2.5927 17.6041 0.179371
315 2 2.11592 2.87435 16.1035 0.169542
327 1 5.52272 1.87052 16.1939 -0.664372
328 2 5.88736 2.65521 15.4655 0.149056
329 2 4.36848 1.98231 16.4682 0.184368
330 2 5.78151 0.820602 15.8859 0.212826
353 2 3.69892 0.221003 11.8845 0.168689
356 2 3.9581 4.78823 17.0269 0.18114
134 3 10.6896 5.2302 8.81948 -0.869075
11 4 11.0577 6.60686 9.61838 1.60958
47 4 10.696 2.83751 12.1054 0.970218
54 4 9.95845 5.40833 13.6456 1.14367
139 3 10.8507 4.15234 12.9782 -0.72364
145 3 8.80862 5.77742 12.6017 -0.800598
193 1 11.8687 2.88313 10.6324 -0.672423
194 1 8.86571 2.7369 11.5965 -0.680216
195 1 11.1981 1.41115 13.2204 -0.669306
200 1 9.14794 4.60249 15.2505 -0.683394
205 2 14.1365 0.894754 13.9675 0.157621
263 2 13.6229 1.45331 9.61766 0.14768
264 2 11.6632 1.95533 10.0257 0.133546
265 2 12.9051 2.89434 11.0849 0.158751
266 2 11.6235 3.83311 10.0652 0.250222
267 2 8.26158 2.8088 12.5453 0.16568
268 2 8.72187 1.75383 11.0653 0.151949
269 2 8.68078 3.62286 10.9245 0.203001
270 2 11.257 0.514447 12.5375 0.149126
271 2 10.4146 1.30195 14.0311 0.165251
272 2 12.2061 1.7153 13.6307 0.176303
281 2 9.58579 2.69221 8.98399 0.161091
285 2 9.97966 4.46769 16.0011 0.14787
286 2 8.73893 3.62289 14.8533 0.160417
287 2 8.33315 5.29451 15.6112 0.225878
304 1 7.86183 0.595261 14.2211 -0.677934
308 2 8.49745 0.934408 13.3433 0.159756
309 2 7.64311 1.43806 14.9348 0.148737
316 1 11.8125 1.9374 16.3726 -0.678314
317 2 11.5935 0.924552 15.9245 0.162785
318 2 11.2218 2.77225 15.8842 0.177184
319 2 11.7383 1.94552 17.5046 0.190756
331 1 8.59827 2.01108 17.3234 -0.677666
332 2 8.75647 1.02678 16.7961 0.195376
333 2 8.83302 2.92667 16.6482 0.167173
334 1 8.57249 0.284276 9.02112 -0.685084
337 2 7.78611 0.995615 9.41207 0.180488
345 2 10.3108 6.70457 16.3538 0.156847
363 2 11.2437 0.247109 9.72785 0.140121
22 4 -3.67187 11.2865 10.9539 1.22775
38 4 -1.15941 10.8869 9.30537 1.54624
41 4 -2.11851 11.7126 15.8074 1.33758
88 3 -4.64626 10.4993 9.98231 -0.787684
102 3 -0.185498 7.08548 16.8378 -0.849543
112 3 -2.34768 11.5941 10.1769 -0.834464
117 3 -0.644369 12.0947 16.4633 -0.835579
118 3 -2.18556 12.4618 14.3375 -0.800705
119 3 -3.32099 12.1111 16.7881 -0.814723
122 3 -0.763769 12.929 12.0628 -0.775334
174 1 -1.10438 8.17319 11.8947 -0.659811
176 1 -3.48866 10.1229 12.5252 -0.684185
177 1 -4.58905 12.9731 11.4972 -0.679939
189 1 -2.26562 9.79216 15.5577 -0.701979
215 2 -1.49932 8.40469 12.9326 0.200663
216 2 -1.65556 8.73528 11.078 0.208292
220 2 -2.54916 10.437 13.0643 0.200778
221 2 -3.43097 9.08027 12.0892 0.18676
222 2 -4.42574 10.2743 13.1422 0.196123
223 2 -5.26618 12.6504 12.3365 0.169842
224 2 -5.17632 13.2978 10.5913 0.209322
256 2 -2.1435 9.30314 16.5711 0.210819
257 2 -1.45038 9.49448 14.8357 0.210317
258 2 -3.30225 9.63191 15.1284 0.181475
302 4 -1.31488 13.5265 13.4046 1.13238
311 3 -5.55368 10.8073 17.2293 -0.854406
323 1 -5.77792 12.3577 14.8379 -0.674472
324 2 -6.55236 12.5403 14.0372 0.176372
325 2 -4.79523 11.985 14.4175 0.18876
326 2 -5.64237 13.2366 15.5254 0.174153
348 2 -3.72303 7.34159 12.906 0.20321
183 1 4.15721 6.81014 13.2592 -0.674421
350 2 6.97407 13.4983 15.5707 0.209834
29 4 3.44264 7.23505 17.1631 1.42033
33 4 0.821778 6.99435 15.5376 1.52873
36 4 0.665882 11.809 17.3301 1.34885
40 4 1.45961 9.42731 13.831 1.32015
42 4 0.345387 11.4921 11.7995 1.26143
55 4 6.2844 7.08279 15.9056 1.53207
59 4 5.9285 11.0264 17.5365 1.59216
63 4 3.32295 11.1533 15.8356 1.32855
64 4 6.7529 11.0977 11.8122 1.17443
101 3 2.37533 7.09541 16.0042 -0.855329
116 3 0.533405 8.23227 14.4576 -0.831722
120 3 0.210009 10.6748 10.4479 -0.840155
121 3 0.458567 10.5861 13.1853 -0.808904
141 3 7.43105 6.87307 16.9775 -0.879904
142 3 4.9264 7.523 16.633 -0.834861
152 3 7.00231 11.1926 16.291 -0.84364
162 3 6.69405 7.97925 14.6342 -0.869427
165 3 2.59865 10.0765 14.8512 -0.82649
166 3 4.38201 10.7006 16.9411 -0.804376
167 3 2.0701 12.1762 16.5442 -0.814896
169 3 6.80539 10.4103 13.233 -0.800548
185 1 0.500775 9.88866 17.3169 -0.692512
188 1 2.35785 8.81118 12.2386 -0.691996
190 1 2.17006 12.2546 11.708 -0.676279
201 1 4.40767 12.1747 14.6459 -0.684272
202 1 5.43038 10.051 10.8275 -0.680965
203 1 6.3005 13.0148 12.0107 -0.669598
214 2 0.0238564 8.30467 11.8213 0.202229
240 2 3.80891 7.39845 14.1613 0.236168
242 2 4.97145 7.3456 12.6869 0.185556
246 2 0.233939 9.6281 16.2464 0.223163
247 2 1.62507 7.23281 9.30486 0.152527
249 2 0.645238 8.83044 9.23957 0.23823
251 2 3.52087 9.47286 9.65624 0.169967
252 2 2.42845 10.8653 8.99401 0.180619
253 2 2.04452 9.44716 11.3638 0.184242
254 2 2.05474 7.7351 12.1133 0.15495
255 2 3.45566 8.94091 12.4867 0.175977
259 2 2.66943 11.7512 10.8249 0.166911
260 2 2.65435 11.9794 12.7031 0.162486
261 2 2.03873 13.371 11.5782 0.149574
283 2 4.20333 7.60991 10.5251 0.166045
288 2 5.09676 11.4153 14.1373 0.229458
289 2 4.99304 12.9089 15.278 0.175016
290 2 3.70111 12.6828 13.9236 0.158808
291 2 5.68755 8.97202 11.0729 0.191808
292 2 5.5512 10.2735 9.72582 0.198557
293 2 4.42114 10.3603 11.2332 0.147076
294 2 5.59314 13.068 12.8927 0.17205
295 2 5.8276 13.3327 11.0384 0.151033
336 2 1.37456 13.0309 9.78504 0.178291
341 1 4.02447 12.9539 9.00989 -0.680311
342 2 4.63887 12.1363 9.5027 0.160043
355 2 0.819493 13.2328 14.7421 0.221004
362 2 7.16467 13.5011 9.12345 0.222597
366 2 7.29049 13.5277 12.2032 0.160875
19 4 8.80315 10.7687 9.45884 1.58644
21 4 8.56729 10.9036 15.934 1.35661
56 4 8.54985 7.07017 11.5135 1.5766
62 4 7.69483 8.94212 13.8354 1.51565
143 3 9.81839 7.14644 10.5091 -0.842784
157 3 8.19962 9.41932 8.85467 -0.84838
163 3 8.40223 8.31 12.5265 -0.852926
164 3 8.83383 9.51068 14.8881 -0.832084
168 3 8.01226 11.1608 10.8821 -0.829559
344 1 10.0903 7.53258 17.096 -0.684524
346 2 9.77929 8.49729 16.5896 0.245795
347 1 11.0099 7.01811 13.949 -0.685365
365 2 10.3504 7.79277 14.4551 0.204377
ITEM: TIMESTEP
100
ITEM: NUMBER OF ATOMS
366
ITEM: BOX BOUNDS xy xz yz pp pp pp
-7.7016413661878023e+00 1.5101354283063216e+01 -7.5366550946799817e+00
-5.2360641832112087e-02 1.3680638403654809e+01 -1.0083198844459958e-01
-1.4434519441802962e-01 1.7751745194418042e+01 9.3277761822704752e-02
ITEM: ATOMS id type x y z q
9 4 -0.983556 6.75958 0.395201 1.34325
10 4 -0.0822664 4.25722 7.17549 1.16595
66 3 -0.439384 1.31773 4.5121 -0.846586
69 3 -1.01253 3.30222 2.80406 -0.842623
71 3 -0.416313 5.61941 1.37897 -0.854457
73 3 -2.31023 6.70846 4.34717 -0.867079
74 3 -0.703553 5.42874 6.23783 -0.849195
171 1 -1.4336 3.86231 8.57794 -0.65916
361 2 -0.423633 1.24175 8.18734 0.230489
3 4 1.07382 2.1106 0.554399 1.3133
5 4 0.795656 1.58202 5.47252 1.65607
7 4 0.173718 4.41275 2.30052 1.5397
24 4 3.57702 1.95086 4.17753 1.41639
27 4 6.26756 1.90479 5.8103 1.58742
28 4 1.55062 6.27779 4.30472 1.53272
30 4 5.30683 4.12901 7.66935 1.52368
31 4 4.05935 6.58987 6.10225 1.62568
65 3 1.16843 0.892539 1.5958 -0.785992
67 3 1.28839 0.270027 6.41763 -0.80728
70 3 1.33303 3.60287 1.34322 -0.79499
72 3 0.213013 2.75126 6.54594 -0.812928
89 3 3.52557 0.960697 2.90998 -0.800742
90 3 2.12316 2.14994 4.80428 -0.865013
91 3 2.70025 0.734982 8.55769 -0.819836
92 3 4.79261 1.48759 5.32332 -0.793405
93 3 7.08444 0.543058 6.70154 -0.793475
94 3 0.920355 4.97822 3.65124 -0.856562
96 3 3.92445 3.16543 8.14657 -0.788043
97 3 6.24235 3.0746 6.8899 -0.866113
98 3 2.76041 5.98481 5.41442 -0.858758
99 3 4.77623 5.34801 6.81969 -0.871775
125 3 7.16935 2.22997 4.54887 -0.839644
172 1 1.4784 4.90244 8.15665 -0.668933
178 1 4.18822 3.713 3.61224 -0.674628
197 1 5.914 5.95526 2.49779 -0.676884
208 2 2.20336 4.52744 7.24541 0.24412
210 2 1.43708 6.08405 8.24386 0.177522
225 2 3.09585 4.05809 3.29807 0.229849
226 2 4.93628 3.70769 2.68835 0.18117
227 2 4.56078 4.38603 4.48036 0.211779
228 2 5.70508 0.771641 8.48986 0.235901
276 2 6.6219 5.05262 2.66218 0.214862
278 2 4.80295 5.71158 2.74214 0.199936
296 4 6.80466 1.96965 0.0742799 0.980001
297 3 6.62512 0.820882 1.16511 -0.80533
298 1 6.17633 3.72777 0.946186 -0.65787
299 2 6.38824 4.52895 0.208114 0.20657
300 2 6.82798 3.73963 1.86586 0.216157
301 2 5.04342 3.58255 1.14581 0.161291
338 1 3.63435 5.56319 0.360574 -0.663161
339 2 3.1019 4.94908 17.51 0.192185
340 2 2.84711 5.78818 1.20999 0.232081
2 4 13.6313 2.01596 3.61688 1.61517
44 4 8.64962 2.05514 3.88837 1.56245
45 4 12.6949 0.121363 7.79777 1.13918
46 4 11.2237 2.41221 5.68267 1.58063
48 4 9.85545 4.49672 2.23069 1.38307
51 4 10.0244 4.58237 7.42203 1.32169
123 3 13.0205 0.89679 2.28261 -0.763175
124 3 8.62595 0.692451 2.87333 -0.792077
126 3 12.3474 2.34019 4.51828 -0.84042
127 3 9.73109 2.0108 5.09914 -0.847002
128 3 11.8202 1.41449 6.93746 -0.769617
129 3 8.9485 3.4378 2.9995 -0.842532
130 3 10.7337 5.56382 3.15647 -0.82576
132 3 9.08975 5.34731 1.04336 -0.81773
133 3 11.1107 3.80794 6.40624 -0.825945
137 3 7.73589 6.48624 4.52783 -0.834764
138 3 9.12654 5.73363 6.7675 -0.851809
192 1 14.0823 0.806915 9.00034 -0.668091
196 1 11.2868 3.50141 1.46916 -0.67645
198 1 8.83567 3.30818 8.17477 -0.683187
273 2 11.0505 3.53654 0.363857 0.15424
274 2 11.2569 2.45494 1.90412 0.209307
275 2 12.2729 4.07539 1.70262 0.232709
279 2 8.76887 2.39857 7.49953 0.218099
280 2 7.85938 3.84386 8.30216 0.265033
335 2 9.66158 0.98334 8.43921 0.189699
351 2 -3.1339 5.76228 0.180198 0.162446
352 2 13.156 2.94206 8.12668 0.221853
354 2 9.3154 2.01925 0.276872 0.173995
359 2 10.9296 0.166422 0.0734113 0.193218
360 2 10.0063 0.11154 1.69883 0.273142
12 4 -1.1642 6.76868 5.51322 1.574
1 4 -5.22645 13.4916 2.37353 1.57865
4 4 -5.41234 13.158 7.58943 1.61553
8 4 -3.77426 6.90818 3.78533 1.62763
15 4 -2.68696 9.14958 1.97071 1.61221
17 4 -4.1901 11.3923 0.265272 1.61406
18 4 -2.621 8.67987 7.7163 1.65464
20 4 -3.84669 11.0986 5.92662 1.68703
35 4 -1.37418 11.2681 3.96585 1.66648
78 3 -3.7146 8.15451 2.60729 -0.826659
79 3 -1.6063 8.0903 1.14546 -0.827945
80 3 -3.34764 10.1677 0.892589 -0.868389
81 3 -4.63015 12.5002 1.32519 -0.890039
82 3 -3.59499 7.62576 8.55594 -0.823654
83 3 -1.70747 7.80492 6.6779 -0.826807
84 3 -6.36941 12.0934 8.40571 -0.828392
85 3 -5.14696 10.7004 5.08546 -0.83079
86 3 -3.41047 9.78274 6.86265 -0.823006
87 3 -4.19487 12.3506 6.90164 -0.836406
105 3 -1.85835 9.94906 3.07233 -0.858826
106 3 -1.04405 12.518 3.00644 -0.85773
107 3 -2.58348 11.4657 5.00788 -0.84639
110 3 -1.62442 9.38688 8.76806 -0.839727
111 3 -0.655711 11.912 8.23054 -0.807602
310 3 -6.02909 12.7908 3.65335 -0.847773
358 2 -0.160687 9.80056 0.254311 0.197721
364 2 -4.0458 7.47975 0.228016 0.213862
277 2 6.03702 6.52538 1.51111 0.20748
23 4 -0.185411 13.3481 1.99621 1.56221
25 4 0.35548 13.0712 7.51818 1.34815
34 4 2.64328 8.48515 2.25806 1.35289
37 4 2.61036 8.92086 7.46534 1.2525
39 4 1.46251 11.1421 5.46831 1.62889
43 4 5.04168 13.0453 1.73454 1.3797
49 4 6.37017 7.1971 3.92319 1.47086
58 4 3.97987 10.954 3.81062 1.63975
60 4 7.20759 8.79742 7.65045 1.6668
61 4 6.06281 11.1252 6.09037 1.62009
95 3 0.387987 7.37034 4.84702 -0.806087
103 3 2.46765 7.04736 3.03919 -0.820803
104 3 2.88428 8.29826 0.632224 -0.812702
108 3 0.612847 12.3477 0.911539 -0.829634
109 3 3.5971 7.74985 7.13912 -0.849142
113 3 0.0120738 11.0515 4.76733 -0.860663
114 3 1.9572 9.86604 6.36182 -0.83089
115 3 1.56141 12.2756 6.62672 -0.797099
131 3 5.13849 7.13048 4.91829 -0.828013
146 3 6.7409 8.5956 3.22427 -0.824078
149 3 3.68471 9.5268 3.03948 -0.809948
150 3 4.7851 11.988 2.9723 -0.850336
151 3 2.45517 11.5833 4.24991 -0.820503
153 3 6.60612 9.77643 0.801862 -0.858304
154 3 6.01094 12.3799 0.541744 -0.812647
155 3 6.37074 7.46122 8.33254 -0.817204
158 3 7.40047 11.2521 5.08307 -0.803463
159 3 4.77548 10.7605 5.16387 -0.83671
160 3 6.30153 9.94648 7.20342 -0.891939
161 3 5.78883 12.6005 6.90202 -0.789786
184 1 0.983669 9.32632 2.41693 -0.691657
186 1 1.19801 8.07249 8.68824 -0.673939
187 1 3.26568 10.0334 8.84361 -0.675906
191 1 3.23186 13.2758 1.0238 -0.674885
243 2 0.392046 8.7859 3.22474 0.269728
244 2 0.420529 9.22391 1.33953 0.203135
245 2 1.13647 10.4191 2.7215 0.23267
248 2 0.430717 7.51639 8.18214 0.214703
250 2 4.26901 10.439 8.46548 0.204676
262 2 2.99983 12.1915 0.824773 0.228806
343 2 3.12528 12.6205 8.45531 0.216873
357 2 1.68265 9.32469 -0.0708974 0.261835
16 4 8.74287 11.3207 4.11603 1.67538
50 4 8.73031 6.84339 0.367188 1.39292
53 4 8.82494 6.8881 5.66013 1.63338
57 4 7.58249 9.32525 2.02892 1.61326
136 3 10.2974 7.32995 4.95093 -0.794317
147 3 8.53039 7.99712 1.43593 -0.801355
148 3 8.43192 10.5296 2.7795 -0.865779
156 3 8.10593 8.14437 6.45412 -0.826785
6 4 -1.34109 2.20882 16.0454 1.11457
13 4 -0.466501 4.60599 14.1068 1.27459
14 4 -1.44353 6.50564 11.6213 1.15167
68 3 -0.385252 2.23422 17.3156 -0.773238
75 3 -1.31788 3.63749 15.0355 -0.766509
76 3 -2.76445 6.43589 10.6544 -0.787272
77 3 -1.36057 5.78352 13.0166 -0.772826
170 1 14.3137 0.644657 14.9526 -0.678988
206 2 -0.996754 3.65609 9.57567 0.163928
207 2 -2.01959 4.79178 8.49581 0.229519
211 2 -0.301314 2.99269 12.2098 0.147995
320 1 -2.44662 6.08003 17.2612 -0.684283
321 2 -2.06016 5.18134 16.7565 0.215562
322 2 -2.73015 6.88804 16.5293 0.177111
349 2 -2.88228 6.55238 14.4006 0.222753
209 2 1.69535 4.43448 9.11227 0.189463
26 4 3.56468 1.96237 9.13068 1.17424
32 4 4.97006 5.12459 14.0756 0.942592
52 4 6.12677 6.44216 9.50589 1.35748
100 3 0.583354 5.51705 14.9667 -0.812627
135 3 6.06564 4.73684 9.07176 -0.807096
140 3 5.75963 5.522 15.3668 -0.777023
144 3 7.18405 6.69018 10.76 -0.80466
173 1 0.427081 3.38152 12.9669 -0.683449
175 1 -0.0042903 5.74911 10.5554 -0.660795
179 1 5.25585 1.07136 9.54526 -0.668951
180 1 2.69726 2.72912 10.693 -0.680629
181 1 3.50063 3.85523 14.4576 -0.68254
182 1 6.28453 4.41036 12.6534 -0.667513
199 1 4.41445 6.75413 10.2425 -0.67577
204 2 0.0984919 0.93778 14.4491 0.156307
212 2 0.773541 2.58707 13.663 0.156848
213 2 1.2705 3.90803 12.4941 0.158567
217 2 -0.301164 5.57041 9.47347 0.183319
218 2 0.311191 4.83889 11.1293 0.155698
219 2 0.754251 6.64736 10.6798 0.141375
229 2 5.0252 0.189263 10.2024 0.233591
230 2 5.85974 1.86632 10.0787 0.159749
231 2 1.63055 2.65251 10.5106 0.166699
232 2 3.04529 3.82878 10.794 0.152202
233 2 2.9947 2.1171 11.5805 0.158115
234 2 3.99284 3.06428 15.1135 0.171608
235 2 3.07597 3.43788 13.5097 0.159756
236 2 2.77181 4.40617 15.0164 0.222142
237 2 5.88088 3.50539 12.1796 0.167266
238 2 7.12683 4.18214 13.2901 0.202687
239 2 6.56646 5.23637 11.873 0.252546
241 2 3.26945 6.31911 12.6565 0.145532
282 2 3.76287 6.48701 9.3728 0.189222
284 2 4.19291 6.0573 11.1234 0.155339
303 1 4.94886 1.42219 12.7791 -0.674503
305 2 3.93091 1.11005 13.1494 0.161576
306 2 5.01716 1.37123 11.5601 0.157111
307 2 5.28053 2.3817 13.2605 0.152264
312 1 2.44563 1.91796 17.2322 -0.691219
313 2 3.02408 1.10324 17.7471 0.210977
314 2 2.89624 2.98717 17.2894 0.163639
315 2 1.99779 1.63832 16.2599 0.170664
327 1 5.52905 1.80894 16.4332 -0.667809
328 2 5.83133 2.62623 15.7128 0.153798
329 2 4.41462 1.83303 16.7547 0.197419
330 2 5.89199 0.806597 16.123 0.212072
353 2 3.69953 0.021019 12.1176 0.167933
356 2 4.59046 5.08898 0.78337 0.184719
134 3 10.7646 5.15982 9.04854 -0.813911
11 4 11.0229 6.64445 9.69711 1.59631
47 4 11.029 2.79093 12.2132 0.932299
54 4 10.1011 5.35991 13.8086 1.09949
139 3 11.0507 4.08052 13.168 -0.727107
145 3 8.88552 5.75464 12.6767 -0.80347
193 1 12.013 3.0674 10.5823 -0.645697
194 1 9.21021 2.51962 11.3889 -0.671227
195 1 11.4661 1.10916 13.2131 -0.658885
200 1 9.35061 4.70495 15.4728 -0.68837
205 2 13.4508 0.520924 14.2188 0.166056
263 2 13.6063 1.57999 9.70947 0.14758
264 2 12.2867 2.13699 9.94596 0.144048
265 2 12.9836 3.4305 11.2504 0.153662
266 2 11.5253 3.92043 9.9676 0.289321
267 2 8.62409 1.98254 12.204 0.156126
268 2 9.2391 1.87812 10.4646 0.173824
269 2 8.83638 3.58255 11.2244 0.210071
270 2 12.3581 0.534208 12.7822 0.171853
271 2 10.4904 0.561081 13.0143 0.153545
272 2 11.5755 1.41759 14.3332 0.170056
281 2 9.26879 3.03333 9.20454 0.178295
285 2 10.221 4.71886 16.1938 0.151274
286 2 9.05784 3.6179 15.1416 0.152857
287 2 8.47255 5.26875 15.8844 0.208445
304 1 7.64217 0.897651 14.3889 -0.669604
308 2 8.57298 0.603868 13.8067 0.171424
309 2 7.28802 1.98725 14.2468 0.130091
316 1 12.0033 1.99716 16.5598 -0.678537
317 2 11.5452 0.993774 16.304 0.157468
318 2 11.3943 2.85347 16.1487 0.174871
319 2 12.1981 2.13003 17.6976 0.197826
331 1 8.48725 2.16567 17.2617 -0.674882
332 2 8.62326 1.20572 16.6293 0.176775
333 2 8.70338 3.12999 16.6385 0.176728
334 1 8.78777 0.482154 8.92155 -0.680241
337 2 7.8859 1.18295 9.09406 0.177104
345 2 10.4678 6.56357 16.6622 0.162939
363 2 11.2234 0.13534 9.83896 0.144399
22 4 -3.7994 11.3197 10.9493 1.19675
38 4 -1.14624 10.9033 9.3716 1.53862
41 4 -2.22418 11.7642 15.8729 1.3009
88 3 -4.77167 10.573 9.8575 -0.805941
102 3 -0.0688149 7.29805 16.9425 -0.776075
112 3 -2.4115 11.6358 10.2846 -0.813114
117 3 -0.733332 12.1168 16.4426 -0.806508
118 3 -2.24458 12.6579 14.3371 -0.764974
119 3 -3.39833 12.163 16.9092 -0.808594
122 3 -0.535797 12.9535 12.2035 -0.77861
174 1 -0.959954 8.39558 11.7922 -0.648309
176 1 -3.46691 9.93634 12.3519 -0.675222
177 1 -4.67473 12.8809 11.6885 -0.673874
189 1 -2.08306 9.86808 15.7117 -0.695535
215 2 -1.18749 8.45929 12.9146 0.207905
216 2 -1.70079 8.97659 11.132 0.209986
220 2 -2.40762 10.1454 12.7409 0.184414
221 2 -3.57478 8.91995 11.8746 0.198325
222 2 -4.27727 10.1585 13.1656 0.185013
223 2 -5.23057 12.3589 12.5767 0.158803
224 2 -5.38946 13.448 11.0301 0.188061
256 2 -2.10618 9.35985 16.6854 0.215462
257 2 -1.20598 9.61697 15.1276 0.222534
258 2 -3.06907 9.68774 15.1229 0.161652
302 4 6.19622 0.0638502 13.4632 1.11512
311 3 -5.55859 10.9198 17.3364 -0.835779
323 1 -6.00371 12.5082 14.968 -0.678781
324 2 -6.75981 12.5783 14.164 0.172853
325 2 -4.98315 12.3387 14.6055 0.19723
326 2 -6.10333 13.3799 15.7233 0.171587
348 2 -4.02594 7.46553 13.2095 0.192751
183 1 4.14307 6.66858 13.3017 -0.678506
350 2 6.88981 13.3823 15.5746 0.21151
29 4 3.49897 7.30022 17.2547 1.35614
33 4 0.930599 6.99526 15.5798 1.52605
36 4 0.703374 11.9014 17.2506 1.32773
40 4 1.57582 9.36723 13.7791 1.28058
42 4 0.4064 11.6647 11.8116 1.23248
55 4 6.34706 7.07453 16.0228 1.54615
59 4 6.04487 11.0162 17.7055 1.59556
63 4 3.47068 11.1325 15.8121 1.27219
64 4 6.79315 11.0147 11.8898 1.19427
101 3 2.4183 6.97896 16.1062 -0.856535
116 3 0.661026 8.16681 14.4676 -0.828749
120 3 0.134255 10.7438 10.2957 -0.8339
121 3 0.603143 10.5348 13.1443 -0.775008
141 3 7.4375 6.8788 17.1832 -0.866119
142 3 4.98464 7.55661 16.6571 -0.818892
152 3 7.07495 11.1359 16.493 -0.875142
162 3 6.86768 7.99921 14.8199 -0.875663
165 3 2.74591 10.0438 14.8645 -0.813537
166 3 4.43124 10.7968 17.0812 -0.791469
167 3 2.06403 12.2987 16.5013 -0.776045
169 3 6.93631 10.3255 13.2717 -0.826905
185 1 0.617487 10.0246 17.4225 -0.676601
188 1 2.25826 8.67126 12.1416 -0.694904
190 1 2.10602 12.4959 11.6485 -0.676544
201 1 4.54944 12.0863 14.6471 -0.685785
202 1 5.45322 9.99373 11.064 -0.672626
203 1 6.17563 13.0014 11.9232 -0.669611
214 2 0.15166 8.60195 11.4979 0.205576
240 2 3.78945 7.35193 14.1526 0.227146
242 2 4.9256 7.18069 12.696 0.17783
246 2 0.378365 9.63807 16.3736 0.224671
247 2 1.76173 7.45296 9.50369 0.14489
249 2 0.734737 8.99683 9.14379 0.238389
251 2 3.41195 9.32095 9.72656 0.163051
252 2 2.53565 10.8443 9.09137 0.191276
253 2 1.73986 9.248 11.3158 0.183953
254 2 1.96438 7.57247 12.2364 0.157921
255 2 3.39034 8.81182 12.2387 0.162097
259 2 2.54849 12.283 10.5903 0.166991
260 2 2.64848 11.9412 12.457 0.160235
261 2 1.89781 13.6285 11.9066 0.153534
283 2 4.26823 7.87894 10.5595 0.159104
288 2 5.58759 11.7247 14.9137 0.23305
289 2 4.41388 13.2187 14.8676 0.164277
290 2 4.19762 11.7805 13.6092 0.168014
291 2 5.51501 8.91784 11.4593 0.180806
292 2 5.68155 10.0343 9.90991 0.187651
293 2 4.47456 10.4977 11.3009 0.143696
294 2 5.84843 13.0776 12.9886 0.167742
295 2 5.34252 13.1715 11.1347 0.152272
336 2 1.55459 13.5414 9.93385 0.171391
341 1 3.95383 12.9489 9.06633 -0.690628
342 2 4.52356 12.0765 9.54974 0.15802
355 2 7.65386 0.564076 15.4495 0.19432
362 2 7.04799 13.5413 9.56654 0.204582
366 2 7.15661 13.5216 11.7218 0.165629
19 4 8.84702 10.7377 9.42824 1.55647
21 4 8.63199 10.9625 16.0384 1.37065
56 4 8.67253 7.02561 11.7059 1.54499
62 4 7.77378 8.9724 13.9338 1.50973
143 3 9.8822 7.10661 10.6835 -0.866416
157 3 8.16728 9.44129 8.75033 -0.850808
163 3 8.47515 8.308 12.6941 -0.859652
164 3 9.0343 9.71078 15.0217 -0.798971
168 3 7.97237 11.1056 10.8714 -0.824297
344 1 10.2117 7.43501 17.3319 -0.687995
346 2 9.99247 8.37495 16.7655 0.22855
347 1 11.2172 6.89848 14.2055 -0.684035
365 2 -4.27445 7.56565 15.0289 0.181432
ITEM: TIMESTEP
200
ITEM: NUMBER OF ATOMS
366
ITEM: BOX BOUNDS xy xz yz pp pp pp
-7.6825849775648445e+00 1.5124502545996368e+01 -7.5836444473619933e+00
-3.8984495215713011e-02 1.3670759789573033e+01 -1.1637984206477573e-02
-2.1425216319400597e-01 1.7821652163194031e+01 9.6775294357328401e-02
ITEM: ATOMS id type x y z q
9 4 -0.903498 6.88334 0.209119 1.3623
10 4 -0.0889571 4.1786 7.24973 1.18435
66 3 -0.515647 1.28057 4.52964 -0.844956
69 3 -1.00635 3.29165 2.83928 -0.863653
71 3 -0.529499 5.68107 1.24218 -0.799189
73 3 -2.38476 6.54608 4.55588 -0.854029
74 3 -0.850431 5.45315 6.56213 -0.810811
171 1 -1.51106 3.67072 8.44188 -0.676033
361 2 -0.541573 1.34442 8.27219 0.208335
3 4 0.929697 2.04635 0.493762 1.36622
5 4 0.72466 1.63671 5.48357 1.69026