ITEM: TIMESTEP
0
ITEM: NUMBER OF ATOMS
274
ITEM: BOX BOUNDS xy xz yz pp pp pp
-8.5082199999999997e+00 1.8013900000000000e+01 -8.5082199999999997e+00
0.0000000000000000e+00 1.3273200000000001e+01 1.1950000000000001e+00
0.0000000000000000e+00 1.6075500000000002e+01 4.3120000000000003e-01
ITEM: ATOMS id type x y z
223 2 6.39728 1.00496 3.78139
12 4 -0.86033 6.43552 5.30302
7 4 1.00774 1.92755 5.28213
9 4 -0.87792 4.40217 2.02455
10 4 0.490276 4.31574 7.31742
220 4 6.77458 0.426568 2.13509
21 4 5.97299 1.65936 5.5439
26 4 5.18443 4.70295 6.63179
41 1 0.548391 0.601404 6.58517
44 1 3.82404 3.74796 1.70449
55 3 1.27454 0.509008 1.16043
56 3 -0.223402 2.12237 4.3114
58 3 -2.02138 4.20245 3.22125
59 3 -0.231821 3.06633 1.32361
243 2 3.03589 1.09527 2.84235
61 3 1.39407 3.19474 6.221
62 3 -0.24501 5.44115 6.3761
74 3 5.55938 0.630203 7.12846
78 3 0.166701 5.51772 2.42261
81 3 5.55148 3.23565 5.69212
84 3 2.7202 5.85503 3.78635
85 3 4.23179 5.79584 5.80911
222 3 6.20047 1.41133 1.02163
111 2 2.44289 1.34039 4.56469
112 2 -1.71868 5.10087 0.69718
24 4 4.96019 4.86381 0.648687
118 2 4.65765 1.03354 4.3998
113 2 -1.50027 5.32031 4.21266
143 2 3.37578 4.4792 2.4756
135 2 0.834344 0.702774 7.66113
141 2 4.5225 2.95341 2.17509
142 2 2.97298 3.23508 0.892912
119 2 7.5656 1.54069 5.0191
5 4 0.48915 1.83136 0.506887
242 1 3.43719 0.14063 3.33565
60 3 -0.620233 3.43641 8.00714
138 2 2.63889 1.74289 12.9052
8 4 1.91756 2.74907 10.8403
13 4 0.498435 4.75146 12.6911
267 2 -0.951777 5.95286 15.0815
20 4 4.61221 3.16659 9.07563
23 4 6.96909 2.99947 11.1336
117 2 5.16287 1.88724 8.04284
29 4 3.62257 6.59081 11.1401
42 1 2.42535 1.25521 11.889
57 3 0.414632 2.38848 10.2479
63 3 -0.215754 3.4593 13.393
64 3 1.91478 4.16973 12.1296
65 3 -2.29435 5.52073 9.68517
66 3 -0.39925 5.4572 11.6231
73 3 3.1879 2.75754 9.75421
75 3 5.6653 3.35524 10.2598
76 3 6.80883 1.53884 11.694
80 3 4.56811 4.43935 8.10809
262 3 0.463024 1.78716 15.5033
82 3 1.4693 5.13405 8.38653
114 2 0.888807 5.884 13.8687
99 3 8.07367 1.30468 8.2632
124 2 3.18303 5.24271 12.0728
136 2 3.3945 0.914612 11.3559
179 4 7.33007 2.56621 15.678
183 1 5.88401 1.75146 14.786
249 1 -1.84682 5.26832 15.3362
195 2 6.33874 0.752715 14.0995
196 2 5.41032 2.54501 14.0621
137 2 1.63917 0.460311 11.9174
227 3 5.16708 6.2737 15.915
228 2 2.69668 6.40102 15.0755
245 1 2.95763 3.1513 15.4707
246 2 2.34527 3.08868 14.5072
247 2 4.00469 2.60968 15.2966
27 4 1.57774 6.62557 8.90984
248 2 3.04342 4.20856 15.9096
197 2 5.18703 1.38227 15.6109
14 4 -1.04873 6.43572 10.5532
123 2 5.12987 6.10929 10.6065
1 4 -6.69014 12.1614 1.98658
3 3 -5.91235 10.9852 0.937098
25 4 1.17466 6.53885 3.11233
16 4 -3.11786 8.0171 6.57441
17 4 -4.80991 9.87799 4.98777
265 2 -4.42499 12.3425 2.5921
30 4 2.46293 8.82126 1.19957
31 4 -2.33404 10.424 2.93201
33 4 -0.111777 11.1199 5.33665
48 1 -1.30888 9.01659 2.14615
49 1 0.055926 9.55934 6.46518
47 1 1.43319 10.433 1.23307
68 3 -2.00882 7.50474 5.54503
253 2 -5.23784 8.50082 1.81719
70 3 -4.49989 8.4772 5.81587
79 3 0.369557 7.19717 4.50662
87 3 1.63402 7.68807 2.06043
252 2 -4.45457 7.51264 0.392655
89 3 -2.33537 11.7035 1.9965
90 3 -3.77381 10.0709 3.71329
93 3 -1.14674 10.7695 4.17808
94 3 -0.614687 12.3276 6.32922
115 2 -4.5054 11.1727 6.01806
147 2 1.50171 7.46546 6.65613
151 2 -0.277718 9.50359 1.74537
152 2 -1.97604 8.5992 1.32597
153 2 -1.13765 8.28177 3.03449
149 2 1.96576 8.8808 7.71974
155 2 0.207101 8.68298 5.71638
156 2 -1.01245 9.54686 6.94998
271 2 0.518102 10.4103 0.449601
244 2 -5.74671 12.4519 4.12618
91 3 -2.5677 9.52017 7.56412
67 3 -3.372 6.84019 7.62605
133 2 -7.40946 12.5057 6.08724
122 2 2.76521 7.92962 5.5019
46 1 2.2024 7.82083 7.41377
154 2 0.916837 9.64454 7.2234
148 2 3.34841 7.67321 7.24714
161 2 -1.19075 9.8774 0.317389
28 4 3.70916 6.76798 4.63575
150 2 1.19756 10.6515 2.36391
19 4 -1.37676 12.8965 7.68464
86 3 2.7025 6.72753 9.95305
18 4 -2.13372 8.37472 12.6085
159 2 1.46923 11.6062 12.6113
32 4 -2.5434 10.4964 8.7936
35 4 -1.46037 10.7224 14.3068
71 3 -2.65053 7.17857 13.5263
160 2 0.800865 10.3084 14.6175
50 1 1.98978 10.5804 12.6105
51 1 0.109756 10.8807 15.2866
15 4 -4.24338 10.2442 15.9975
72 3 -1.57938 7.69742 11.2937
83 3 0.130276 7.06395 9.45172
88 3 3.90129 8.64299 15.7573
92 3 -1.43679 11.5415 9.03865
95 3 3.7444 7.85634 11.9874
96 3 -1.18453 9.37486 13.4054
97 3 -1.55049 12.2967 13.1788
98 3 -2.70973 10.4612 15.2267
116 2 -3.52303 9.18879 12.1424
120 2 -0.833221 12.1447 10.6363
126 2 -2.46501 9.47947 10.1546
127 2 -4.07849 11.1741 8.79773
128 2 2.58641 10.3078 13.9157
226 4 4.15859 7.23334 15.1396
162 2 0.244792 11.9726 15.2961
157 2 1.2059 9.77033 12.407
140 2 -5.10095 10.2139 13.5636
229 2 4.45585 7.4469 13.4951
22 4 -0.793766 13.0926 12.0411
235 2 11.7841 1.95583 2.0021
37 4 12.9208 1.72255 6.01379
234 2 11.8711 0.487364 0.719547
39 4 11.1633 3.99081 7.1772
45 1 6.81123 5.6355 6.65572
54 1 10.7924 5.39456 5.9015
101 3 14.159 2.58135 5.47324
102 3 13.2148 0.980009 7.38051
103 3 5.731 5.73952 1.71645
233 2 11.3795 0.190662 2.64891
106 3 11.5377 2.7253 6.15298
232 3 14.4738 1.2722 3.1139
129 2 12.5544 0.447158 4.96323
130 2 7.34707 5.58453 3.861
4 4 15.0845 2.43944 4.06515
145 2 7.53598 5.21358 5.94347
225 2 8.83723 0.68081 3.08638
231 1 11.9854 0.888863 1.81603
169 2 11.3076 6.30082 6.27489
170 2 9.68207 5.53738 5.93362
171 2 11.183 4.99831 4.92284
221 1 8.67926 0.434295 1.95738
224 2 8.93322 1.29267 1.2323
105 3 9.71075 3.7816 7.83807
146 2 7.11019 5.41482 7.75761
250 2 13.3939 4.96749 0.338752
134 2 16.2428 0.410516 6.42035
230 4 13.6144 0.11126 2.36948
273 2 9.44549 0.298181 0.0381044
11 4 13.2398 5.83651 8.78477
36 4 8.99298 2.40271 8.9637
52 1 10.5025 1.41674 9.5252
182 4 10.7387 6.21812 10.5746
100 3 8.29658 3.17522 10.1986
107 3 12.3897 4.51874 8.21879
110 2 14.5717 3.16556 10.186
6 4 15.8758 2.56273 9.2459
177 2 13.6796 0.469731 13.9073
163 2 11.3862 2.01146 9.05374
121 2 7.06584 4.06078 12.5181
165 2 10.5172 1.50397 10.6792
172 4 16.1695 2.14688 14.165
173 1 14.4127 1.3112 13.6509
174 2 14.3198 2.25626 14.9955
202 2 13.946 3.65323 11.8357
176 2 13.9057 1.91546 12.8128
187 3 9.28042 0.447437 12.4951
178 4 13.4637 6.04182 14.4955
180 4 9.87387 1.52812 13.7954
181 4 11.6995 3.99119 12.5298
188 3 8.63425 2.07482 14.6512
185 1 13.0188 3.08001 11.4077
263 3 15.4114 1.11808 8.84373
189 3 10.8384 2.83625 13.112
190 3 12.631 4.85478 13.7358
192 3 10.7635 5.1697 11.6913
203 2 9.26757 5.37743 9.03888
199 2 12.0047 0.960314 14.6627
200 2 12.5651 3.51841 10.4204
201 2 12.9492 1.90684 11.3733
175 2 15.9971 0.742575 12.9444
184 1 11.0313 0.591894 14.9905
186 1 9.03806 6.32594 9.64826
266 2 15.0616 4.09443 15.1282
164 2 10.3509 0.362696 9.10703
205 2 8.32268 6.093 10.5585
191 3 12.0807 6.59976 9.7556
77 3 7.14193 4.19839 15.8496
144 2 6.54038 6.86703 6.49509
2 3 9.0398 11.5918 3.07462
219 2 9.27004 9.10851 7.72854
53 1 8.1753 7.05941 3.32794
104 3 4.94938 7.47846 3.89912
261 2 5.27648 12.0426 4.80207
125 2 3.95427 9.13061 1.95129
257 2 2.05724 10.7582 4.83373
166 2 7.39815 8.08918 2.39353
168 2 8.32752 7.57746 4.25147
206 4 9.05319 10.4003 4.18913
272 2 2.29012 11.0891 0.74243
208 4 7.28835 10.2809 6.95928
209 1 6.10517 8.85138 6.48304
254 1 1.46154 11.7204 4.42345
211 3 8.09761 10.5592 5.34366
212 3 6.33453 11.7128 7.60235
213 2 8.46448 9.02987 3.40468
215 2 6.24229 8.36935 7.54699
216 2 6.31634 8.20944 5.59055
217 2 5.19675 9.50117 6.29035
38 4 6.22807 6.77517 2.90799
268 2 10.5667 7.34242 0.781734
237 1 7.33656 9.75191 0.339851
238 3 5.70671 12.0901 1.18486
251 1 11.4389 8.03568 0.805724
241 2 7.59933 9.8491 1.42852
256 2 1.25802 11.6399 3.31091
258 1 4.65329 11.7217 3.92185
259 2 5.06779 10.7708 3.46762
260 2 3.5141 11.7237 4.09628
255 2 1.96024 12.7071 4.70881
167 2 9.14312 6.74286 2.75594
270 2 0.645649 12.2213 1.65833
69 3 10.5264 10.035 4.54979
240 2 6.44092 8.97317 0.163477
34 4 3.74169 9.79835 12.401
40 4 6.29665 11.2745 13.0877
108 3 5.0189 10.5605 12.7453
109 3 6.82542 11.5007 14.5642
131 2 6.01963 12.7732 12.2847
132 2 7.50061 10.7142 12.0867
207 4 5.72688 13.0422 8.28451
239 2 9.5356 10.025 15.7583
139 2 10.9828 9.02352 14.9185
218 2 8.95071 10.6612 8.69854
214 2 4.8927 12.4171 9.57235
194 2 9.7882 7.62818 10.9565
204 2 8.75532 7.25733 9.01423
264 2 9.19977 11.905 15.7771
269 2 10.3356 10.8921 14.5874
210 1 8.52119 9.68458 8.35407
198 2 2.29125 12.394 14.5727
236 4 7.49057 11.6808 16.0291
274 2 7.98277 9.01987 9.13492
193 2 12.4656 7.08482 15.4155
158 2 2.93742 10.7822 11.0732
43 1 11.206 10.2094 14.5719
ITEM: TIMESTEP
100
ITEM: NUMBER OF ATOMS
274
ITEM: BOX BOUNDS xy xz yz pp pp pp
-8.5082199999999997e+00 1.8013900000000000e+01 -8.5082199999999997e+00
0.0000000000000000e+00 1.3273200000000001e+01 1.1950000000000001e+00
0.0000000000000000e+00 1.6075500000000002e+01 4.3120000000000003e-01
ITEM: ATOMS id type x y z
223 2 6.24519 1.07223 3.835
12 4 -0.790774 6.54532 5.31636
7 4 1.00701 1.95292 5.29632
9 4 -0.750569 4.41877 1.98025
10 4 0.420028 4.36988 7.25302
220 4 6.6854 0.52295 2.13707
21 4 5.81882 1.64387 5.61214
26 4 5.20198 4.61006 6.53223
41 1 0.398428 0.556185 6.41567
44 1 3.74542 3.88022 1.53206
55 3 1.2525 0.7148 1.18856
56 3 -0.259697 2.32784 4.43282
58 3 -1.90299 4.27636 3.19354
59 3 -0.202702 3.13246 1.2628
243 2 3.1377 1.19876 2.73826
61 3 1.33995 3.30254 6.24758
62 3 -0.12677 5.70011 6.47484
74 3 5.76567 0.616446 7.30029
78 3 0.263617 5.44776 2.6119
81 3 5.52781 3.22573 5.71763
84 3 2.64904 5.7813 3.57417
85 3 4.36206 5.66684 5.64239
222 3 6.12933 1.60578 1.12592
111 2 2.35016 1.51848 4.24754
112 2 -1.45692 5.32323 0.700983
24 4 5.06046 4.80111 0.614291
118 2 4.52435 0.696564 4.81707
113 2 -1.46842 5.4343 4.23086
143 2 3.29138 4.57509 2.33512
135 2 0.233965 0.760324 7.47788
141 2 4.38886 3.04367 1.95102
142 2 2.93442 3.47074 0.659131
119 2 7.47669 1.75833 5.24017
5 4 0.481142 1.87674 0.355774
242 1 3.42044 0.185346 3.28637
60 3 -0.816854 3.50608 7.96812
80 3 4.611 4.12041 8.03742
138 2 2.14647 1.65579 12.9853
8 4 1.813 2.73494 10.7979
13 4 0.427211 4.687 12.5851
267 2 -1.16166 6.16228 15.218
20 4 4.56878 3.05743 9.21128
23 4 6.93744 2.87497 11.1047
117 2 5.16091 1.71864 8.33289
29 4 3.71014 6.46924 11.2181
42 1 2.15826 1.20465 11.9373
57 3 0.482392 2.54331 10.0113
63 3 -0.345151 3.56704 13.3549
64 3 1.85608 4.22663 12.0085
65 3 -2.27283 5.65623 9.67574
66 3 -0.476322 5.5432 11.4598
73 3 3.16426 2.75849 9.83707
75 3 5.55683 3.35484 10.3449
76 3 6.84137 1.42427 11.7978
123 2 5.22101 6.07156 10.7559
262 3 0.492504 1.78557 15.2856
82 3 1.35842 4.92737 8.38223
114 2 0.848491 5.78985 13.7471
99 3 8.15255 1.28253 8.25401
124 2 3.30272 5.06018 12.1114
136 2 3.17418 0.865324 11.5357
179 4 7.28957 2.66765 15.5565
183 1 5.72099 1.85454 14.7271
249 1 -1.93637 5.36079 15.6603
195 2 6.16212 1.00934 14.1031
196 2 5.17971 2.6349 14.0723
137 2 1.37054 0.388476 11.8387
227 3 5.19103 6.40778 15.7149
228 2 2.60654 6.49845 15.0561
245 1 2.82981 3.35481 15.3435
246 2 2.24372 3.32777 14.346
247 2 4.00717 2.90852 15.2216
27 4 1.59937 6.56031 9.01077
248 2 2.81247 4.36116 15.8179
197 2 5.19277 1.48165 15.6625
14 4 -1.19538 6.50766 10.4237
77 3 7.00954 4.20619 15.6602
86 3 2.83376 6.68015 9.95909
1 4 -6.63677 12.2586 2.01652
3 3 -6.09824 10.9179 1.08453
25 4 1.3019 6.53316 3.09132
16 4 -3.06232 8.02033 6.623
17 4 -4.7681 9.87683 4.92661
265 2 -4.42003 12.3148 2.61094
30 4 2.52423 8.7438 1.26398
31 4 -2.36767 10.4675 3.09048
33 4 -0.115694 11.1742 5.2626
48 1 -1.48491 9.0457 2.16544
49 1 0.111699 9.68028 6.38016
47 1 1.30519 10.2644 1.23179
68 3 -1.88068 7.55736 5.70856
253 2 -4.96478 8.50201 1.87808
70 3 -4.42137 8.53017 5.72995
79 3 0.479377 7.26374 4.62643
87 3 1.67129 7.88904 2.18126
252 2 -4.39944 7.60232 0.290945
89 3 -2.25395 11.8936 1.89102
90 3 -3.75582 9.99584 3.68039
93 3 -1.25112 10.8538 4.22441
94 3 -0.511418 12.299 6.35694
115 2 -4.50819 11.1534 5.98741
147 2 1.66018 7.01854 6.55913
151 2 -0.424432 9.43267 1.80365
152 2 -2.1341 8.68167 1.31788
153 2 -1.38411 8.26785 3.02252
149 2 1.85389 8.65147 7.60388
155 2 0.240175 8.76967 5.60616
156 2 -0.973958 9.60885 6.87865
271 2 0.443625 10.2946 0.419098
244 2 -5.61988 12.562 4.109
91 3 -2.49113 9.5453 7.65912
67 3 -3.47263 6.83202 7.53391
133 2 -7.12787 12.6873 6.21375
122 2 2.82084 7.74043 5.59456
46 1 2.16348 7.54232 7.4271
154 2 0.937404 9.70698 7.20768
148 2 3.26251 7.33909 7.4043
161 2 -1.39075 9.92491 0.328494
28 4 3.76094 6.63496 4.59882
150 2 0.95721 10.4155 2.33604
19 4 -1.27931 12.9813 7.69523
15 4 -5.49262 9.7784 0.0531688
69 3 -6.24522 10.0527 4.43417
22 4 -0.85043 12.9409 12.0691
18 4 -2.36341 8.28715 12.5854
159 2 1.57314 11.5559 12.574
32 4 -2.51874 10.6098 8.81832
35 4 -1.555 10.785 14.1205
71 3 -2.81062 7.09145 13.5848
160 2 0.706801 10.3214 14.7131
50 1 2.04451 10.499 12.6399
51 1 -0.0464128 10.8797 15.3309
229 2 4.38101 7.34791 13.4491
72 3 -1.9166 7.78927 11.1537
83 3 0.105594 7.14163 9.43215
88 3 3.9692 8.63789 15.7102
92 3 -1.41661 11.6383 9.05659
95 3 3.68068 7.74097 12.1074
96 3 -1.2516 9.34041 13.2006
97 3 -1.61468 12.0547 13.1491
98 3 -2.94571 10.5787 15.1487
116 2 -3.70303 9.19239 12.2659
120 2 -0.924004 12.0628 10.6286
126 2 -2.75748 9.76407 10.265
127 2 -4.05398 11.1625 9.19023
128 2 2.78666 10.3291 14.1118
226 4 4.09325 7.24427 15.1038
162 2 0.0734181 11.9905 15.3176
157 2 1.19003 9.69033 12.5839
140 2 -5.15285 9.80614 13.76
187 3 0.679549 13.0896 12.4794
235 2 12.2029 2.19098 1.88293
37 4 13.0511 1.6512 6.11956
234 2 12.1496 0.791768 0.635373
39 4 11.2597 4.00041 7.14466
45 1 6.83459 5.58385 6.87832
54 1 11.0639 5.43701 5.89628
101 3 14.2253 2.38758 5.34414
102 3 13.2782 0.83927 7.4336
103 3 6.03139 5.65554 1.68536
233 2 11.2282 0.564482 2.29711
106 3 11.818 2.74529 6.32001
232 3 14.4261 1.35515 2.99903
129 2 12.4354 0.572231 4.92282
130 2 7.48588 5.85486 4.17978
4 4 15.1061 2.53487 4.01591
145 2 7.6213 5.23986 6.1873
225 2 8.66099 0.728823 3.27506
231 1 12.0845 1.07658 1.72492
169 2 11.1844 6.43374 6.43631
170 2 10.0492 5.25596 5.4387
171 2 11.8754 5.27709 5.1587
221 1 8.56419 0.535114 2.07121
224 2 8.9242 1.38311 1.521
105 3 9.72342 3.53394 7.9179
146 2 7.03783 5.27395 8.00387
250 2 13.2969 5.21525 0.662912
134 2 16.2156 0.251206 5.92498
230 4 13.5451 0.093299 2.44111
273 2 9.20586 0.27168 0.133715
11 4 13.0733 5.96082 8.75725
36 4 9.10653 2.39353 8.92353
52 1 10.6465 1.45292 9.63223
182 4 10.6341 6.19317 10.6094
100 3 8.25642 3.01153 10.2166
107 3 12.3862 4.50368 8.34857
110 2 14.6947 3.28123 10.2311
6 4 15.8419 2.60755 9.23066
205 2 8.23229 6.16863 10.3773
163 2 11.4926 2.04722 9.14943
177 2 13.8789 0.428354 13.8642
165 2 10.6098 1.42984 10.7467
172 4 16.2556 2.20863 14.2231
173 1 14.512 1.35139 13.6501
174 2 14.4295 2.14983 14.9165
202 2 14.0112 3.57065 11.8233
176 2 14.0104 2.00092 12.7977
121 2 7.14753 4.13905 12.3218
178 4 13.4579 6.00551 14.5242
180 4 9.81048 1.56997 13.8626
181 4 11.7899 3.92843 12.6325
188 3 8.56942 2.16064 14.6989
185 1 13.0557 3.12773 11.3735
263 3 15.3634 1.13314 8.97864
189 3 10.8566 2.63221 13.1887
190 3 12.747 4.77814 13.6728
192 3 10.9016 5.07237 11.6938
203 2 9.21787 5.65509 8.87269
199 2 11.9487 0.807669 14.9174
200 2 12.6769 3.72683 10.476
201 2 13.0176 1.99753 11.3351
175 2 16.0627 0.761699 12.9694
184 1 10.8035 0.577827 15.0652
186 1 9.02271 6.42923 9.61642
266 2 15.0694 4.34544 15.4131
164 2 10.4974 0.424863 9.17422
144 2 6.61796 6.7328 6.76229
2 3 9.035 11.6396 3.11981
219 2 9.22924 8.88611 7.81021
53 1 8.17058 7.21472 3.46916
104 3 4.84734 7.38452 3.71292
261 2 5.25961 12.0954 4.9943
125 2 4.03355 9.04829 1.96664
257 2 2.10392 10.9454 5.09489
166 2 7.33902 8.14102 2.30242
168 2 8.34472 7.88046 4.42009
206 4 9.07039 10.4536 4.11839
272 2 2.20293 10.9924 0.96896
208 4 7.41312 10.3575 6.94391
209 1 6.27274 8.77303 6.62852
254 1 1.50644 11.6386 4.44022
211 3 8.31529 10.63 5.63132
212 3 6.52781 11.5938 7.66561
213 2 8.21434 9.17299 3.28078
215 2 6.09618 8.21738 7.58412
216 2 6.70767 8.14382 5.79885
217 2 5.33495 9.4346 6.39117
38 4 6.31223 6.70971 2.93278
268 2 10.5549 7.39211 0.841922
237 1 7.46635 9.98619 0.580649
238 3 5.63005 12.0529 1.07552
251 1 11.5171 8.02299 0.799334
241 2 7.84511 10.3534 1.60443
256 2 1.44834 11.3038 3.31685
258 1 4.72386 11.8149 4.0625
259 2 5.14579 10.8988 3.50302
260 2 3.55589 11.7004 4.23764
255 2 1.73483 12.7338 4.63461
167 2 9.06572 7.04859 2.86019
270 2 0.444714 12.3331 1.73622
240 2 6.50741 9.15946 0.705304
34 4 3.72324 9.73516 12.4193
40 4 6.36538 11.2733 12.977
108 3 5.05479 10.49 12.6849
109 3 6.93306 11.4386 14.3952
131 2 6.22624 12.7915 12.2783
132 2 7.60699 10.7719 11.9647
207 4 5.85853 12.8825 8.30148
239 2 9.52554 10.1377 15.9559
139 2 10.6759 8.8406 15.1806
218 2 8.84974 10.379 8.90516
214 2 4.90706 12.3807 9.61403
194 2 9.67097 7.47155 11.1773
204 2 8.74922 7.48545 9.10847
43 1 11.1421 9.87759 14.828
269 2 10.4003 10.7958 14.9821
210 1 8.44336 9.47139 8.29827
198 2 1.95824 12.3571 14.5694
236 4 7.49506 11.6737 15.8875
274 2 7.81624 8.87088 8.99341
264 2 9.2412 12.0396 15.7126
158 2 2.81098 10.5812 11.014
193 2 12.4751 6.84868 15.7082
191 3 11.9138 6.68387 9.72938
ITEM: TIMESTEP
200
ITEM: NUMBER OF ATOMS
274
ITEM: BOX BOUNDS xy xz yz pp pp pp
-8.5082199999999997e+00 1.8013900000000000e+01 -8.5082199999999997e+00
0.0000000000000000e+00 1.3273200000000001e+01 1.1950000000000001e+00
0.0000000000000000e+00 1.6075500000000002e+01 4.3120000000000003e-01
ITEM: ATOMS id type x y z
223 2 6.21239 1.02347 3.87638
60 3 -0.866395 3.29868 7.97701
7 4 1.04643 2.11286 5.26979
9 4 -0.758776 4.50192 1.94567
10 4 0.210592 4.26237 7.25475
220 4 6.60012 0.494401 2.20587
21 4 5.87301 1.5563 5.58208
26 4 5.23935 4.61904 6.71212
41 1 0.823213 0.501524 6.31285
44 1 3.8452 3.81367 1.39194
55 3 1.21615 0.73168 1.22437
56 3 -0.130099 2.19426 4.1903
58 3 -1.7922 4.22612 3.20292
59 3 -0.0735022 3.20931 1.21983
243 2 2.9068 1.31914 2.74209
61 3 1.26447 3.32308 6.32922
62 3 -0.384818 5.42627 6.25977
74 3 5.80825 0.492059 7.24528
78 3 0.334719 5.53085 2.30136
81 3 5.69004 3.07694 5.95648
84 3 2.81205 5.82244 3.67357
85 3 4.52737 5.58269 5.71733
222 3 6.25886 1.57504 1.0417
111 2 2.62335 1.79639 4.54869
112 2 -1.81829 5.22289 0.79914
24 4 5.08113 4.92477 0.401797
118 2 4.61627 0.949251 4.38621
113 2 -1.71431 5.55294 4.10512
143 2 3.34116 4.46766 2.19759
135 2 0.768803 0.750241 7.41493
141 2 4.43436 2.99053 1.78195
142 2 3.06408 3.46713 0.563651
119 2 7.52932 1.35476 5.05763
5 4 0.398557 2.07582 0.297259
242 1 3.26092 0.362602 3.33918
12 4 -0.849522 6.48223 5.22347
28 4 3.80254 6.49653 4.63921
250 2 -3.68788 5.67972 0.559464
138 2 1.79196 1.33981 12.8503
8 4 1.80393 2.6883 10.7917
13 4 0.39373 4.94932 12.5464
267 2 -1.28179 5.67664 15.0788
20 4 4.66842 2.96921 9.24045
23 4 6.98524 2.9375 11.1963
117 2 5.21741 1.63641 8.3099
29 4 3.67722 6.46564 11.2041
42 1 1.70712 1.05694 11.7423
57 3 0.475213 2.58844 10.05
63 3 -0.426322 3.91446 13.3945
64 3 1.7585 4.21941 11.9786
65 3 -2.28661 5.78773 9.45315
66 3 -0.569419 5.54011 11.4262
73 3 3.27689 2.5925 9.91018
75 3 5.71837 3.2299 10.3454
76 3 6.9228 1.46181 11.9173
123 2 5.19912 5.88754 10.8185
262 3 0.519731 1.89159 15.1057
82 3 1.25603 5.02506 8.30384
114 2 0.882697 6.13063 13.5785
99 3 8.17401 1.23491 8.3753
124 2 3.11627 5.06277 12.0164
136 2 2.66474 0.589182 11.3361
179 4 7.29422 2.66639 15.4856
183 1 5.81511 1.67622 14.7978
80 3 4.62798 4.21954 8.30393
195 2 6.23398 0.795908 14.1708
196 2 4.99075 2.21776 14.1393
137 2 0.750577 0.511461 11.449
227 3 5.2212 6.31745 15.8084
228 2 2.71244 6.57396 14.9498
245 1 2.91756 3.24165 15.2286
246 2 2.34102 3.26794 14.1871
247 2 4.00032 2.6583 15.2233
27 4 1.61673 6.56562 8.91908
248 2 2.89572 4.33095 15.7431
197 2 5.42558 1.36745 15.8162
14 4 -1.20393 6.5842 10.3028
86 3 2.86128 6.68126 9.90788
187 3 9.24277 0.380149 12.5209
1 4 -6.76622 12.296 2.07266
3 3 -6.15014 10.9823 1.03391
25 4 1.31587 6.51877 3.11118
16 4 -3.00107 8.10563 6.66903
17 4 -4.62908 9.94112 4.8106
265 2 -4.62376 12.4023 2.63589
30 4 2.3236 8.90866 1.18102
31 4 -2.23758 10.4765 3.02297
33 4 -0.101183 11.2096 5.36831
48 1 -1.4807 8.95699 2.03577
49 1 0.213652 9.64414 6.53108
47 1 1.21395 10.467 1.16924
68 3 -1.72167 7.62749 5.84089
253 2 -4.99272 8.68447 2.02787
70 3 -4.25466 8.63616 5.64255
79 3 0.456633 7.21828 4.48844
87 3 1.69525 7.81218 2.13358
252 2 -4.2183 7.59576 0.643533
89 3 -2.36608 11.8344 2.0472
90 3 -3.72495 10.0994 3.43269
93 3 -1.16874 10.8161 4.25331
94 3 -0.375431 12.393 6.39382
115 2 -4.26022 11.2812 5.73677
147 2 1.54387 7.19865 6.50836
151 2 -0.44057 9.42919 1.6347
152 2 -2.28149 8.69883 1.27931
153 2 -1.30027 8.09352 2.75872
149 2 2.01964 8.87791 7.4642
155 2 0.343431 8.7403 5.77625
156 2 -0.815586 9.55924 7.05168
271 2 0.334323 10.5297 0.378228
244 2 -5.97381 12.6411 4.19514
91 3 -2.62794 9.52954 7.74118
67 3 -3.59335 7.01805 7.58434
133 2 -6.84263 12.7342 6.01842
122 2 2.97681 7.66836 5.62352
46 1 2.18187 7.65556 7.40337
154 2 1.11521 9.88804 7.18846
148 2 3.26881 7.38092 7.51339
161 2 -1.44433 9.90017 0.243136
270 2 0.401555 12.2779 1.59295
150 2 0.886546 10.7141 2.26551
19 4 -1.26238 12.8743 7.7231
15 4 -5.50031 9.72614 0.0104163
251 1 -5.18554 8.1426 1.03653
22 4 -0.924807 12.926 12.0847
18 4 -2.51782 8.34238 12.47
159 2 1.45523 11.5412 12.4733
32 4 -2.51947 10.5921 8.84461
35 4 -1.74197 10.6524 14.2231
71 3 -3.05122 7.20424 13.4986
160 2 0.605019 10.5649 14.5341
50 1 1.9051 10.4936 12.4747
51 1 -0.169368 10.9644 15.2652
229 2 4.62579 7.45978 13.561
72 3 -2.056 7.86462 11.0515
83 3 0.166689 7.24723 9.54416
88 3 3.84334 8.69763 15.7639
92 3 -1.18933 11.4727 9.06251
95 3 3.76211 7.65922 12.193
96 3 -1.37443 9.21888 13.1691
97 3 -1.73982 11.9994 13.1673
98 3 -3.00553 10.3993 15.2768
116 2 -3.88531 9.31278 12.1399
120 2 -0.941447 12.157 10.6055
126 2 -2.54072 9.82887 10.3621
127 2 -3.98307 11.4087 9.13977
128 2 2.74602 10.0897 14.0144
226 4 4.157 7.31047 15.1682
162 2 -0.217606 12.0791 15.3592
157 2 1.15028 9.67682 12.5735
235 2 11.6556 2.10597 1.918
37 4 13.1017 1.52205 5.95279
234 2 11.3786 0.544397 0.871756
39 4 11.4702 3.92428 7.19422
45 1 6.75817 5.66143 7.18907
54 1 11.0754 5.38049 5.99898
101 3 14.2499 2.43468 5.3182
102 3 13.628 0.659414 7.17659
103 3 6.00769 5.71615 1.59926
233 2 11.3236 0.458275 2.83343
106 3 11.9672 2.61114 6.46932
232 3 14.4493 1.41366 2.94391
129 2 12.3699 0.515842 4.73014
130 2 7.7738 5.69415 3.93237
4 4 15.1207 2.38729 3.94743
145 2 7.58349 5.14672 6.60388
225 2 8.64424 0.473674 3.18005
231 1 11.7637 1.00802 1.83426
169 2 11.2775 6.42397 6.38552
170 2 9.98954 5.26869 5.76907
171 2 11.7454 5.12476 5.14107
221 1 8.47505 0.396682 1.98249
224 2 8.86569 1.3571 1.41334
105 3 9.85467 3.5131 7.83711
230 4 13.5157 0.282343 2.22389
273 2 9.08521 0.259 0.0149503
11 4 12.9781 6.0883 8.82743
36 4 9.18333 2.4609 8.95828
52 1 10.5993 1.60964 9.85924
182 4 10.617 6.1514 10.6694
100 3 8.30817 3.11037 10.3389
107 3 12.3622 4.52543 8.39994
110 2 14.669 3.44783 10.2559
6 4 15.7955 2.51556 9.31644
205 2 8.07244 6.57035 10.8329
163 2 11.4548 1.9483 9.22263
164 2 10.2714 0.513131 9.65869
165 2 10.6655 1.93068 10.9108
172 4 16.3409 2.36643 13.996
173 1 14.6005 1.39282 13.7708
174 2 14.5542 2.19473 14.9503
202 2 13.9827 3.52541 12.1901
176 2 14.0434 2.02454 12.9104
121 2 7.00244 3.98482 12.4946
178 4 13.307 6.13504 14.5517
180 4 9.69334 1.50276 13.7232
181 4 11.7397 3.93396 12.692
188 3 8.45489 2.08587 14.6197
185 1 13.1075 3.16627 11.4982
263 3 15.3228 0.987566 9.14777
189 3 10.9197 2.67249 13.1274
190 3 12.5206 4.86654 14.0098
192 3 10.9928 4.89174 11.5418
203 2 8.83814 5.59384 9.41844
199 2 11.73 0.85824 14.7185
200 2 12.9029 3.83852 10.5674
201 2 12.9303 2.03326 11.505
175 2 16.1773 1.01664 12.7991
184 1 10.657 0.441994 14.9621
186 1 8.85198 6.58128 10.0286
266 2 14.6947 4.26078 15.9581
77 3 6.99781 4.41696 15.3993
146 2 6.81482 5.40126 8.34577
249 1 14.6511 5.36249 15.7176
144 2 6.64187 6.84954 6.95496
2 3 9.00883 11.7357 3.32081
219 2 9.49907 8.70205 7.73037
53 1 8.12167 7.13852 3.73802
104 3 5.07227 7.32468 3.81853
261 2 5.34469 11.9545 4.65375
125 2 3.6929 9.46449 2.02172
257 2 2.03035 10.5838 5.11073
166 2 7.50265 7.98984 2.36027
168 2 7.7521 7.71687 4.63841
206 4 9.1323 10.3819 4.19767
272 2 2.11958 11.1739 0.837405
208 4 7.51053 10.2387 6.99881
209 1 6.18091 8.76867 6.55719
254 1 1.53058 11.5856 4.52279
211 3 8.29245 10.5191 5.64634
212 3 6.83599 11.5967 7.70384
213 2 8.42451 9.06726 3.3452
215 2 6.01644 8.24038 7.60375
216 2 6.62231 8.0574 5.8133
217 2 5.3788 9.3648 6.13024
38 4 6.29673 6.60858 3.01439
268 2 10.6497 7.57004 1.06707
237 1 7.59671 10.1472 0.596498
238 3 5.46569 12.2134 0.991536
167 2 9.22172 7.29165 3.75028
241 2 7.95563 10.7009 1.52799
256 2 1.36482 11.3988 3.3496
258 1 4.63067 11.8519 3.72808
259 2 4.9672 10.966 3.12282
260 2 3.4721 11.7337 4.04163
255 2 2.0575 12.5281 4.77728
69 3 10.5988 9.98474 4.56936
240 2 6.63793 9.25335 0.753167
134 2 8.18043 12.8922 5.8061
34 4 3.63483 9.60613 12.4705
40 4 6.35801 11.2409 12.9408
108 3 5.08537 10.3742 12.6202
109 3 6.90703 11.3783 14.3622
131 2 6.02768 12.795 12.3221
132 2 7.58404 10.7452 11.9365
207 4 6.02245 12.8281 8.28027
239 2 9.72558 10.1304 15.9708
139 2 10.4485 8.84656 15.1853
218 2 9.08528 10.176 8.79575
214 2 4.96746 11.9657 9.33789
194 2 9.74641 7.22343 11.6561
204 2 8.90186 7.55654 9.44957
43 1 11.2207 9.52813 14.7401
269 2 10.8474 10.6857 14.6788
210 1 8.63566 9.38441 8.21939
198 2 1.98087 12.2243 14.7404
236 4 7.49694 11.6923 15.9823
274 2 7.89934 8.7079 8.81013
264 2 9.16342 12.3046 15.9221
158 2 2.68545 10.4129 11.1047
177 2 5.62243 13.2146 14.0487
191 3 11.8865 6.93088 9.99329
193 2 12.7075 6.9943 15.9289
140 2 11.5051 9.22074 13.6838
ITEM: TIMESTEP
300
ITEM: NUMBER OF ATOMS
274
ITEM: BOX BOUNDS xy xz yz pp pp pp
-8.5082199999999997e+00 1.8013900000000000e+01 -8.5082199999999997e+00
0.0000000000000000e+00 1.3273200000000001e+01 1.1950000000000001e+00
0.0000000000000000e+00 1.6075500000000002e+01 4.3120000000000003e-01
ITEM: ATOMS id type x y z
223 2 6.37646 0.968861 3.80469
60 3 -0.911041 3.31223 7.90228
7 4 1.22732 1.974 5.22718
9 4 -0.84797 4.55514 1.81501
10 4 0.211309 4.24235 7.18665
220 4 6.7923 0.493429 2.10371
21 4 5.95144 1.51891 5.75839
26 4 5.32348 4.68257 6.96173
41 1 1.29541 0.456474 6.31563
44 1 3.94219 3.82864 1.63265
55 3 1.08451 0.597148 1.19978
56 3 -0.100415 1.93381 4.17517
58 3 -1.75921 4.22858 3.08008
59 3 -0.139751 3.27887 1.00903
243 2 2.98053 1.18385 2.91511
61 3 1.20684 3.30192 6.28962
62 3 -0.545186 5.18098 6.15406
74 3 5.73981 0.506455 7.33374
78 3 0.355842 5.61729 2.17603
81 3 5.80999 3.05468 6.11793
84 3 2.74782 5.79079 3.66158
85 3 4.33211 5.51662 5.97836
222 3 6.10546 1.61117 0.958709
111 2 2.75799 1.76895 4.4366
112 2 -1.81903 5.26883 0.584855
24 4 5.06479 4.96062 0.648667
118 2 4.72891 0.708666 4.58284
113 2 -2.03867 5.71902 4.13349
143 2 3.39244 4.53239 2.35591
135 2 0.984089 0.827243 7.3369
141 2 4.61651 3.08585 2.09038
142 2 3.1743 3.34121 0.811008
119 2 7.47728 1.09825 5.24067
5 4 0.472967 1.90311 0.219557
242 1 3.4737 0.261611 3.37724
12 4 -0.950635 6.36074 5.2329
28 4 3.76486 6.39258 4.72932
250 2 -3.48835 5.58369 0.549171
138 2 2.13034 1.31005 12.9271
8 4 1.83882 2.58314 10.7941
13 4 0.352569 4.95833 12.5105
267 2 -1.4876 5.94539 14.9431
20 4 4.58306 2.93202 9.2814
23 4 7.01084 3.05998 11.261
117 2 5.11189 1.60824 8.34386
29 4 3.58087 6.4402 11.1337
42 1 1.90962 1.03319 11.8465
57 3 0.394311 2.482 10.078
63 3 -0.499785 3.9395 13.3861
64 3 1.71674 4.07296 12.0034
65 3 -2.27799 5.88776 9.43814
66 3 -0.47862 5.65151 11.4494
73 3 3.14498 2.59821 9.9054
75 3 5.74788 3.1875 10.3695
76 3 6.94769 1.58679 11.8579
123 2 5.19272 6.05153 10.7052
262 3 0.612635 2.06001 15.1384
82 3 1.06447 5.22186 8.19225
114 2 0.850419 6.22096 13.4754
99 3 8.20996 1.24207 8.45973
124 2 3.14825 5.0611 11.9251
14 4 -1.11141 6.67528 10.393
179 4 7.33315 2.5938 15.5016
183 1 5.84825 1.60352 14.7458
80 3 4.52313 4.1981 8.3173
195 2 6.1683 0.688507 14.0304
196 2 5.33766 2.49411 14.15
137 2 0.844112 0.625387 11.733
227 3 5.1308 6.44644 15.8788
228 2 2.81626 6.41066 14.8032
245 1 3.12496 3.18633 15.4306
246 2 2.6308 3.23279 14.413
247 2 4.07962 2.61358 15.2894
77 3 6.97783 4.18178 15.5636
248 2 3.1931 4.20956 15.9608
197 2 5.26966 1.28419 15.665
86 3 2.67529 6.57481 9.87378
136 2 2.71977 0.41232 11.3481
1 4 -6.8122 12.2527 2.06257
3 3 -6.16778 11.065 1.11317
25 4 1.33001 6.57388 3.22804
16 4 -3.04928 8.11788 6.64901
17 4 -4.56433 10.0598 4.85252
265 2 -4.60432 12.3376 2.5715
30 4 2.4353 8.94651 1.13609
31 4 -2.23349 10.4334 2.95311
33 4 -0.00797942 11.0596 5.34396
48 1 -1.33226 9.04577 2.05225
49 1 0.129872 9.45388 6.49087
47 1 1.31878 10.5107 1.00891
68 3 -1.78736 7.51046 5.91992
253 2 -5.21954 8.83924 2.23345
70 3 -4.16961 8.72296 5.59859
79 3 0.410546 7.05004 4.48994
87 3 1.69176 8.04971 2.14749
252 2 -4.39151 7.65037 0.928424
89 3 -2.14768 11.8937 1.76965
90 3 -3.6882 10.0795 3.43538
93 3 -1.22833 10.7004 4.22642
94 3 -0.394169 12.2324 6.3878
115 2 -4.14907 11.3459 5.82535
147 2 1.66032 7.18878 6.4462
151 2 -0.30012 9.45824 1.65408
152 2 -2.12773 8.85205 1.20069
153 2 -1.1516 8.11547 2.70962
149 2 2.13953 8.89678 7.26095
155 2 0.310617 8.58887 5.79856
156 2 -0.926951 9.45625 7.00214
271 2 0.39301 10.5291 0.329307
244 2 -5.87009 12.6368 4.0966
91 3 -2.56011 9.63865 7.72025
67 3 -3.82402 7.15727 7.55813
133 2 -6.15854 12.7766 6.32799
122 2 3.02045 7.83513 5.44748
46 1 2.25634 7.79558 7.294
154 2 1.04799 9.71439 7.26092
148 2 3.31382 7.39951 7.31442
161 2 -1.35454 9.96832 0.212335
69 3 -6.06997 10.2146 4.57453
150 2 0.979009 10.6799 2.14769
19 4 -1.12366 12.9249 7.73791
15 4 -5.56273 9.73507 0.139441
22 4 -0.999868 12.9737 12.054
18 4 -2.53404 8.3184 12.5441
159 2 1.36552 11.404 12.166
32 4 -2.41173 10.5446 8.95119
35 4 -1.67859 10.761 14.1743
71 3 -3.05176 7.15601 13.5042
160 2 0.611086 10.3033 14.5141
50 1 1.98066 10.4115 12.0267
51 1 -0.0975875 10.8707 15.2223
187 3 0.527783 12.9037 12.4471
72 3 -1.91916 7.96388 11.1451
83 3 0.234836 7.44329 9.27329
88 3 3.71148 8.81926 15.6422
92 3 -1.16881 11.506 9.08204
95 3 3.59028 7.69723 12.1027
96 3 -1.54317 9.36404 13.3218
97 3 -1.81463 12.0719 13.1804
98 3 -3.16933 10.4669 15.2474
116 2 -3.90028 9.28861 12.0945
120 2 -1.11083 12.2562 10.5838
126 2 -2.19581 9.21485 9.99678