ITEM: TIMESTEP
0
ITEM: NUMBER OF ATOMS
274
ITEM: BOX BOUNDS xy xz yz pp pp pp
-8.5082199999999997e+00 1.8013900000000000e+01 -8.5082199999999997e+00
0.0000000000000000e+00 1.3273200000000001e+01 1.1950000000000001e+00
0.0000000000000000e+00 1.6075500000000002e+01 4.3120000000000003e-01
ITEM: ATOMS id type x y z
119 2 7.35695 1.23302 5.28466
12 4 -1.05922 6.46192 5.30917
7 4 0.890956 2.20187 5.17832
9 4 -0.37865 4.73166 1.83393
10 4 0.241863 4.42106 7.24978
242 1 3.24117 0.490568 3.16246
21 4 5.68167 1.43844 5.70759
26 4 5.32191 4.37513 6.80933
41 1 0.971709 0.578701 6.19723
44 1 3.70585 4.01791 1.80979
55 3 1.13703 0.948789 1.12899
56 3 -0.515049 2.41387 4.39565
58 3 -1.73558 4.52008 2.71756
59 3 0.0496017 3.45847 1.04043
243 2 3.61194 1.57521 3.21231
61 3 1.30895 3.2916 6.21556
62 3 -0.812203 5.34812 6.44103
74 3 5.87291 0.410019 7.37017
78 3 0.548237 5.4251 2.89604
81 3 5.47536 2.96943 5.94714
84 3 2.7581 5.97011 4.18831
85 3 4.74469 5.67672 5.92532
113 2 -1.54965 5.51749 4.0014
111 2 2.1741 1.86469 4.04239
112 2 -0.704158 5.84599 0.591903
24 4 4.64257 4.91019 0.49435
118 2 4.43261 0.733874 4.75732
5 4 0.467668 2.12006 0.212754
222 3 6.30926 1.47272 1.27519
223 2 6.25249 0.937965 4.00027
141 2 3.7638 2.91228 1.54849
142 2 2.69152 4.5326 1.70543
143 2 4.31133 4.19431 2.79125
220 4 6.80526 0.400067 2.33219
82 3 1.32379 5.43766 7.84352
135 2 0.529791 0.931526 7.19706
197 2 4.38483 0.674817 0.0661422
138 2 1.72174 0.526045 12.2345
8 4 1.76212 2.61143 10.9725
13 4 0.407718 4.92252 12.3227
229 2 3.55756 6.31791 13.2329
20 4 4.62721 2.79423 9.33828
23 4 6.96809 2.68823 11.2295
99 3 8.33786 1.11071 8.32404
226 4 3.35022 6.27301 14.9338
42 1 2.33833 1.47256 12.3467
57 3 0.380632 2.01805 10.4305
63 3 -0.244776 3.73903 13.2405
64 3 1.84669 4.39672 11.8126
65 3 -2.38843 6.52914 9.61285
66 3 -0.541838 5.50684 11.1961
73 3 3.1534 2.38959 9.91973
75 3 5.6162 3.07222 10.5566
76 3 6.95494 1.25537 11.9012
80 3 4.65241 4.03264 8.49468
29 4 3.70571 6.62451 11.0175
137 2 3.43669 1.33267 12.2612
114 2 0.890759 6.10766 13.4103
248 2 3.7372 3.96156 15.4325
124 2 3.37535 5.11793 11.6822
136 2 2.01559 2.10788 13.2542
179 4 7.33753 2.5767 15.77
183 1 5.83623 1.64569 15.1456
77 3 7.06425 4.06814 15.8366
60 3 -0.411102 3.49205 8.40343
196 2 5.12771 2.52584 14.9174
117 2 5.16197 1.49 8.38122
227 3 4.72362 5.78464 15.5541
195 2 6.0481 0.925039 14.2914
245 1 3.00422 3.21119 15.0628
246 2 2.43436 3.55493 14.1387
247 2 3.50457 2.13002 14.901
262 3 0.364598 1.92245 15.3754
228 2 2.26722 5.02895 15.2794
266 2 -1.84578 5.164 15.8799
149 2 2.26857 9.1946 7.74408
3 3 -5.97682 11.4344 0.92128
268 2 -4.79834 8.04023 0.376345
16 4 -3.317 8.18113 6.68801
17 4 -4.76969 9.95873 4.75513
154 2 0.984798 9.56764 7.40196
161 2 -1.18103 10.0526 0.269279
31 4 -2.17969 10.3181 3.06329
33 4 -0.0751636 11.0061 5.5341
48 1 -1.43847 8.97516 1.97632
49 1 0.106034 9.52836 6.68769
122 2 3.53267 7.95718 5.85314
68 3 -2.10956 7.52347 5.73167
28 4 4.03904 6.66027 4.90082
70 3 -4.58181 8.78502 5.80856
79 3 0.368706 7.25918 4.80613
87 3 1.71095 7.71687 2.31779
30 4 2.26804 8.25257 0.928859
89 3 -2.33433 11.8225 2.06656
90 3 -3.59419 10.0351 3.6935
93 3 -0.933991 10.7025 4.3199
94 3 -0.420121 12.3079 6.363
115 2 -4.69394 11.3456 5.65336
147 2 1.99445 7.70458 6.50523
151 2 -0.221396 9.38472 1.54332
152 2 -2.25406 8.8821 1.21215
153 2 -1.39514 8.11586 2.72868
272 2 0.555092 10.276 0.334311
155 2 0.158733 8.62417 5.8465
156 2 -0.952762 9.50689 7.24184
46 1 2.48326 8.06013 7.47571
148 2 3.60069 7.78185 7.54135
271 2 1.51323 10.3246 1.98657
19 4 -1.13561 12.8219 7.72627
1 4 -6.72039 12.5888 2.04898
69 3 -6.16957 9.92282 4.00622
91 3 -2.59162 9.45089 7.82009
265 2 -4.4428 12.6763 2.63654
47 1 1.53786 10.0303 0.889911
252 2 -5.64403 9.0644 1.80629
244 2 -5.64676 12.9054 4.18333
25 4 1.39376 6.54935 3.61456
251 1 -5.66138 8.72751 0.689969
133 2 -6.48377 12.9992 6.28341
159 2 1.33596 10.7554 13.3523
18 4 -2.23468 8.20443 12.8027
22 4 -0.72536 12.755 11.9942
32 4 -2.16339 10.421 8.97513
35 4 -1.49883 10.7068 14.2119
43 1 -5.94473 11.1923 14.1677
15 4 -4.24873 10.9071 15.9356
157 2 0.91892 9.15792 12.4226
51 1 0.0270711 11.1188 15.3405
162 2 -0.2126 12.1977 15.5593
72 3 -1.52592 8.30223 11.4292
83 3 0.0674035 7.33087 9.30313
158 2 1.89462 10.5148 11.5739
92 3 -0.955798 11.3651 8.9508
95 3 3.50833 7.80567 12.0581
96 3 -1.2327 9.08925 13.8612
97 3 -1.41499 11.6318 12.8109
98 3 -2.8626 10.8519 15.1156
116 2 -3.72496 8.86694 12.7458
120 2 -0.7118 12.103 10.4187
126 2 -1.56625 9.40533 10.1766
127 2 -3.5356 11.1853 9.47775
128 2 2.51927 9.25189 14.2379
140 2 -6.1741 12.0576 14.9455
50 1 1.68891 10.0035 12.6091
139 2 -5.14253 11.4964 13.4232
160 2 0.967665 10.9582 14.7286
88 3 3.09916 7.80479 15.6221
187 3 0.806482 12.909 12.4945
27 4 1.6168 6.79413 8.67054
71 3 -2.70505 6.80287 13.4758
14 4 -0.972564 6.71623 10.3425
86 3 2.69719 6.77564 9.79324
235 2 11.42 1.4577 3.10554
37 4 13.0385 1.96974 5.72219
230 4 13.7082 0.197552 2.45872
39 4 11.3295 3.93211 7.58946
45 1 7.1358 4.85936 7.03333
54 1 10.4202 5.24548 6.66061
101 3 13.9123 3.11263 4.78181
102 3 13.8432 1.10518 6.7348
221 1 8.68205 0.259341 1.95736
4 4 14.9635 2.80804 3.57123
106 3 12.0602 2.92316 6.5626
232 3 14.3925 1.58157 2.65044
129 2 12.1839 0.8933 4.69625
130 2 7.68715 5.91273 3.07248
169 2 10.7953 6.25645 7.00033
250 2 11.5058 4.82325 0.507261
146 2 7.73028 3.97277 6.67848
231 1 11.7366 0.396546 2.84689
145 2 7.22972 5.73931 6.34932
170 2 9.23356 5.15672 6.78823
171 2 10.7713 5.0172 5.59456
234 2 11.5037 0.0932524 1.75206
224 2 8.73759 1.19326 1.2714
249 1 12.3628 5.44491 0.0239366
103 3 5.57678 6.34505 1.24297
225 2 9.00694 0.46828 3.041
273 2 9.37393 0.121567 0.0409424
207 4 14.5557 0.222033 7.75237
11 4 13.0398 6.27677 8.97895
36 4 9.1912 2.07413 9.20719
52 1 10.5022 0.824795 9.96944
188 3 8.74402 2.01182 14.6576
100 3 8.37853 2.90056 10.3895
107 3 12.5884 4.71835 8.87444
110 2 14.7291 2.96031 10.2949
204 2 7.9849 6.20945 10.7137
202 2 14.0253 3.63861 11.9081
163 2 11.4535 1.46368 10.0179
6 4 16.0315 2.30067 9.37429
165 2 10.1266 0.455379 10.9928
172 4 16.2171 2.50744 14.1913
173 1 14.6411 1.48832 13.5787
174 2 14.5964 2.7733 14.9585
175 2 15.719 0.828914 13.1187
176 2 14.0959 2.03249 12.6791
144 2 7.28881 5.10506 8.14687
178 4 13.5717 5.6007 14.3863
180 4 9.93424 1.44883 13.8322
181 4 11.8641 3.82276 12.6931
205 2 9.29117 5.08852 9.42519
185 1 13.0862 3.2049 11.3321
186 1 8.84309 6.27684 9.99764
189 3 10.8231 2.64626 13.2283
190 3 12.8356 4.34571 13.846
192 3 10.9827 5.19682 11.9574
263 3 15.4591 1.00842 8.6759
199 2 11.9842 1.01605 14.8128
200 2 12.9229 3.78523 10.2839
201 2 12.9513 2.0738 11.4168
182 4 10.5921 6.25666 10.807
105 3 10.144 3.09681 8.32524
177 2 13.947 0.748763 14.1335
123 2 5.27425 6.3418 10.5606
184 1 10.9931 0.518213 14.9637
121 2 7.00242 3.86014 12.4876
237 1 7.22071 10.1791 0.0756026
256 2 1.31469 11.2738 3.79024
167 2 9.05707 7.41726 2.38626
53 1 8.11276 7.40501 2.94133
104 3 5.04664 7.25676 3.85161
233 2 2.72636 12.5205 3.62419
125 2 3.96157 8.16502 1.11147
150 2 2.45532 10.4664 0.360704
166 2 6.82836 8.54316 2.0737
168 2 8.33468 7.80649 3.86983
206 4 9.18807 10.3926 3.66099
215 2 6.93882 7.96584 6.87726
208 4 7.60269 10.2398 6.4366
209 1 6.25111 8.85906 6.51178
255 2 2.24613 12.2049 5.24619
211 3 8.15164 10.3519 4.97753
212 3 6.75652 11.7796 7.14293
213 2 8.56613 9.27742 2.49973
254 1 1.77297 11.2353 4.95497
216 2 5.8883 8.75728 5.40645
217 2 5.42675 9.24387 7.20793
219 2 9.79184 9.10662 7.02271
253 2 10.238 8.33721 0.2707
270 2 0.579368 12.2012 1.55158
238 3 5.47423 12.2693 1.00897
240 2 7.92585 10.27 0.942034
239 2 6.3854 9.36334 0.31222
257 2 2.40988 10.3596 5.11208
258 1 5.85157 11.836 3.89103
259 2 6.51293 11.1237 3.47107
260 2 4.81447 11.4777 4.22537
261 2 6.27427 12.5359 4.61252
38 4 6.11122 7.00313 2.56063
210 1 9.03478 9.62526 7.65588
134 2 8.60577 12.7769 5.60757
2 3 9.09567 11.8641 3.0437
267 2 12.4258 6.61898 0.273766
67 3 12.8722 6.88688 7.51401
198 2 2.46101 12.3083 14.5684
40 4 5.86271 11.2766 13.0529
108 3 4.64564 10.2867 12.9053
109 3 6.39772 11.5466 14.4785
214 2 4.85018 12.4823 8.76916
132 2 7.31942 10.799 12.3017
236 4 7.18309 11.9893 15.774
34 4 3.4429 9.27307 12.7385
131 2 5.53602 12.754 12.4738
193 2 11.0825 9.89394 14.9136
218 2 9.44805 10.5542 8.13625
194 2 9.49592 7.47183 11.4225
241 2 8.9497 10.2819 15.2272
191 3 11.7312 7.02597 10.0829
264 2 8.81655 12.3924 15.4167
274 2 8.55454 8.97193 8.39053
164 2 1.9321 12.8339 9.19271
269 2 9.9436 11.0331 13.6635
203 2 8.60182 7.10564 9.27015
ITEM: TIMESTEP
100
ITEM: NUMBER OF ATOMS
274
ITEM: BOX BOUNDS xy xz yz pp pp pp
-8.5082199999999997e+00 1.8013900000000000e+01 -8.5082199999999997e+00
0.0000000000000000e+00 1.3273200000000001e+01 1.1950000000000001e+00
0.0000000000000000e+00 1.6075500000000002e+01 4.3120000000000003e-01
ITEM: ATOMS id type x y z
119 2 7.37627 1.22355 5.30958
12 4 -1.13098 6.39789 5.2773
7 4 0.900799 2.22799 5.15585
9 4 -0.551515 4.80714 1.91697
10 4 0.297965 4.47952 7.14248
242 1 3.2827 0.588998 3.18405
21 4 5.70742 1.36011 5.80124
26 4 5.29074 4.47543 6.89207
41 1 1.16443 0.596205 6.10974
44 1 3.67615 3.84772 1.82556
55 3 1.16451 1.08202 1.07025
56 3 -0.382566 2.29307 4.21125
58 3 -1.94148 4.54246 2.77063
59 3 -0.143365 3.50524 1.08611
243 2 3.5011 1.75949 3.02641
61 3 1.02267 3.52995 6.06289
62 3 -0.912755 5.33818 6.42772
74 3 5.6503 0.369867 7.53306
78 3 0.589912 5.22108 2.92906
81 3 5.35666 2.85323 6.0991
84 3 2.75386 6.16282 4.25097
85 3 4.57452 5.58027 6.05763
113 2 -1.79585 5.48083 3.99157
111 2 2.38718 2.00267 4.17941
112 2 -0.732203 6.12572 0.846293
24 4 4.68151 4.81611 0.505872
118 2 4.51292 0.63597 4.71388
5 4 0.347512 2.16944 0.207223
222 3 6.24859 1.38116 1.21217
223 2 6.22906 0.813925 3.98133
141 2 4.08704 2.76057 1.76926
142 2 2.62877 3.92676 1.45502
143 2 3.92391 4.56521 2.75881
220 4 6.71033 0.323746 2.34346
82 3 1.38406 5.48076 7.91663
135 2 0.665563 0.968549 7.10216
244 2 2.77593 0.267215 4.2051
133 2 2.27863 0.354193 6.27424
25 4 1.36747 6.44226 3.65131
138 2 1.10441 0.754749 12.3396
8 4 1.95257 2.59312 10.875
13 4 0.50636 4.80824 12.2585
229 2 3.50332 6.5244 13.4424
20 4 4.70861 2.99269 9.35833
23 4 7.01546 2.70914 11.3464
99 3 8.1727 1.1612 8.32687
226 4 3.45016 6.32121 15.0673
42 1 2.08595 1.28997 12.3048
57 3 0.501986 2.33776 10.267
63 3 -0.272602 3.70258 13.1108
64 3 1.99409 4.23184 11.7742
65 3 -2.30336 6.3413 9.56212
66 3 -0.36707 5.60795 11.2675
73 3 3.27832 2.55414 9.86209
75 3 5.64328 3.09688 10.6177
76 3 6.96602 1.2394 11.8883
80 3 4.79314 4.22444 8.38405
29 4 3.78684 6.57434 11.1241
137 2 2.93099 0.654612 11.9898
114 2 1.11025 6.02395 13.334
248 2 3.54119 3.72832 15.6842
124 2 3.28063 5.3363 12.0683
136 2 2.2832 1.97712 13.2296
179 4 7.24725 2.39413 15.7483
183 1 5.85805 1.31862 15.084
77 3 6.71136 4.13174 15.8147
60 3 -0.419783 3.54893 8.34763
196 2 4.88209 1.92877 15.2537
117 2 5.2144 1.57903 8.40919
227 3 4.83392 5.93415 15.5951
195 2 6.05551 1.15431 13.9621
245 1 2.88644 3.13806 15.0109
246 2 2.3803 3.66024 14.1501
247 2 3.38927 2.19102 14.7036
262 3 0.35413 2.09759 15.1345
228 2 2.36309 5.04444 15.1806
123 2 5.34834 6.08314 10.8555
149 2 2.09773 9.21176 7.44581
3 3 -5.98589 11.5684 0.927041
268 2 -4.27611 8.35523 0.17173
16 4 -3.33477 8.16502 6.5689
17 4 -4.6963 9.94407 4.65862
154 2 0.686379 9.57444 7.51003
161 2 -1.14549 10.1699 0.199627
31 4 -2.10079 10.2366 3.07124
33 4 0.0501298 10.9457 5.47355
48 1 -1.42693 8.9528 1.78177
49 1 -0.13312 9.46116 6.65413
251 1 -5.29377 8.61679 0.69159
68 3 -2.12087 7.52239 5.66341
28 4 4.08927 6.6369 4.9937
70 3 -4.57282 8.8341 5.82019
79 3 0.372495 7.10189 4.82447
87 3 1.77005 7.61508 2.41435
30 4 2.22804 8.07758 0.975848
89 3 -2.20077 11.6461 2.02576
90 3 -3.54277 9.83413 3.58805
93 3 -0.875314 10.5673 4.23326
94 3 -0.453174 12.2561 6.23295
115 2 -4.50456 11.4849 5.41962
147 2 1.94375 7.55825 6.56151
151 2 -0.260435 9.27192 1.44862
152 2 -2.23031 8.9502 0.938166
153 2 -1.45459 8.05808 2.5508
272 2 0.615393 10.2079 0.193073
155 2 0.137835 8.48495 6.03252
156 2 -1.21325 9.53656 7.04733
46 1 2.39679 8.11106 7.41935
148 2 3.56163 7.98834 7.62611
271 2 1.54287 10.1685 1.84781
19 4 -1.22655 12.7625 7.75076
1 4 -6.6499 12.6637 1.94834
69 3 -6.12295 9.98772 3.97123
91 3 -2.72403 9.55253 7.74879
265 2 -4.47478 12.6215 2.70011
47 1 1.56805 9.87715 0.744778
252 2 -5.13201 9.04507 1.73744
67 3 -3.8768 6.99824 7.54657
159 2 1.22918 10.9385 13.1471
18 4 -2.23088 8.22778 12.8436
22 4 -0.689033 12.7528 12.0156
32 4 -2.25395 10.4609 8.97976
35 4 -1.45526 10.8405 14.2522
43 1 -5.72027 11.0437 14.0124
15 4 -4.23341 10.8057 15.9169
157 2 0.802349 9.32969 12.2418
51 1 0.113285 11.2763 15.2522
162 2 -0.0880964 12.3608 15.3819
72 3 -1.32972 7.99897 11.4767
83 3 0.46899 7.49669 9.46554
158 2 2.03103 10.5823 11.3325
92 3 -0.96251 11.3264 9.04014
95 3 3.5658 7.96312 11.8781
96 3 -1.36741 9.01372 13.8521
97 3 -1.39611 11.622 12.7933
98 3 -2.8637 11.0101 15.1754
116 2 -3.40942 9.23158 12.2919
120 2 -0.54625 12.0484 10.4664
126 2 -2.26197 9.56413 10.4094
127 2 -3.48752 11.2562 9.77202
128 2 2.1361 9.15336 14.0669
140 2 -5.97078 11.9482 14.5562
50 1 1.61371 10.1011 12.4154
139 2 -4.7047 11.164 13.5414
160 2 1.06424 11.1126 14.587
88 3 2.67292 7.66533 15.7028
187 3 0.764684 13.0454 12.6017
27 4 1.71004 6.86575 8.7872
71 3 -2.80702 6.94151 13.5631
14 4 -0.91232 6.81786 10.4696
86 3 2.95485 6.69042 9.84891
34 4 3.2899 9.28888 12.7124
197 2 -2.53617 13.2416 15.8092
235 2 11.4833 1.48114 2.85131
37 4 13.0112 2.05753 5.76858
230 4 13.7057 0.214118 2.43737
39 4 11.2758 3.97976 7.4864
45 1 7.09331 5.21249 6.99224
54 1 10.3736 5.36792 6.54393
101 3 14.0132 3.15337 4.97858
102 3 13.8294 1.03986 6.80671
221 1 8.60657 0.381898 2.18851
4 4 14.9916 2.81411 3.71986
106 3 11.8938 3.00426 6.46623
232 3 14.3519 1.64479 2.768
129 2 12.1629 1.14277 4.57172
130 2 7.88132 5.80266 2.96177
169 2 10.8829 6.33942 6.9126
250 2 11.3582 4.74276 0.324438
146 2 7.70132 4.41942 6.47341
231 1 11.816 0.432034 2.77699
145 2 7.05073 6.22142 6.46406
170 2 9.22531 5.38804 6.64257
171 2 10.7692 5.09062 5.48718
225 2 8.67317 0.713271 3.37597
224 2 8.91895 1.2086 1.51742
273 2 9.16926 0.220374 0.232506
103 3 5.61527 6.09639 1.42623
207 4 14.6753 0.240883 7.85169
234 2 11.4949 0.0956931 1.68477
11 4 13.0107 6.1267 8.87855
36 4 9.18956 2.17647 9.10845
52 1 10.5035 1.08751 9.97451
188 3 8.54866 2.00275 14.8557
100 3 8.30959 2.81522 10.3737
107 3 12.6693 4.57677 8.66394
110 2 14.7589 3.05101 10.4388
204 2 8.05797 5.82566 10.869
202 2 13.9447 3.62003 11.8404
163 2 11.5689 1.46593 9.95526
6 4 16.0029 2.46527 9.37744
165 2 10.1321 0.829724 11.0293
172 4 16.1316 2.42078 13.9606
173 1 14.3359 1.49557 13.598
174 2 14.541 2.76229 14.8335
175 2 15.5527 0.790718 12.9576
176 2 13.7471 2.03502 12.6906
144 2 7.37046 5.32937 8.10772
178 4 13.7203 5.57579 14.3237
180 4 9.8486 1.46966 13.8958
181 4 11.7535 3.89174 12.6545
205 2 9.30406 5.04763 9.59569
185 1 12.9645 3.23915 11.2814
186 1 8.93284 6.00473 10.2097
189 3 10.8293 2.5115 13.1178
190 3 12.7689 4.47812 13.7711
192 3 10.9461 5.04317 11.9648
263 3 15.5262 1.16229 8.77029
199 2 11.8292 1.25378 15.1459
200 2 12.8218 3.78152 10.1766
201 2 12.9016 2.10861 11.1469
182 4 10.7451 6.21917 10.9261
105 3 10.1322 3.26298 8.35225
177 2 13.6906 0.753933 14.1606
266 2 14.8038 5.05621 16.0656
184 1 10.8732 0.630492 15.1875
121 2 7.25421 3.71982 12.6815
249 1 13.484 5.80147 15.9795
237 1 7.34781 10.1397 0.128042
256 2 1.55902 11.3701 3.77753
167 2 9.03571 7.55356 2.34187
53 1 8.05477 7.40562 2.87286
104 3 5.28264 7.04295 4.04717
233 2 2.78188 12.5723 3.61349
125 2 3.88424 7.9535 0.89701
150 2 2.50677 10.3304 0.228047
166 2 6.927 8.55598 2.06298
168 2 8.08898 7.89115 4.0172
206 4 9.21283 10.4323 3.72113
215 2 6.19523 8.297 7.54723
208 4 7.57105 10.3552 6.63775
209 1 6.10265 9.02003 6.62097
255 2 2.19443 12.2322 5.38862
211 3 8.30905 10.2761 4.94736
212 3 6.91014 11.7224 7.25612
213 2 8.51527 9.34974 2.59839
254 1 1.84327 11.2587 4.91583
216 2 6.20968 8.5799 5.6018
217 2 5.2822 9.85704 6.76979
219 2 9.98616 9.42877 7.16113
253 2 10.7488 7.88074 0.7195
270 2 0.625014 12.2506 1.97023
238 3 5.40044 12.1916 0.947228
240 2 7.93318 10.3616 1.05655
239 2 6.52855 9.25733 0.317525
257 2 2.6106 10.4195 5.0512
258 1 5.82443 11.8311 3.8564
259 2 6.50052 11.1269 3.30587
260 2 4.94516 11.2953 4.30782
261 2 6.40046 12.6449 4.49298
38 4 6.21035 6.8993 2.62355
210 1 9.07472 9.81166 7.69595
134 2 8.90307 12.6888 5.57422
2 3 9.15822 11.8417 2.91769
267 2 12.2431 6.47165 0.274408
122 2 3.72936 8.03649 5.95555
198 2 2.49602 12.4482 14.7468
40 4 5.62877 11.3774 12.9738
108 3 4.50018 10.3438 12.8923
109 3 6.37456 11.51 14.3787
214 2 5.05501 12.4787 8.8594
132 2 6.72275 10.9919 11.8668
236 4 7.21772 11.823 15.6889
203 2 8.80918 6.86588 9.54546
131 2 5.34911 12.9386 12.2914
193 2 11.0695 9.75768 14.9745
218 2 9.31668 10.6703 8.42826
194 2 9.58645 7.38941 11.4937
241 2 9.2196 10.3623 15.2725
191 3 11.733 6.82353 9.92932
264 2 8.89861 12.2762 15.3169
274 2 8.41834 8.90831 8.19709
164 2 1.93998 13.0173 9.30781
269 2 10.2764 10.9168 13.1966
ITEM: TIMESTEP
200
ITEM: NUMBER OF ATOMS
274
ITEM: BOX BOUNDS xy xz yz pp pp pp
-8.5082199999999997e+00 1.8013900000000000e+01 -8.5082199999999997e+00
0.0000000000000000e+00 1.3273200000000001e+01 1.1950000000000001e+00
0.0000000000000000e+00 1.6075500000000002e+01 4.3120000000000003e-01
ITEM: ATOMS id type x y z
119 2 7.29874 1.33483 5.37896
12 4 -1.21453 6.46527 5.29934
7 4 0.970868 2.3555 4.94355
9 4 -0.471906 4.70463 1.89345
10 4 0.235248 4.66031 7.21281
242 1 3.34403 0.583597 2.9495
21 4 5.66499 1.44461 5.73881
26 4 5.38619 4.52343 6.97758
41 1 0.961059 0.74116 5.87858
44 1 3.73941 3.8207 1.86664
55 3 0.973576 1.07758 1.1709
56 3 -0.349158 2.30197 4.1136
58 3 -1.78089 4.39502 2.89582
59 3 -0.147903 3.63525 0.743289
243 2 3.57754 1.73222 3.13299
61 3 1.09979 3.52016 6.02016
62 3 -0.781305 5.61486 6.49932
74 3 5.68025 0.360868 7.38331
78 3 0.804175 5.0706 2.68942
81 3 5.40499 2.98653 6.09143
84 3 2.76618 6.07354 4.25848
85 3 4.72361 5.7519 6.12647
113 2 -1.95195 5.45653 4.11297
111 2 2.43344 2.01566 3.95438
112 2 -0.967447 6.05447 1.02886
24 4 4.68265 4.81475 0.555267
118 2 4.39326 0.933254 4.57705
5 4 0.259124 2.134 0.142951
222 3 6.30757 1.31148 1.31963
223 2 6.26111 0.861339 4.04116
141 2 4.44811 2.86791 1.82698
142 2 2.64819 3.7444 1.56156
143 2 3.95293 4.4625 2.83418
220 4 6.80037 0.343553 2.42572
82 3 1.30243 5.51546 7.97247
135 2 0.205163 0.779941 6.67063
25 4 1.34522 6.44594 3.58414
133 2 1.95739 0.55105 6.24995
265 2 4.116 0.0706671 2.23892
138 2 1.28941 0.618788 11.7652
8 4 2.02521 2.66885 10.8731
13 4 0.466419 4.82968 12.4294
229 2 3.55967 6.37221 13.3884
20 4 4.77552 2.90546 9.42338
23 4 7.08709 2.7117 11.4876
99 3 8.08312 1.14626 8.4379
226 4 3.31224 6.24103 15.067
42 1 2.24928 1.17369 12.0631
57 3 0.628551 2.37632 10.115
63 3 -0.399575 3.62316 13.0083
64 3 1.96501 4.1919 12.0603
65 3 -2.21396 6.34722 9.56432
66 3 -0.101304 5.57293 11.1814
73 3 3.33702 2.46508 9.90823
75 3 5.75546 3.1848 10.6383
76 3 6.89615 1.18111 11.9103
80 3 4.89638 4.17264 8.49798
29 4 3.77033 6.61015 11.1074
137 2 3.23146 0.689741 11.6643
114 2 0.57761 5.92709 13.7178
248 2 3.43904 3.81844 15.4608
124 2 3.263 5.16084 11.787
136 2 2.31638 1.43752 13.1177
179 4 7.23247 2.32593 15.6965
183 1 5.77159 1.36754 14.999
77 3 6.63078 3.84851 15.7328
60 3 -0.646107 3.69508 8.14305
196 2 4.94601 2.11077 14.5715
117 2 5.27212 1.54623 8.40771
227 3 4.65961 5.82199 15.7871
195 2 6.27848 0.651173 14.2515
245 1 2.76944 2.9646 14.8921
246 2 2.175 3.33003 13.9952
247 2 3.34113 1.99966 14.7014
262 3 0.277553 2.12249 15.2379
228 2 2.22964 4.8839 14.8649
266 2 -1.92874 5.18882 16.0061
6 4 -0.754956 2.51665 9.24751
197 2 5.44742 0.798148 15.9501
149 2 2.13986 9.2385 7.84323
3 3 -6.05937 11.6356 0.901943
268 2 -4.00152 8.43609 0.582457
16 4 -3.34458 8.17729 6.59227
17 4 -4.64521 9.87334 4.58841
154 2 0.896806 9.65971 7.37215
161 2 -1.11995 9.96384 0.132783
31 4 -2.05358 10.1051 2.84158
33 4 0.0205789 10.9275 5.31052
48 1 -1.21676 8.73578 1.78177
49 1 0.0774015 9.49923 6.58158
251 1 -5.04478 8.79734 0.834125
68 3 -2.116 7.66198 5.71286
28 4 4.03211 6.6836 4.96796
70 3 -4.51801 8.76428 5.75756
79 3 0.179441 7.02932 4.73402
87 3 1.52645 7.61381 2.49759
30 4 2.10459 8.13491 1.08604
89 3 -2.01993 11.5704 2.07866
90 3 -3.50415 9.69165 3.48763
93 3 -0.845607 10.4973 4.02972
94 3 -0.572098 12.1312 6.26921
115 2 -4.25276 11.401 5.33261
147 2 2.08371 7.7854 6.65923
151 2 -0.196776 9.21784 1.48586
152 2 -1.93024 8.38009 0.98673
153 2 -1.04828 7.94235 2.56715
272 2 0.563161 10.171 0.221174
155 2 0.299952 8.5488 5.89498
156 2 -0.952576 9.48798 7.09603
46 1 2.46067 8.16697 7.57279
148 2 3.53168 7.91854 7.75102
271 2 1.48214 10.2052 1.94741
19 4 -1.20908 12.6791 7.7285
1 4 -6.69472 12.6776 1.93232
69 3 -6.15344 10.0393 4.06829
91 3 -2.628 9.52699 7.77074
122 2 3.59306 8.06394 5.90601
47 1 1.55088 9.92224 0.84839
252 2 -5.09002 9.3068 1.88411
67 3 -3.82302 6.97799 7.53098
134 2 -7.82564 12.7588 5.13834
244 2 -5.35604 12.8686 3.98373
2 3 -7.62793 11.9573 3.03531
159 2 1.06564 10.7646 13.2829
18 4 -2.14772 8.21718 12.853
22 4 -0.692847 12.7509 12.0191
32 4 -2.33186 10.4014 8.96326
35 4 -1.4947 10.7239 14.2429
43 1 -5.6891 10.8307 13.965
15 4 -4.12679 10.854 15.9421
157 2 0.767317 9.03691 12.1989
51 1 0.0563477 11.1882 15.3406
162 2 -0.065389 12.2341 15.7155
72 3 -1.42174 7.95951 11.4715
83 3 0.159665 7.54641 9.45199
158 2 1.72432 10.5113 11.2514
92 3 -1.07318 11.2996 9.07209
95 3 3.61745 7.97025 11.9403
96 3 -1.2305 9.17988 13.9191
97 3 -1.42623 11.7012 12.9178
98 3 -2.85791 11.1585 15.1754
116 2 -3.72793 8.90938 12.6601
120 2 -0.596035 12.0499 10.5101
126 2 -2.45814 9.37113 10.3129
127 2 -3.695 11.1668 9.56408
128 2 2.22816 9.44829 14.0619
140 2 -6.14759 11.8238 14.3592
50 1 1.44589 9.96407 12.3857
139 2 -4.66255 10.974 13.4952
160 2 1.00701 11.029 14.6354
88 3 2.68325 7.54547 15.7472
187 3 0.777959 13.0779 12.5725
27 4 1.71122 6.80469 8.85648
71 3 -2.53563 6.86639 13.6034
14 4 -0.903313 6.83586 10.4011
34 4 3.23994 9.53851 12.6202
86 3 2.925 6.7239 9.8063
235 2 11.4483 1.59242 3.16503
37 4 13.0183 1.9979 5.82306
230 4 13.6062 0.104983 2.47138
39 4 11.2073 3.95764 7.43826
45 1 7.23352 5.06108 6.99679
54 1 10.4857 5.47875 6.57839
101 3 14.0561 2.90375 5.032
102 3 13.7473 1.09167 6.83671
221 1 8.68095 0.531417 2.33132
4 4 15.0051 2.67622 3.68079
106 3 11.7077 2.85742 6.3578
232 3 14.2422 1.55034 2.77305
129 2 12.1928 0.999782 4.65308
130 2 7.60909 5.59449 3.58085
169 2 10.942 6.36226 7.13664
250 2 11.4053 4.6758 0.204396
146 2 7.83975 4.2265 6.44043
231 1 11.6906 0.529887 2.8374
145 2 7.36369 6.10499 6.48124
170 2 9.22594 5.3446 6.69025
171 2 10.8986 5.2195 5.5079
225 2 8.88717 0.513404 3.49138
224 2 9.20637 1.41144 1.83476
273 2 9.18396 0.323319 0.351717
103 3 5.61314 5.7855 1.59895
207 4 14.6891 0.27062 7.88673
234 2 11.3807 0.322099 1.76968
11 4 13.1575 6.14743 8.96496
36 4 9.06744 2.2037 9.23752
52 1 10.3625 1.1074 10.0087
188 3 8.4616 2.03449 14.7161
100 3 8.28847 2.92742 10.4717
107 3 12.6545 4.59848 8.59106
110 2 14.6741 2.92287 10.2095
204 2 7.89392 5.86151 10.6197
202 2 14.0086 3.49024 11.6963
163 2 11.3698 1.56395 9.92473
249 1 13.4666 5.84603 16.048
165 2 10.0343 0.903764 11.1172
172 4 16.1224 2.44508 13.9672
173 1 14.1985 1.6285 13.6806
174 2 14.2547 2.63641 14.7651
175 2 15.6774 0.923851 13.0211
176 2 13.6909 2.12815 12.7206
121 2 7.29437 3.69519 12.8242
178 4 13.7372 5.62417 14.3357
180 4 9.82191 1.52111 13.9597
181 4 11.7719 3.78605 12.6014
205 2 9.09187 5.41356 9.2739
185 1 12.9943 3.22723 11.1808
186 1 8.82986 6.26886 10.0989
189 3 10.8245 2.60487 13.3349
190 3 12.9211 4.36126 13.7252
192 3 10.9096 5.0594 11.8329
263 3 15.6459 1.14743 8.65478
199 2 11.7816 1.39974 15.2097
200 2 12.7693 3.72794 10.098
201 2 12.6447 2.12865 11.2648
182 4 10.6648 6.13409 10.76
105 3 9.96757 3.44297 8.24282
177 2 13.5552 0.744136 14.0695
123 2 5.38671 6.3174 10.8631
184 1 10.7952 0.729017 15.2736
144 2 7.44318 5.07458 8.12047
191 3 11.9301 6.60852 9.97472
237 1 7.58004 10.2668 0.0204769
256 2 2.10953 10.8383 3.77295
167 2 8.80728 6.65597 2.32898
53 1 8.11396 7.31211 2.92107
104 3 5.18929 7.1701 3.94333
233 2 2.69437 12.5079 3.61418
125 2 3.86535 8.09728 1.0881
150 2 2.49535 10.3327 0.300389
166 2 7.24478 8.19265 1.93426
168 2 8.52917 7.76559 3.77163
206 4 9.16703 10.5015 3.77765
215 2 5.7755 8.88527 7.70996
208 4 7.54795 10.5133 6.62295
209 1 6.15308 9.13015 6.68683
255 2 1.69425 12.4029 4.93493
211 3 8.40631 10.5697 5.08866
212 3 6.89119 11.8731 7.16911
213 2 8.51071 9.26302 2.82968
254 1 1.88948 11.1881 4.86693
216 2 6.49449 8.22459 6.16313
217 2 5.40811 9.82859 6.07028
219 2 9.94465 9.93942 7.56482
253 2 11.0262 8.01039 0.595639
267 2 12.1707 6.50002 0.282738
238 3 5.46563 12.0755 1.05424
240 2 7.89777 10.3797 1.14338
210 1 8.8828 10.0294 7.95409
257 2 2.58922 10.7525 5.60925
258 1 5.86051 11.8131 3.79261
259 2 6.20115 10.9194 3.17137
260 2 4.85794 11.7427 4.37628
261 2 6.66213 12.3499 4.36221
38 4 6.2682 6.60894 2.85049
270 2 0.430903 12.3138 1.87417
198 2 2.43758 12.4767 14.8139
40 4 5.64658 11.5038 13.0287
108 3 4.36794 10.5919 12.725
109 3 6.36977 11.5358 14.4167
214 2 5.20506 12.4367 9.0395
132 2 6.70152 10.9819 11.9184
236 4 7.25911 11.7315 15.7142
203 2 8.72842 7.25909 9.50095
131 2 5.29381 13.0645 12.3536
193 2 11.3958 9.65768 15.0632
218 2 8.76677 10.7333 8.81112
194 2 9.68667 7.42071 11.3943
241 2 9.67611 10.7962 15.3454
269 2 10.444 10.3967 13.2529
264 2 8.79071 12.4184 15.208
274 2 8.39139 8.9953 8.1849
164 2 1.69637 13.0019 9.30171
239 2 8.20703 9.67057 15.8672
ITEM: TIMESTEP
300
ITEM: NUMBER OF ATOMS
274
ITEM: BOX BOUNDS xy xz yz pp pp pp
-8.5082199999999997e+00 1.8013900000000000e+01 -8.5082199999999997e+00
0.0000000000000000e+00 1.3273200000000001e+01 1.1950000000000001e+00
0.0000000000000000e+00 1.6075500000000002e+01 4.3120000000000003e-01
ITEM: ATOMS id type x y z
119 2 7.36655 1.50386 5.29985
12 4 -1.08846 6.45433 5.19671
7 4 0.851027 2.42338 5.00049
9 4 -0.398439 4.64831 1.8468
10 4 0.324213 4.55344 7.14816
242 1 3.15787 0.626312 3.16217
21 4 5.69331 1.49246 5.65405
26 4 5.42127 4.48624 6.8249
41 1 0.963192 0.831745 5.99547
44 1 3.69822 3.56375 2.03367
55 3 1.01026 1.02364 1.0891
56 3 -0.423673 2.41852 4.15564
58 3 -1.82668 4.44652 2.78982
59 3 -0.0914679 3.49381 0.838915
243 2 3.37563 1.81456 3.2555
61 3 1.03679 3.61708 6.03447
62 3 -0.713979 5.56621 6.38191
74 3 5.70684 0.464115 7.31802
78 3 0.853625 5.10447 2.68525
81 3 5.41168 3.04983 5.83758
84 3 2.80895 6.16418 4.36667
85 3 4.7477 5.7474 6.09562
113 2 -1.90249 5.44068 4.07567
111 2 2.26738 2.1387 3.95308
112 2 -0.749471 5.97368 0.898501
24 4 4.62065 4.52391 0.703593
118 2 4.41317 0.872015 4.70707
5 4 0.261833 2.09434 0.0888721
222 3 6.21847 1.33081 1.19576
223 2 6.33076 0.900161 3.88691
141 2 3.76917 2.49216 1.56966
142 2 2.60504 3.91574 2.09653
143 2 4.30206 3.80729 2.98641
220 4 6.87463 0.341879 2.23272
133 2 2.00197 0.47868 6.00649
135 2 0.592482 0.884956 7.03064
25 4 1.47007 6.44063 3.45013
244 2 2.7818 0.133888 4.18825
82 3 1.46467 5.38853 8.03501
6 4 -0.710894 2.51022 9.23478
8 4 1.97951 2.69668 10.9257
13 4 0.442341 4.85309 12.4147
229 2 3.45353 6.49145 13.3607
20 4 4.74636 2.97312 9.37702
23 4 7.05087 2.71141 11.4287
99 3 8.08306 1.19279 8.25354
226 4 3.32215 6.25022 15.0868
42 1 2.20659 1.0837 11.9349
57 3 0.593459 2.59824 10.1844
63 3 -0.500482 3.76588 13.1275
64 3 2.01481 4.17086 12.2293
65 3 -2.23734 6.12653 9.69174
66 3 -0.237113 5.61035 11.2658
73 3 3.34041 2.82711 10.0216
75 3 5.69616 3.12621 10.6582
76 3 6.99597 1.24324 12.0542
80 3 5.0024 4.17017 8.3948
138 2 1.53583 0.407635 11.3163
137 2 3.32322 0.85583 11.8322
114 2 0.911849 6.03698 13.4377
248 2 3.40033 3.95099 15.6536
124 2 3.13005 5.32195 12.0491
136 2 1.85334 1.16712 13.0216
179 4 7.18933 2.39205 15.7108
183 1 5.72055 1.41617 15.0249
77 3 6.79058 3.98201 15.8316
60 3 -0.583942 3.63552 8.14569
196 2 5.03921 2.03682 14.352
117 2 5.13757 1.5592 8.47954
227 3 4.72683 5.80713 15.8014
195 2 6.12777 0.612836 14.376
245 1 2.84828 3.10316 14.9414
246 2 2.65071 3.51468 13.9149
247 2 3.45788 2.07592 15.0203
262 3 0.1762 1.87892 15.241
228 2 2.22116 4.9657 15.1657
197 2 5.1878 1.05588 15.9693
149 2 2.15621 9.12271 7.49076
3 3 -6.08606 11.5713 0.882114
268 2 -4.12645 8.87386 1.239
16 4 -3.29261 8.17457 6.63671
17 4 -4.53233 9.91703 4.65238
154 2 0.709068 9.29588 7.47425
161 2 -1.18892 9.96537 0.1757
31 4 -2.04406 10.1384 2.987
33 4 -0.0440452 10.9044 5.52795
48 1 -1.31372 8.79094 1.86479
49 1 -0.00643512 9.32348 6.59245
251 1 -5.22673 8.94722 1.00354
68 3 -2.15993 7.58375 5.58197
28 4 4.07491 6.81085 5.04933
70 3 -4.51806 8.72852 5.81498
79 3 0.214789 6.97888 4.48285
87 3 1.70374 7.64634 2.3302
30 4 2.27834 8.03696 0.931599
89 3 -2.05742 11.6646 2.02468
90 3 -3.53602 9.68688 3.35171
93 3 -1.00683 10.4638 4.25764
94 3 -0.581723 12.1755 6.29408
115 2 -4.10407 11.383 5.42739
147 2 1.87509 7.64717 6.38505
151 2 -0.172418 9.13889 1.5138
152 2 -2.06593 8.68095 0.981838
153 2 -1.17809 7.91 2.54331
272 2 0.712904 10.1323 0.188104
155 2 0.137543 8.46466 5.88128
156 2 -1.02629 9.36479 7.05338
46 1 2.37551 8.0284 7.32468
148 2 3.44208 7.78322 7.57851
271 2 1.52681 10.1263 1.90414
19 4 -1.27127 12.8114 7.67354
1 4 -6.7923 12.7136 2.08721
69 3 -6.00644 10.0908 4.0245
91 3 -2.76037 9.56499 7.79832
67 3 -3.78637 6.94856 7.50969
47 1 1.63098 9.82927 0.854345
252 2 -5.86941 9.24924 1.86866
265 2 -4.51946 12.8669 2.64509
159 2 1.44851 11.111 13.3576
18 4 -2.14733 8.15536 12.9175
22 4 -0.613905 12.7662 12.0338
32 4 -2.23092 10.3418 9.00398
35 4 -1.39454 10.7996 14.2675
43 1 -5.58883 10.6545 14.0534
15 4 -4.29449 11.0115 15.9745
157 2 0.70761 9.36026 12.7968
51 1 0.113961 11.19 15.2815
162 2 0.0294259 12.3085 15.5548
72 3 -1.50409 8.1745 11.4383
83 3 0.217432 7.39053 9.25159
158 2 1.66375 10.4766 11.4178
92 3 -1.13834 11.4385 9.00067
95 3 3.60518 8.15943 11.9304
96 3 -1.22489 9.02173 13.9671
97 3 -1.36328 11.5818 12.9117
98 3 -2.8165 11.0201 15.224
116 2 -3.60965 8.99944 12.4931
120 2 -0.684917 12.1663 10.4729
126 2 -1.63581 9.26674 10.1658
127 2 -3.6835 10.8116 9.75663
128 2 2.36513 9.39969 14.1601