ITEM: TIMESTEP
0
ITEM: NUMBER OF ATOMS
274
ITEM: BOX BOUNDS xy xz yz pp pp pp
-8.3797999999999995e+00 1.8013900000000000e+01 -8.3797999999999995e+00
0.0000000000000000e+00 1.3273200000000001e+01 1.1950000000000001e+00
0.0000000000000000e+00 1.5914745000000002e+01 4.3120000000000003e-01
ITEM: ATOMS id type x y z
119 2 7.36786 1.23302 5.23181
12 4 -0.996022 6.46192 5.25608
7 4 0.911585 2.20187 5.12654
9 4 -0.331825 4.73166 1.81559
10 4 0.284129 4.42106 7.17728
242 1 3.24523 0.490568 3.13083
21 4 5.69452 1.43844 5.65052
26 4 5.36384 4.37513 6.74123
41 1 0.975833 0.578701 6.13526
44 1 3.74554 4.01791 1.79169
55 3 1.14621 0.948789 1.1177
56 3 -0.492089 2.41387 4.35169
58 3 -1.69111 4.52008 2.69038
59 3 0.0839074 3.45847 1.03002
243 2 3.62683 1.57521 3.18019
61 3 1.3402 3.2916 6.1534
62 3 -0.76045 5.34812 6.37662
74 3 5.87503 0.410019 7.29646
78 3 0.601711 5.4251 2.86708
81 3 5.50346 2.96943 5.88766
84 3 2.81668 5.97011 4.14642
85 3 4.79986 5.67672 5.86606
113 2 -1.49554 5.51749 3.96139
111 2 2.19167 1.86469 4.00196
112 2 -0.645857 5.84599 0.585984
24 4 4.69154 4.91019 0.489406
118 2 4.43867 0.733874 4.70975
5 4 0.488812 2.12006 0.210626
222 3 6.32365 1.47272 1.26244
223 2 6.2608 0.937965 3.96027
141 2 3.79251 2.91228 1.53301
142 2 2.73639 4.5326 1.68837
143 2 4.35252 4.19431 2.76334
220 4 6.80863 0.400067 2.30887
82 3 1.37606 5.43766 7.76509
135 2 0.537175 0.931526 7.12509
197 2 4.39156 0.674817 0.0654807
138 2 1.72371 0.526045 12.1122
8 4 1.78529 2.61143 10.8628
13 4 0.453637 4.92252 12.1995
229 2 3.61719 6.31791 13.1005
20 4 4.65265 2.79423 9.24489
23 4 6.99196 2.68823 11.1172
99 3 8.34674 1.11071 8.2408
226 4 3.40894 6.27301 14.7845
42 1 2.34974 1.47256 12.2233
57 3 0.398015 2.01805 10.3262
63 3 -0.210938 3.73903 13.1081
64 3 1.88749 4.39672 11.6945
65 3 -2.32572 6.52914 9.51673
66 3 -0.489772 5.50684 11.0842
73 3 3.17463 2.38959 9.82053
75 3 5.64409 3.07222 10.451
76 3 6.96431 1.25537 11.7821
80 3 4.69046 4.03264 8.40973
29 4 3.769 6.62451 10.9073
137 2 3.44673 1.33267 12.1386
114 2 0.948239 6.10766 13.2762
248 2 3.77267 3.96156 15.2782
124 2 3.4234 5.11793 11.5654
136 2 2.03312 2.10788 13.1216
179 4 7.35907 2.5767 15.6123
183 1 5.84863 1.64569 14.9941
77 3 7.10068 4.06814 15.6782
60 3 -0.378435 3.49205 8.3194
196 2 5.14896 2.52584 14.7682
117 2 5.17463 1.49 8.2974
227 3 4.7773 5.78464 15.3986
195 2 6.05351 0.925039 14.1485
245 1 3.03229 3.21119 14.9121
246 2 2.46611 3.55493 13.9973
247 2 3.52187 2.13002 14.752
262 3 0.379699 1.92245 15.2217
228 2 2.31341 5.02895 15.1266
266 2 -1.7984 5.164 15.7211
149 2 2.35844 9.1946 7.66664
3 3 -5.86273 11.4344 0.912067
268 2 -4.71804 8.04023 0.372582
16 4 -3.23698 8.18113 6.62113
17 4 -4.67138 9.95873 4.70758
154 2 1.07849 9.56764 7.32794
161 2 -1.08057 10.0526 0.266586
31 4 -2.07733 10.3181 3.03265
33 4 0.0334129 11.0061 5.47875
48 1 -1.34925 8.97516 1.95656
49 1 0.199523 9.52836 6.62081
122 2 3.61067 7.95718 5.7946
68 3 -2.03586 7.52347 5.67435
28 4 4.10433 6.66027 4.85181
70 3 -4.49552 8.78502 5.75048
79 3 0.440008 7.25918 4.75807
87 3 1.7875 7.71687 2.29461
30 4 2.35031 8.25257 0.919571
89 3 -2.21666 11.8225 2.0459
90 3 -3.49483 10.0351 3.65656
93 3 -0.828124 10.7025 4.2767
94 3 -0.298749 12.3079 6.29937
115 2 -4.582 11.3456 5.59682
147 2 2.06975 7.70458 6.44018
151 2 -0.127962 9.38472 1.52789
152 2 -2.16556 8.8821 1.20003
153 2 -1.31472 8.11586 2.70139
272 2 0.657763 10.276 0.330967
155 2 0.243406 8.62417 5.78804
156 2 -0.859635 9.50689 7.16942
46 1 2.56186 8.06013 7.40095
148 2 3.67649 7.78185 7.46593
271 2 1.61594 10.3246 1.96671
19 4 -1.00946 12.8219 7.64901
1 4 -6.59505 12.5888 2.02849
69 3 -6.07141 9.92282 3.96616
91 3 -2.49921 9.45089 7.74189
265 2 -4.31674 12.6763 2.61017
47 1 1.63793 10.0303 0.881012
252 2 -5.55387 9.0644 1.78822
244 2 -5.51883 12.9054 4.14149
25 4 1.45828 6.54935 3.57842
251 1 -5.57429 8.72751 0.68307
133 2 -6.35546 12.9992 6.22058
159 2 1.43993 10.7554 13.2188
18 4 -2.15607 8.20443 12.6746
22 4 -0.601027 12.755 11.8743
32 4 -2.06159 10.421 8.88538
35 4 -1.39557 10.7068 14.0698
43 1 -5.83661 11.1923 14.026
15 4 -4.14393 10.9071 15.7763
157 2 1.00717 9.15792 12.2983
51 1 0.134144 11.1188 15.1871
162 2 -0.0947966 12.1977 15.4037
72 3 -1.44596 8.30223 11.3149
83 3 0.138217 7.33087 9.2101
158 2 1.99667 10.5148 11.4582
92 3 -0.844548 11.3651 8.86129
95 3 3.58315 7.80567 11.9375
96 3 -1.14553 9.08925 13.7226
97 3 -1.30211 11.6318 12.6828
98 3 -2.75814 10.8519 14.9644
116 2 -3.63971 8.86694 12.6184
120 2 -0.593565 12.103 10.3145
126 2 -1.47492 9.40533 10.0749
127 2 -3.42629 11.1853 9.38297
128 2 2.60797 9.25189 14.0956
140 2 -6.05753 12.0576 14.796
50 1 1.78556 10.0035 12.483
139 2 -5.03117 11.4964 13.289
160 2 1.0733 10.9582 14.5813
88 3 3.17302 7.80479 15.4659
187 3 0.93222 12.909 12.3695
27 4 1.68242 6.79413 8.58383
71 3 -2.64064 6.80287 13.341
14 4 -0.908176 6.71623 10.2391
86 3 2.76232 6.77564 9.69531
235 2 11.4337 1.4577 3.07448
37 4 13.0566 1.96974 5.66497
230 4 13.7095 0.197552 2.43413
39 4 11.3668 3.93211 7.51357
45 1 7.18251 4.85936 6.963
54 1 10.4709 5.24548 6.594
101 3 13.9421 3.11263 4.73399
102 3 13.8525 1.10518 6.66745
221 1 8.68411 0.259341 1.93778
4 4 14.9906 2.80804 3.53552
106 3 12.0877 2.92316 6.49697
232 3 14.4076 1.58157 2.62394
129 2 12.1916 0.8933 4.64929
130 2 7.74545 5.91273 3.04176
169 2 10.856 6.25645 6.93032
250 2 11.5539 4.82325 0.502189
146 2 7.76822 3.97277 6.6117
231 1 11.7398 0.396546 2.81842
145 2 7.28541 5.73931 6.28582
170 2 9.28331 5.15672 6.72035
171 2 10.82 5.0172 5.53861
234 2 11.5042 0.0932524 1.73454
224 2 8.74918 1.19326 1.25869
249 1 12.4172 5.44491 0.0236973
103 3 5.6399 6.34505 1.23054
225 2 9.01081 0.46828 3.01059
273 2 9.37513 0.121567 0.040533
207 4 14.5558 0.222033 7.67485
11 4 13.1002 6.27677 8.88916
36 4 9.20947 2.07413 9.11512
52 1 10.5078 0.824795 9.86975
188 3 8.7602 2.01182 14.5111
100 3 8.40475 2.90056 10.2856
107 3 12.6332 4.71835 8.7857
110 2 14.756 2.96031 10.192
204 2 8.04412 6.20945 10.6066
202 2 14.0585 3.63861 11.789
163 2 11.4654 1.46368 9.91772
6 4 16.052 2.30067 9.28054
165 2 10.1282 0.455379 10.8828
172 4 16.2384 2.50744 14.0494
173 1 14.6523 1.48832 13.4429
174 2 14.6201 2.7733 14.8089
175 2 15.7238 0.828914 12.9875
176 2 14.1128 2.03249 12.5523
144 2 7.33768 5.10506 8.0654
178 4 13.6239 5.6007 14.2424
180 4 9.94502 1.44883 13.6939
181 4 11.8989 3.82276 12.5662
205 2 9.33953 5.08852 9.33094
185 1 13.1152 3.2049 11.2187
186 1 8.90318 6.27684 9.89766
189 3 10.846 2.64626 13.096
190 3 12.8753 4.34571 13.7075
192 3 11.0315 5.19682 11.8379
263 3 15.4669 1.00842 8.58914
199 2 11.9904 1.01605 14.6647
200 2 12.958 3.78523 10.181
201 2 12.969 2.0738 11.3026
182 4 10.6518 6.25666 10.6989
105 3 10.1727 3.09681 8.24199
177 2 13.9507 0.748763 13.9922
123 2 5.33483 6.3418 10.455
184 1 10.9943 0.518213 14.814
121 2 7.03767 3.86014 12.3627
237 1 7.32248 10.1791 0.0748466
256 2 1.42641 11.2738 3.75234
167 2 9.1306 7.41726 2.3624
53 1 8.18602 7.40501 2.91192
104 3 5.11818 7.25676 3.81309
233 2 2.85059 12.5205 3.58795
125 2 4.04292 8.16502 1.10036
150 2 2.55989 10.4664 0.357097
166 2 6.91324 8.54316 2.05296
168 2 8.4117 7.80649 3.83114
206 4 9.29102 10.3926 3.62438
215 2 7.01663 7.96584 6.80849
208 4 7.70336 10.2398 6.37223
209 1 6.33796 8.85906 6.44667
255 2 2.36677 12.2049 5.19373
211 3 8.25383 10.3519 4.92775
212 3 6.8724 11.7796 7.0715
213 2 8.65824 9.27742 2.47473
254 1 1.88399 11.2353 4.90542
216 2 5.97443 8.75728 5.35239
217 2 5.51725 9.24387 7.13585
219 2 9.88103 9.10662 6.95249
253 2 10.3213 8.33721 0.267993
270 2 0.700964 12.2012 1.53606
238 3 5.59665 12.2693 0.998884
240 2 8.0283 10.27 0.932614
239 2 6.47895 9.36334 0.309098
257 2 2.5121 10.3596 5.06096
258 1 5.96888 11.836 3.85212
259 2 6.62324 11.1237 3.43636
260 2 4.92811 11.4777 4.18312
261 2 6.39839 12.5359 4.5664
38 4 6.18056 7.00313 2.53502
210 1 9.12898 9.62526 7.57932
134 2 8.73204 12.7769 5.5515
2 3 9.21349 11.8641 3.01327
267 2 12.4919 6.61898 0.271029
67 3 12.939 6.88688 7.43887
198 2 2.58019 12.3083 14.4227
40 4 5.97197 11.2766 12.9224
108 3 4.74504 10.2867 12.7763
109 3 6.50931 11.5466 14.3337
214 2 4.97265 12.4823 8.68146
132 2 7.42411 10.799 12.1787
236 4 7.29875 11.9893 15.6162
34 4 3.53221 9.27307 12.6111
131 2 5.66022 12.754 12.3491
193 2 11.1774 9.89394 14.7645
218 2 9.55141 10.5542 8.05488
194 2 9.56757 7.47183 11.3082
241 2 9.04844 10.2819 15.0749
191 3 11.7987 7.02597 9.98203
264 2 8.93634 12.3924 15.2625
274 2 8.64201 8.97193 8.30663
164 2 2.05797 12.8339 9.10079
269 2 10.0503 11.0331 13.5268
203 2 8.67039 7.10564 9.17745
ITEM: TIMESTEP
100
ITEM: NUMBER OF ATOMS
274
ITEM: BOX BOUNDS xy xz yz pp pp pp
-8.3797999999999995e+00 1.8013900000000000e+01 -8.3797999999999995e+00
0.0000000000000000e+00 1.3273200000000001e+01 1.1950000000000001e+00
0.0000000000000000e+00 1.5914745000000002e+01 4.3120000000000003e-01
ITEM: ATOMS id type x y z
119 2 7.39519 1.27215 5.25307
12 4 -1.08288 6.40013 5.21277
7 4 0.937157 2.2082 5.0856
9 4 -0.514963 4.81707 1.87167
10 4 0.345292 4.47796 7.066
242 1 3.29116 0.57407 3.14724
21 4 5.72739 1.38621 5.7406
26 4 5.33179 4.4988 6.82247
41 1 1.18103 0.588656 6.05517
44 1 3.73946 3.84591 1.84355
55 3 1.18483 1.08103 1.05657
56 3 -0.371427 2.29691 4.1781
58 3 -1.91205 4.55281 2.7114
59 3 -0.116195 3.51007 1.06065
243 2 3.66763 1.70621 3.11073
61 3 1.07881 3.51935 5.98992
62 3 -0.875907 5.34043 6.36248
74 3 5.69088 0.362698 7.4918
78 3 0.633773 5.22679 2.87556
81 3 5.36425 2.86756 6.01544
84 3 2.84426 6.14387 4.17681
85 3 4.63829 5.63841 6.03663
113 2 -1.69589 5.46121 3.92656
111 2 2.38087 2.05461 4.02733
112 2 -0.691372 6.11544 0.780402
24 4 4.7291 4.81663 0.518097
118 2 4.45085 0.665935 4.73082
5 4 0.368582 2.17802 0.191118
222 3 6.26414 1.39412 1.20347
223 2 6.22582 0.827951 4.00066
141 2 4.09303 2.75115 1.76635
142 2 2.7066 3.98862 1.47907
143 2 4.02275 4.53778 2.78338
220 4 6.72305 0.321724 2.30011
82 3 1.43018 5.47458 7.82612
135 2 0.687834 0.96107 7.04385
244 2 2.92797 0.219036 4.15202
133 2 2.28452 0.331836 6.23005
25 4 1.42997 6.44382 3.60942
138 2 1.16092 0.765095 12.208
8 4 1.97037 2.58869 10.7997
13 4 0.548476 4.80832 12.1472
229 2 3.592 6.5476 13.3072
20 4 4.72567 3.00826 9.2962
23 4 7.03035 2.72017 11.2583
99 3 8.1966 1.17866 8.25549
226 4 3.48203 6.3062 14.9198
42 1 2.11544 1.27074 12.2028
57 3 0.533795 2.32014 10.1913
63 3 -0.248987 3.70049 12.9942
64 3 2.06162 4.22252 11.6956
65 3 -2.23912 6.3434 9.47912
66 3 -0.284072 5.61294 11.1487
73 3 3.30016 2.53982 9.73021
75 3 5.65671 3.11477 10.5531
76 3 6.99259 1.2482 11.7743
80 3 4.819 4.2222 8.32035
29 4 3.88028 6.56058 10.9957
137 2 2.9782 0.637752 11.8996
114 2 1.19595 5.99778 13.2382
248 2 3.5799 3.75972 15.5284
124 2 3.38301 5.30883 11.8968
136 2 2.33047 1.99527 13.1611
179 4 7.25674 2.39955 15.5851
183 1 5.86365 1.32783 14.9187
77 3 6.7614 4.12921 15.6306
60 3 -0.371763 3.53619 8.27479
196 2 4.90489 1.96876 15.0677
117 2 5.29351 1.62102 8.35418
227 3 4.85938 5.91695 15.457
195 2 6.09461 1.18246 13.7915
245 1 2.9501 3.15736 14.8513
246 2 2.44004 3.68149 13.9938
247 2 3.49868 2.22018 14.5158
262 3 0.392506 2.07627 14.9898
228 2 2.36107 5.04507 15.0381
123 2 5.41748 6.04786 10.6757
149 2 2.23423 9.18421 7.43752
3 3 -5.87987 11.5417 0.884963
268 2 -4.1652 8.39632 0.182234
16 4 -3.26996 8.17931 6.50758
17 4 -4.62031 9.95829 4.59856
154 2 0.728058 9.59996 7.49364
161 2 -1.04909 10.1803 0.202854
31 4 -2.00448 10.2204 3.0089
33 4 0.191145 10.9438 5.41374
48 1 -1.30643 8.92293 1.76381
49 1 -0.0428026 9.47156 6.59752
251 1 -5.17577 8.63489 0.694061
68 3 -2.05369 7.54967 5.58172
28 4 4.161 6.66369 4.92527
70 3 -4.50971 8.85575 5.77029
79 3 0.455886 7.08935 4.77425
87 3 1.84285 7.6207 2.40273
30 4 2.3192 8.10125 0.972129
89 3 -2.07894 11.6318 1.96597
90 3 -3.45879 9.86458 3.54402
93 3 -0.748228 10.5637 4.18928
94 3 -0.301504 12.2572 6.15067
115 2 -4.4644 11.4936 5.38335
147 2 1.95553 7.67218 6.48386
151 2 -0.181924 9.25432 1.45076
152 2 -2.12206 8.91497 0.908133
153 2 -1.31869 8.03234 2.49768
272 2 0.731506 10.2352 0.188185
155 2 0.163967 8.46671 5.97943
156 2 -1.21597 9.49875 6.96159
46 1 2.48096 8.13272 7.36518
148 2 3.64729 7.94889 7.44793
271 2 1.65452 10.1812 1.82726
19 4 -1.09146 12.7487 7.6839
1 4 -6.54702 12.6502 1.92813
69 3 -6.03756 9.98429 3.88677
91 3 -2.63434 9.5473 7.69227
265 2 -4.35454 12.6085 2.57825
47 1 1.69073 9.89357 0.738649
252 2 -5.03335 9.03291 1.73503
67 3 -3.81451 6.98417 7.45331
159 2 1.32343 10.9168 12.9959
18 4 -2.14518 8.22417 12.7384
22 4 -0.548026 12.7613 11.8904
32 4 -2.17518 10.4902 8.92058
35 4 -1.34968 10.8341 14.1204
43 1 -5.63776 11.0419 13.8301
15 4 -4.12954 10.7877 15.7513
157 2 0.919178 9.33359 12.0354
51 1 0.22265 11.2946 15.1089
162 2 -0.00967197 12.3661 15.2674
72 3 -1.25908 7.98352 11.3802
83 3 0.513888 7.5031 9.33912
158 2 2.16927 10.6468 11.223
92 3 -0.868896 11.3112 8.95585
95 3 3.6814 7.96103 11.7471
96 3 -1.29451 9.00296 13.7691
97 3 -1.29277 11.6121 12.6276
98 3 -2.75197 11.0164 15.0168
116 2 -3.29797 9.25963 12.1453
120 2 -0.422842 12.0787 10.3308
126 2 -2.20974 9.57114 10.357
127 2 -3.41008 11.303 9.66191
128 2 2.21652 9.15487 13.9067
140 2 -5.90212 11.9748 14.4094
50 1 1.71041 10.1102 12.2674
139 2 -4.61291 11.1842 13.3796
160 2 1.17359 11.1514 14.48
88 3 2.73554 7.66467 15.5507
187 3 0.917253 13.0375 12.4896
27 4 1.76733 6.87511 8.67163
71 3 -2.75839 6.93967 13.4482
14 4 -0.851373 6.82925 10.3744
86 3 3.00051 6.69944 9.73415
34 4 3.38067 9.28551 12.571
197 2 -2.45143 13.2522 15.6379
235 2 11.4937 1.48455 2.8393
37 4 13.0187 2.06359 5.69784
230 4 13.7012 0.231225 2.42151
39 4 11.3041 3.99782 7.39719
45 1 7.13991 5.2003 6.94941
54 1 10.4232 5.39178 6.44614
101 3 14.0285 3.16119 4.92522
102 3 13.8254 1.02354 6.7478
221 1 8.6097 0.358561 2.19035
4 4 15.0085 2.81565 3.66272
106 3 11.8971 3.00786 6.38605
232 3 14.3639 1.64767 2.72735
129 2 12.2021 1.14286 4.49445
130 2 7.97297 5.81094 2.90987
169 2 10.9083 6.37978 6.80156
250 2 11.4841 4.63632 0.320167
146 2 7.75757 4.41802 6.47039
231 1 11.8066 0.436318 2.71256
145 2 7.12675 6.18881 6.39987
170 2 9.28942 5.37564 6.54758
171 2 10.8223 5.11114 5.36922
273 2 9.17434 0.217398 0.246582
224 2 8.9592 1.17586 1.49866
234 2 11.439 0.123934 1.65504
103 3 5.69787 6.10368 1.38361
225 2 8.68432 0.685485 3.35573
207 4 14.677 0.231227 7.79445
267 2 12.2631 6.34934 0.384275
266 2 13.6856 4.70471 0.0193587
11 4 13.0482 6.13256 8.7859
36 4 9.22018 2.16793 9.0252
52 1 10.5167 1.08469 9.86572
188 3 8.58367 1.99651 14.6975
100 3 8.32211 2.84211 10.3151
107 3 12.7165 4.57213 8.57746
110 2 14.7878 3.02424 10.3655
204 2 8.10062 5.87134 10.7565
202 2 13.9652 3.58086 11.6963
163 2 11.5956 1.42789 9.83836
6 4 16.0323 2.4511 9.30296
165 2 10.1427 0.837368 10.9206
172 4 16.1484 2.40446 13.8339
173 1 14.3529 1.48021 13.4741
174 2 14.5572 2.74042 14.7336
175 2 15.5457 0.783591 12.8343
176 2 13.7704 2.02977 12.5817
144 2 7.41646 5.34931 8.04939
178 4 13.7728 5.55232 14.2075
180 4 9.88163 1.44999 13.7556
181 4 11.7712 3.88744 12.545
205 2 9.34485 5.03978 9.49082
185 1 12.9828 3.23854 11.1723
186 1 8.97988 6.0189 10.0869
189 3 10.8478 2.52203 12.9848
190 3 12.7994 4.46679 13.6712
192 3 10.9638 5.06307 11.8564
263 3 15.5497 1.15258 8.69294
199 2 11.8608 1.23306 15.0367
200 2 12.8491 3.78358 10.0815
201 2 12.8892 2.10858 11.0449
182 4 10.7763 6.23117 10.8346
105 3 10.1529 3.2766 8.26895
177 2 13.7257 0.707416 14.0218
121 2 7.2565 3.69669 12.621
184 1 10.8915 0.622828 15.0577
249 1 13.5217 5.77414 15.8678
237 1 7.4733 10.132 0.129311
256 2 1.65992 11.3399 3.67469
167 2 9.14323 7.5736 2.32767
53 1 8.14666 7.41257 2.83417
104 3 5.37566 7.05047 3.98961
233 2 2.92727 12.5568 3.55954
125 2 3.99441 7.93057 0.888945
150 2 2.63158 10.3347 0.226421
166 2 7.03586 8.5514 2.01406
168 2 8.15779 7.87765 4.00059
206 4 9.30208 10.435 3.6538
215 2 6.25849 8.30064 7.48026
208 4 7.68735 10.3492 6.59939
209 1 6.18814 9.0163 6.574
255 2 2.3565 12.2294 5.27248
211 3 8.38301 10.2514 4.90691
212 3 7.02365 11.691 7.20957
213 2 8.59287 9.35881 2.52835
254 1 1.98623 11.249 4.83229
216 2 6.28906 8.5703 5.54987
217 2 5.37184 9.83693 6.72247
219 2 10.0577 9.39515 7.05271
253 2 10.8865 7.85634 0.699298
270 2 0.74982 12.2031 1.98174
238 3 5.54837 12.1867 0.90987
240 2 8.05872 10.3519 1.07096
239 2 6.66385 9.24749 0.31115
257 2 2.7257 10.3799 4.98275
258 1 5.9313 11.8304 3.8287
259 2 6.54585 11.0714 3.36102
260 2 5.03591 11.3131 4.36668
261 2 6.5433 12.5881 4.45108
38 4 6.29941 6.90065 2.57836
210 1 9.16902 9.79412 7.6549
134 2 9.0467 12.6836 5.52505
2 3 9.24282 11.8508 2.88348
122 2 3.7505 8.08961 5.82266
198 2 2.63711 12.4372 14.6193
40 4 5.72732 11.3704 12.8296
108 3 4.58645 10.3436 12.7451
109 3 6.49691 11.4738 14.2163
214 2 5.20045 12.4977 8.83011
132 2 6.79639 11.0013 11.6942
236 4 7.34294 11.8057 15.5173
203 2 8.88283 6.88194 9.39736
131 2 5.45615 12.9239 12.1715
193 2 11.1742 9.79462 14.7764
218 2 9.45413 10.6555 8.38272
194 2 9.60827 7.39401 11.4022
241 2 9.3585 10.3515 15.1088
191 3 11.7886 6.82831 9.84817
264 2 9.02125 12.2454 15.1028
274 2 8.48642 8.91812 8.15945
164 2 2.05033 13.008 9.1834
269 2 10.3722 10.9323 12.9845
ITEM: TIMESTEP
200
ITEM: NUMBER OF ATOMS
274
ITEM: BOX BOUNDS xy xz yz pp pp pp
-8.3797999999999995e+00 1.8013900000000000e+01 -8.3797999999999995e+00
0.0000000000000000e+00 1.3273200000000001e+01 1.1950000000000001e+00
0.0000000000000000e+00 1.5914745000000002e+01 4.3120000000000003e-01
ITEM: ATOMS id type x y z
119 2 7.31826 1.42568 5.28413
12 4 -1.13655 6.47102 5.2489
7 4 0.964721 2.33675 4.87457
9 4 -0.441726 4.7099 1.8291
10 4 0.281412 4.66727 7.14341
242 1 3.33317 0.505439 2.96682
21 4 5.68842 1.49976 5.68588
26 4 5.40652 4.56615 6.94903
41 1 0.988237 0.734553 5.8303
44 1 3.87274 3.8026 1.90824
55 3 1.02917 1.1223 1.17489
56 3 -0.338606 2.32361 4.02699
58 3 -1.7561 4.41215 2.83422
59 3 -0.137956 3.63419 0.710756
243 2 3.57693 1.62279 3.09274
61 3 1.15147 3.52782 5.93414
62 3 -0.785809 5.58008 6.44635
74 3 5.72589 0.391719 7.33107
78 3 0.826122 5.11086 2.61832
81 3 5.41985 3.01885 6.00405
84 3 2.84865 6.02303 4.17562
85 3 4.75826 5.82471 6.1016
113 2 -1.80232 5.49801 3.98836
111 2 2.40211 1.97707 3.85962
112 2 -0.918679 6.05703 0.933341
24 4 4.73854 4.81034 0.552133
118 2 4.44747 0.938299 4.53225
5 4 0.294346 2.13996 0.154214
222 3 6.33909 1.3077 1.2753
223 2 6.26947 0.899472 3.97883
141 2 4.44256 2.78805 1.80013
142 2 2.74297 3.87743 1.66626
143 2 4.26602 4.39325 2.84962
220 4 6.80866 0.338186 2.3745
82 3 1.36623 5.5447 7.86134
135 2 0.236712 0.837686 6.64062
25 4 1.43056 6.44595 3.51284
133 2 1.97556 0.496092 6.21213
138 2 1.34401 0.571836 11.711
8 4 2.06978 2.64672 10.8107
13 4 0.508558 4.82577 12.3317
229 2 3.55698 6.37546 13.2819
20 4 4.80694 2.92106 9.37687
23 4 7.10627 2.70833 11.4126
99 3 8.12788 1.14528 8.39123
226 4 3.33858 6.2364 14.9246
42 1 2.31463 1.14133 12.0072
57 3 0.638305 2.33879 10.0952
63 3 -0.392316 3.63755 12.8743
64 3 2.00439 4.18173 11.9706
65 3 -2.16825 6.34855 9.49015
66 3 -0.0282565 5.60079 11.0712
73 3 3.37569 2.46137 9.8416
75 3 5.76745 3.22102 10.6317
76 3 6.93645 1.17139 11.7983
80 3 4.93893 4.19458 8.45339
29 4 3.83248 6.57029 10.9619
137 2 3.2669 0.710597 11.6063
114 2 0.586575 5.92206 13.6326
248 2 3.53649 3.69649 15.3983
124 2 3.35257 5.09607 11.6637
136 2 2.35613 1.41939 13.07
179 4 7.25873 2.32331 15.5267
183 1 5.81373 1.37664 14.8586
77 3 6.63538 3.86387 15.5187
60 3 -0.555545 3.66977 8.08812
196 2 5.07123 2.23922 14.7225
117 2 5.38238 1.61409 8.3787
227 3 4.67651 5.78952 15.6764
195 2 5.94627 0.757574 13.941
245 1 2.83768 3.02505 14.744
246 2 2.46166 3.46455 13.7755
247 2 3.28064 1.99586 14.585
262 3 0.346709 2.08028 15.0424
228 2 2.22306 4.93128 14.6781
197 2 5.56935 0.636307 15.7383
6 4 -0.715891 2.50239 9.18695
149 2 2.24293 9.27087 7.70855
3 3 -5.98494 11.6561 0.881431
268 2 -3.89562 8.39873 0.483821
16 4 -3.28868 8.21467 6.53197
17 4 -4.58912 9.9107 4.50895
154 2 1.03365 9.60131 7.25129
161 2 -1.05919 9.98754 0.170972
31 4 -1.9259 10.117 2.82067
33 4 0.169905 10.9006 5.24695
48 1 -1.12556 8.74633 1.75081
49 1 0.201372 9.47327 6.45319
251 1 -4.93836 8.76901 0.752654
68 3 -2.03085 7.67458 5.63534
28 4 4.08798 6.70842 4.89695
70 3 -4.45398 8.81 5.68565
79 3 0.294829 7.02138 4.73443
87 3 1.60744 7.65031 2.49715
30 4 2.1875 8.11218 1.05606
89 3 -1.91993 11.5528 2.0184
90 3 -3.39977 9.72694 3.46881
93 3 -0.72638 10.5148 3.95152
94 3 -0.415123 12.1661 6.23098
115 2 -4.26494 11.4701 5.22112
147 2 2.10418 7.8116 6.46418
151 2 -0.0613479 9.2199 1.49496
152 2 -1.75395 8.3489 0.900459
153 2 -0.953208 7.95939 2.54213
272 2 0.668927 10.1774 0.1925
155 2 0.318021 8.59364 5.77608
156 2 -0.865991 9.4455 6.9909
46 1 2.51794 8.12758 7.42816
148 2 3.59924 7.90354 7.53328
271 2 1.55918 10.1403 1.94039
19 4 -1.02803 12.7233 7.63369
1 4 -6.60056 12.6501 1.8979
69 3 -6.07824 9.99646 3.95703
91 3 -2.55022 9.50468 7.68723
265 2 -4.26419 12.8189 2.31625
47 1 1.68009 9.90433 0.828677
252 2 -4.96804 9.12065 1.8949
67 3 -3.78335 6.98925 7.4647
134 2 -7.73174 12.7075 5.13829
244 2 -5.31836 12.8137 3.92377
122 2 3.57993 8.10869 5.73568
270 2 0.48621 12.2656 1.85199
159 2 1.16249 10.5069 13.0661
18 4 -2.0909 8.19001 12.7895
22 4 -0.533192 12.7426 11.8871
32 4 -2.30576 10.4006 8.97035
35 4 -1.39612 10.7136 14.1012
43 1 -5.53326 10.7699 13.746
15 4 -4.02814 10.8019 15.7647
157 2 0.93828 8.96561 11.828
51 1 0.160366 11.2181 15.1926
162 2 0.0322941 12.2436 15.5611
72 3 -1.35575 7.95036 11.4033
83 3 0.192072 7.56155 9.32284
158 2 1.88194 10.6684 11.1933
92 3 -0.995426 11.3011 8.92242
95 3 3.7332 7.96713 11.7843
96 3 -1.12878 9.16516 13.839
97 3 -1.2449 11.6565 12.7423
98 3 -2.77662 11.1926 14.9688
116 2 -3.66565 8.90147 12.6264
120 2 -0.50947 12.0593 10.3315
126 2 -2.35302 9.44803 10.3392
127 2 -3.66401 11.3084 9.46301
128 2 2.29303 9.42993 13.9035
140 2 -5.95302 11.7203 14.217
50 1 1.5607 9.92335 12.1756
139 2 -4.48702 10.9299 13.2938
160 2 1.07176 11.0811 14.5838
88 3 2.70594 7.55358 15.5465
187 3 0.947307 13.0526 12.4641
27 4 1.73255 6.83685 8.73187
71 3 -2.49339 6.85086 13.5291
14 4 -0.835916 6.83649 10.3072
86 3 2.92728 6.70779 9.68442
34 4 3.35172 9.51732 12.4708
235 2 11.5476 1.56029 3.13302
37 4 13.0152 1.99146 5.75587
230 4 13.6135 0.121471 2.39909
39 4 11.2207 3.95946 7.34421
45 1 7.25591 5.06595 6.96678
54 1 10.5072 5.50559 6.48336
101 3 14.068 2.90228 4.98334
102 3 13.7457 1.09746 6.78339
221 1 8.69103 0.499137 2.35767
4 4 15.0136 2.67466 3.62558
106 3 11.7267 2.87001 6.28746
232 3 14.2574 1.55008 2.68958
129 2 12.1867 0.960526 4.62799
130 2 7.68868 5.6352 3.56611
169 2 10.9716 6.37033 7.03962
250 2 11.3714 4.75142 0.341535
146 2 7.84045 4.25415 6.40199
231 1 11.7022 0.496994 2.77614
145 2 7.40082 6.09012 6.4669
170 2 9.3016 5.36399 6.6128
171 2 10.8689 5.28875 5.42761
273 2 9.22404 0.318564 0.335122
224 2 9.14927 1.43243 1.81707
234 2 11.3495 0.434195 1.65737
103 3 5.72259 5.79311 1.52859
225 2 8.96541 0.471114 3.47233
207 4 14.6997 0.281649 7.82636
249 1 12.3084 5.39069 0.028888
11 4 13.1963 6.16056 8.87902
36 4 9.08227 2.23788 9.17932
52 1 10.3937 1.135 9.92363
188 3 8.48991 2.02168 14.5952
100 3 8.27533 2.9579 10.3887
107 3 12.6829 4.61526 8.48764
110 2 14.7234 2.9745 10.1301
204 2 7.88191 5.98155 10.4463
202 2 14.0162 3.4889 11.6257
163 2 11.376 1.63077 9.84506
123 2 5.42944 6.20993 10.6809
165 2 10.0583 0.917398 11.0224
172 4 16.1535 2.43369 13.8228
173 1 14.2394 1.6286 13.5781
174 2 14.3322 2.64669 14.6275
175 2 15.7268 0.914149 12.8106
176 2 13.7221 2.13692 12.6176
144 2 7.51191 5.0761 8.07077
178 4 13.7601 5.60639 14.2597
180 4 9.86429 1.49962 13.8222
181 4 11.798 3.7991 12.5119
205 2 9.1393 5.38838 9.21472
185 1 13.0182 3.23724 11.0847
186 1 8.86885 6.31095 9.97908
189 3 10.842 2.59237 13.2119
190 3 12.929 4.35453 13.6416
192 3 10.9318 5.084 11.7621
263 3 15.6796 1.14287 8.57886
199 2 11.8252 1.35468 15.1002
200 2 12.7932 3.76295 9.99683
201 2 12.6037 2.1222 11.1547
182 4 10.6949 6.14258 10.6717
105 3 9.98833 3.46658 8.15616
177 2 13.5981 0.77609 13.974
121 2 7.35035 3.67007 12.7741
184 1 10.8312 0.700396 15.1571
266 2 14.8554 5.03766 15.8844
191 3 11.9602 6.62027 9.88007
267 2 12.3003 6.54078 0.312422
256 2 2.20875 10.957 3.66726
167 2 8.91601 6.67847 2.25956
53 1 8.2203 7.31699 2.87182
104 3 5.25026 7.19386 3.87689
233 2 2.7796 12.5085 3.50051
125 2 3.90252 7.9746 1.05291
150 2 2.59007 10.4026 0.36289
166 2 7.33744 8.23447 1.93121
168 2 8.66487 7.78663 3.68729
206 4 9.24369 10.499 3.72188
215 2 5.91372 8.81568 7.70175
208 4 7.66959 10.4872 6.59014
209 1 6.23935 9.10533 6.66996
255 2 1.93364 12.346 4.97977
211 3 8.51611 10.547 5.04462
212 3 7.00023 11.8582 7.10469
213 2 8.56576 9.26422 2.7654
254 1 2.00998 11.1712 4.78606
216 2 6.57654 8.20689 6.11837
217 2 5.43895 9.72197 6.10415
219 2 10.0167 9.90013 7.44584
253 2 11.1072 7.92186 0.477626
210 1 8.97758 9.98288 7.90298
238 3 5.60809 12.0371 1.0451
240 2 8.18777 10.4879 1.03747
2 3 9.27189 11.9711 2.99949
257 2 2.74155 10.6841 5.46601
258 1 5.96385 11.8157 3.76741
259 2 6.29787 10.8767 3.35016
260 2 4.9732 11.8299 4.39536
261 2 6.76011 12.4462 4.29206
38 4 6.36217 6.63071 2.78698
198 2 2.60659 12.4732 14.7125
40 4 5.76336 11.4922 12.8787
108 3 4.47189 10.5835 12.5792
109 3 6.50345 11.5134 14.224
214 2 5.33375 12.4844 9.00127
132 2 6.79397 11.0174 11.7347
236 4 7.37493 11.7115 15.5311
203 2 8.83174 7.25185 9.32254
131 2 5.38934 13.0625 12.2681
193 2 11.5056 9.59025 14.7758
218 2 8.91008 10.6923 8.76294
194 2 9.72229 7.45343 11.2826
241 2 9.69222 10.7829 15.0597
239 2 8.24687 9.67135 15.8016
264 2 8.9315 12.4338 15.0936
274 2 8.50496 8.95846 8.13815
269 2 10.5925 10.396 13.0131
237 1 8.9487 10.6915 15.8968
164 2 1.88581 13.0467 9.18917
ITEM: TIMESTEP
300
ITEM: NUMBER OF ATOMS
274
ITEM: BOX BOUNDS xy xz yz pp pp pp
-8.3797999999999995e+00 1.8013900000000000e+01 -8.3797999999999995e+00
0.0000000000000000e+00 1.3273200000000001e+01 1.1950000000000001e+00
0.0000000000000000e+00 1.5914745000000002e+01 4.3120000000000003e-01
ITEM: ATOMS id type x y z
119 2 7.36058 1.58291 5.11103
12 4 -1.04104 6.45024 5.16848
7 4 0.880444 2.41554 4.90714
9 4 -0.400018 4.68552 1.78764
10 4 0.319648 4.52492 7.08039
242 1 3.17926 0.611267 3.14377
21 4 5.71747 1.56314 5.62328
26 4 5.45511 4.51847 6.78172
41 1 0.922215 0.821299 5.91866
44 1 3.8293 3.58243 2.07999
55 3 1.04614 1.02283 1.12463
56 3 -0.410335 2.38947 4.08067
58 3 -1.80555 4.50169 2.7557
59 3 -0.113449 3.51741 0.76456
243 2 3.46031 1.74436 3.22866
61 3 1.0259 3.6524 5.95475
62 3 -0.758139 5.52676 6.35456
74 3 5.68608 0.561415 7.23571
78 3 0.88805 5.12218 2.63794
81 3 5.42426 3.10675 5.81425
84 3 2.87544 6.07209 4.24232
85 3 4.76749 5.80447 6.06196
113 2 -1.85452 5.48793 3.98622
111 2 2.33389 2.15518 3.97608
112 2 -0.742543 6.01707 0.839375
24 4 4.71566 4.53359 0.710655
118 2 4.46109 0.905293 4.5954
5 4 0.278675 2.09151 0.0883835
222 3 6.27612 1.34887 1.16667
223 2 6.33006 0.914826 3.82886
141 2 3.7206 2.56415 1.55567
142 2 2.80862 4.03157 2.38113
143 2 4.59855 3.7066 2.93393
220 4 6.87324 0.350323 2.21671
82 3 1.47156 5.41577 7.8809
135 2 0.576183 0.889433 6.9707
25 4 1.50915 6.38669 3.41484
133 2 2.0424 0.597827 5.87766
71 3 -2.43198 6.7602 13.6011
8 4 2.00976 2.64069 10.8655
13 4 0.460428 4.86925 12.3147
229 2 3.49298 6.46883 13.1819
20 4 4.76822 3.00587 9.36696
23 4 7.09837 2.68657 11.3721
99 3 8.15337 1.2063 8.20599
226 4 3.3545 6.28476 14.9373
42 1 2.27074 1.03955 11.8696
57 3 0.624081 2.52349 10.1346
63 3 -0.479438 3.77265 12.99
64 3 2.01163 4.17355 12.1051
65 3 -2.22565 6.11821 9.60938
66 3 -0.203067 5.62647 11.1475
73 3 3.37103 2.82402 9.97892
75 3 5.70113 3.14102 10.6636
76 3 7.03928 1.18815 11.8981
80 3 5.01055 4.2028 8.39315
6 4 -0.654118 2.49154 9.20931
137 2 3.37618 0.94313 11.8728
114 2 0.927702 6.0194 13.404
248 2 3.54156 3.81466 15.4085
124 2 3.20776 5.2879 11.8763
136 2 1.84536 1.07334 12.8772
179 4 7.23574 2.41021 15.5429
183 1 5.81529 1.34294 14.8275
77 3 6.86267 3.96659 15.6506
60 3 -0.495941 3.62536 8.15765
196 2 5.21162 2.14186 14.3305
117 2 5.18855 1.61814 8.50062
227 3 4.7424 5.79141 15.6378
195 2 6.08376 0.559212 14.0613
245 1 2.91339 3.06725 14.8821
246 2 2.54829 3.46642 13.9378
247 2 3.46537 2.06112 14.7711
262 3 0.22904 1.85678 15.0335
228 2 2.30197 4.94167 15.0584
197 2 5.23759 0.958192 15.7646
123 2 5.16665 6.33824 10.3415
29 4 3.73189 6.71934 11.0213
149 2 2.28215 9.11776 7.62393
3 3 -5.94039 11.5598 0.859183
268 2 -3.94839 8.68607 0.847178
16 4 -3.21097 8.2237 6.63386
17 4 -4.4752 9.9444 4.57595
154 2 0.982537 9.31352 7.23373
161 2 -1.08371 10.0581 0.303181
31 4 -1.96529 10.2058 2.9359
33 4 0.0867279 10.9226 5.44024
48 1 -1.21282 8.81447 1.8693
49 1 0.0567632 9.35286 6.51225
251 1 -5.06139 8.97132 0.895007
68 3 -2.03554 7.61664 5.49732
28 4 4.11847 6.78638 4.9494
70 3 -4.42797 8.80146 5.7725
79 3 0.296508 6.99396 4.52863
87 3 1.75469 7.60748 2.34084
30 4 2.33268 8.04722 0.904257
89 3 -1.96619 11.6806 2.00361
90 3 -3.44594 9.74488 3.34572
93 3 -0.89019 10.5197 4.19689
94 3 -0.447059 12.2259 6.26863
115 2 -4.13868 11.435 5.34099
147 2 2.00883 7.77246 6.24235
151 2 -0.0725536 9.19292 1.48194
152 2 -1.97285 8.58742 1.03227
153 2 -0.970641 7.94479 2.5856
272 2 0.732223 10.1601 0.153905
155 2 0.16545 8.63101 5.71202
156 2 -0.964484 9.3507 7.03355
46 1 2.50931 8.02798 7.28476
148 2 3.55999 7.62895 7.54053
271 2 1.55651 9.98489 1.89896
19 4 -1.1176 12.8621 7.62531
1 4 -6.65757 12.6699 2.08793
69 3 -5.92067 10.0106 3.91755
91 3 -2.68802 9.54288 7.6567
244 2 -5.48269 12.9134 4.11639
47 1 1.71813 9.86296 0.83062
252 2 -5.38793 9.16631 1.94116
67 3 -3.75301 6.96006 7.46489
265 2 -4.41018 12.7545 2.46781
159 2 1.43213 11.1193 12.7343
18 4 -2.05648 8.14471 12.8848
22 4 -0.421661 12.7571 11.8825
32 4 -2.19428 10.3345 8.93542
35 4 -1.29826 10.7847 14.1307
43 1 -5.45677 10.5859 13.7478
15 4 -4.16713 10.9428 15.7526
157 2 0.841732 9.33185 12.5527
51 1 0.180318 11.2328 15.2064
162 2 0.0712713 12.3084 15.4402
72 3 -1.46499 8.16833 11.3502
83 3 0.235434 7.41567 9.15515
158 2 1.89205 10.1588 10.9768
92 3 -1.17747 11.5205 8.91416
95 3 3.83045 8.08133 11.8314
96 3 -1.1743 8.9482 13.8402
97 3 -1.17683 11.5274 12.6963
98 3 -2.66029 11.0279 14.9919
116 2 -3.54445 8.9752 12.5622
120 2 -0.418494 12.2743 10.2523
126 2 -1.6123 9.29621 10.1684
127 2 -3.64646 10.78 9.668