ITEM: TIMESTEP
0
ITEM: NUMBER OF ATOMS
274
ITEM: BOX BOUNDS xy xz yz pp pp pp
-8.3797999999999995e+00 1.8013900000000000e+01 -8.3797999999999995e+00
0.0000000000000000e+00 1.3273200000000001e+01 1.1950000000000001e+00
0.0000000000000000e+00 1.6236255000000003e+01 4.3120000000000003e-01
ITEM: ATOMS id type x y z
119 2 7.36786 1.23302 5.33751
12 4 -0.996022 6.46192 5.36226
7 4 0.911585 2.20187 5.2301
9 4 -0.331825 4.73166 1.85227
10 4 0.284129 4.42106 7.32228
242 1 3.24523 0.490568 3.19408
21 4 5.69452 1.43844 5.76467
26 4 5.36384 4.37513 6.87742
41 1 0.975833 0.578701 6.2592
44 1 3.74554 4.01791 1.82789
55 3 1.14621 0.948789 1.14028
56 3 -0.492089 2.41387 4.4396
58 3 -1.69111 4.52008 2.74474
59 3 0.0839074 3.45847 1.05083
243 2 3.62683 1.57521 3.24444
61 3 1.3402 3.2916 6.27771
62 3 -0.76045 5.34812 6.50544
74 3 5.87503 0.410019 7.44387
78 3 0.601711 5.4251 2.925
81 3 5.50346 2.96943 6.00661
84 3 2.81668 5.97011 4.23019
85 3 4.79986 5.67672 5.98457
113 2 -1.49554 5.51749 4.04141
111 2 2.19167 1.86469 4.08281
112 2 -0.645857 5.84599 0.597822
24 4 4.69154 4.91019 0.499293
118 2 4.43867 0.733874 4.80489
5 4 0.488812 2.12006 0.214881
222 3 6.32365 1.47272 1.28794
223 2 6.2608 0.937965 4.04028
141 2 3.79251 2.91228 1.56398
142 2 2.73639 4.5326 1.72248
143 2 4.35252 4.19431 2.81916
220 4 6.80863 0.400067 2.35551
82 3 1.37606 5.43766 7.92196
135 2 0.537175 0.931526 7.26903
197 2 4.39156 0.674817 0.0668036
138 2 1.72371 0.526045 12.3569
8 4 1.78529 2.61143 11.0823
13 4 0.453637 4.92252 12.4459
229 2 3.61719 6.31791 13.3652
20 4 4.65265 2.79423 9.43166
23 4 6.99196 2.68823 11.3418
99 3 8.34674 1.11071 8.40728
226 4 3.40894 6.27301 15.0832
42 1 2.34974 1.47256 12.4702
57 3 0.398015 2.01805 10.5348
63 3 -0.210938 3.73903 13.3729
64 3 1.88749 4.39672 11.9307
65 3 -2.32572 6.52914 9.70898
66 3 -0.489772 5.50684 11.3081
73 3 3.17463 2.38959 10.0189
75 3 5.64409 3.07222 10.6622
76 3 6.96431 1.25537 12.0202
80 3 4.69046 4.03264 8.57962
29 4 3.769 6.62451 11.1276
137 2 3.44673 1.33267 12.3838
114 2 0.948239 6.10766 13.5444
248 2 3.77267 3.96156 15.5868
124 2 3.4234 5.11793 11.799
136 2 2.03312 2.10788 13.3867
179 4 7.35907 2.5767 15.9277
183 1 5.84863 1.64569 15.297
77 3 7.10068 4.06814 15.9949
60 3 -0.378435 3.49205 8.48747
196 2 5.14896 2.52584 15.0666
117 2 5.17463 1.49 8.46503
227 3 4.7773 5.78464 15.7097
195 2 6.05351 0.925039 14.4343
245 1 3.03229 3.21119 15.2134
246 2 2.46611 3.55493 14.28
247 2 3.52187 2.13002 15.05
262 3 0.379699 1.92245 15.5292
228 2 2.31341 5.02895 15.4322
266 2 -1.7984 5.164 16.0387
149 2 2.35844 9.1946 7.82152
3 3 -5.86273 11.4344 0.930493
268 2 -4.71804 8.04023 0.380109
16 4 -3.23698 8.18113 6.75489
17 4 -4.67138 9.95873 4.80268
154 2 1.07849 9.56764 7.47598
161 2 -1.08057 10.0526 0.271972
31 4 -2.07733 10.3181 3.09392
33 4 0.0334129 11.0061 5.58944
48 1 -1.34925 8.97516 1.99608
49 1 0.199523 9.52836 6.75456
122 2 3.61067 7.95718 5.91167
68 3 -2.03586 7.52347 5.78899
28 4 4.10433 6.66027 4.94983
70 3 -4.49552 8.78502 5.86665
79 3 0.440008 7.25918 4.85419
87 3 1.7875 7.71687 2.34097
30 4 2.35031 8.25257 0.938148
89 3 -2.21666 11.8225 2.08723
90 3 -3.49483 10.0351 3.73043
93 3 -0.828124 10.7025 4.3631
94 3 -0.298749 12.3079 6.42663
115 2 -4.582 11.3456 5.70989
147 2 2.06975 7.70458 6.57029
151 2 -0.127962 9.38472 1.55875
152 2 -2.16556 8.8821 1.22428
153 2 -1.31472 8.11586 2.75597
272 2 0.657763 10.276 0.337654
155 2 0.243406 8.62417 5.90497
156 2 -0.859635 9.50689 7.31425
46 1 2.56186 8.06013 7.55046
148 2 3.67649 7.78185 7.61676
271 2 1.61594 10.3246 2.00644
19 4 -1.00946 12.8219 7.80354
1 4 -6.59505 12.5888 2.06947
69 3 -6.07141 9.92282 4.04628
91 3 -2.49921 9.45089 7.89829
265 2 -4.31674 12.6763 2.6629
47 1 1.63793 10.0303 0.89881
252 2 -5.55387 9.0644 1.82435
244 2 -5.51883 12.9054 4.22516
25 4 1.45828 6.54935 3.65071
251 1 -5.57429 8.72751 0.696869
133 2 -6.35546 12.9992 6.34625
159 2 1.43993 10.7554 13.4858
18 4 -2.15607 8.20443 12.9307
22 4 -0.601027 12.755 12.1141
32 4 -2.06159 10.421 9.06488
35 4 -1.39557 10.7068 14.354
43 1 -5.83661 11.1923 14.3094
15 4 -4.14393 10.9071 16.095
157 2 1.00717 9.15792 12.5468
51 1 0.134144 11.1188 15.4939
162 2 -0.0947966 12.1977 15.7149
72 3 -1.44596 8.30223 11.5435
83 3 0.138217 7.33087 9.39616
158 2 1.99667 10.5148 11.6897
92 3 -0.844548 11.3651 9.04031
95 3 3.58315 7.80567 12.1787
96 3 -1.14553 9.08925 13.9998
97 3 -1.30211 11.6318 12.9391
98 3 -2.75814 10.8519 15.2668
116 2 -3.63971 8.86694 12.8733
120 2 -0.593565 12.103 10.5229
126 2 -1.47492 9.40533 10.2784
127 2 -3.42629 11.1853 9.57253
128 2 2.60797 9.25189 14.3803
140 2 -6.05753 12.0576 15.0949
50 1 1.78556 10.0035 12.7352
139 2 -5.03117 11.4964 13.5575
160 2 1.0733 10.9582 14.8759
88 3 3.17302 7.80479 15.7783
187 3 0.93222 12.909 12.6194
27 4 1.68242 6.79413 8.75724
71 3 -2.64064 6.80287 13.6105
14 4 -0.908176 6.71623 10.446
86 3 2.76232 6.77564 9.89117
235 2 11.4337 1.4577 3.13659
37 4 13.0566 1.96974 5.77941
230 4 13.7095 0.197552 2.4833
39 4 11.3668 3.93211 7.66536
45 1 7.18251 4.85936 7.10367
54 1 10.4709 5.24548 6.72721
101 3 13.9421 3.11263 4.82962
102 3 13.8525 1.10518 6.80214
221 1 8.68411 0.259341 1.97693
4 4 14.9906 2.80804 3.60695
106 3 12.0877 2.92316 6.62823
232 3 14.4076 1.58157 2.67695
129 2 12.1916 0.8933 4.74322
130 2 7.74545 5.91273 3.10321
169 2 10.856 6.25645 7.07033
250 2 11.5539 4.82325 0.512334
146 2 7.76822 3.97277 6.74527
231 1 11.7398 0.396546 2.87536
145 2 7.28541 5.73931 6.41281
170 2 9.28331 5.15672 6.85612
171 2 10.82 5.0172 5.65051
234 2 11.5042 0.0932524 1.76958
224 2 8.74918 1.19326 1.28412
249 1 12.4172 5.44491 0.024176
103 3 5.6399 6.34505 1.2554
225 2 9.01081 0.46828 3.07141
273 2 9.37513 0.121567 0.0413518
207 4 14.5558 0.222033 7.8299
11 4 13.1002 6.27677 9.06874
36 4 9.20947 2.07413 9.29926
52 1 10.5078 0.824795 10.0691
188 3 8.7602 2.01182 14.8042
100 3 8.40475 2.90056 10.4934
107 3 12.6332 4.71835 8.96319
110 2 14.756 2.96031 10.3979
204 2 8.04412 6.20945 10.8208
202 2 14.0585 3.63861 12.0272
163 2 11.4654 1.46368 10.1181
6 4 16.052 2.30067 9.46803
165 2 10.1282 0.455379 11.1027
172 4 16.2384 2.50744 14.3332
173 1 14.6523 1.48832 13.7144
174 2 14.6201 2.7733 15.1081
175 2 15.7238 0.828914 13.2499
176 2 14.1128 2.03249 12.8058
144 2 7.33768 5.10506 8.22833
178 4 13.6239 5.6007 14.5302
180 4 9.94502 1.44883 13.9706
181 4 11.8989 3.82276 12.8201
205 2 9.33953 5.08852 9.51944
185 1 13.1152 3.2049 11.4454
186 1 8.90318 6.27684 10.0976
189 3 10.846 2.64626 13.3606
190 3 12.8753 4.34571 13.9844
192 3 11.0315 5.19682 12.077
263 3 15.4669 1.00842 8.76266
199 2 11.9904 1.01605 14.9609
200 2 12.958 3.78523 10.3867
201 2 12.969 2.0738 11.5309
182 4 10.6518 6.25666 10.9151
105 3 10.1727 3.09681 8.4085
177 2 13.9507 0.748763 14.2749
123 2 5.33483 6.3418 10.6662
184 1 10.9943 0.518213 15.1133
121 2 7.03767 3.86014 12.6124
237 1 7.32248 10.1791 0.0763586
256 2 1.42641 11.2738 3.82815
167 2 9.1306 7.41726 2.41012
53 1 8.18602 7.40501 2.97074
104 3 5.11818 7.25676 3.89012
233 2 2.85059 12.5205 3.66043
125 2 4.04292 8.16502 1.12259
150 2 2.55989 10.4664 0.364311
166 2 6.91324 8.54316 2.09443
168 2 8.4117 7.80649 3.90853
206 4 9.29102 10.3926 3.6976
215 2 7.01663 7.96584 6.94603
208 4 7.70336 10.2398 6.50096
209 1 6.33796 8.85906 6.5769
255 2 2.36677 12.2049 5.29865
211 3 8.25383 10.3519 5.0273
212 3 6.8724 11.7796 7.21435
213 2 8.65824 9.27742 2.52473
254 1 1.88399 11.2353 5.00452
216 2 5.97443 8.75728 5.46051
217 2 5.51725 9.24387 7.28001
219 2 9.88103 9.10662 7.09294
253 2 10.3213 8.33721 0.273407
270 2 0.700964 12.2012 1.5671
238 3 5.59665 12.2693 1.01906
240 2 8.0283 10.27 0.951455
239 2 6.47895 9.36334 0.315342
257 2 2.5121 10.3596 5.1632
258 1 5.96888 11.836 3.92994
259 2 6.62324 11.1237 3.50578
260 2 4.92811 11.4777 4.26762
261 2 6.39839 12.5359 4.65865
38 4 6.18056 7.00313 2.58624
210 1 9.12898 9.62526 7.73244
134 2 8.73204 12.7769 5.66365
2 3 9.21349 11.8641 3.07414
267 2 12.4919 6.61898 0.276504
67 3 12.939 6.88688 7.58915
198 2 2.58019 12.3083 14.7141
40 4 5.97197 11.2766 13.1834
108 3 4.74504 10.2867 13.0344
109 3 6.50931 11.5466 14.6233
214 2 4.97265 12.4823 8.85685
132 2 7.42411 10.799 12.4247
236 4 7.29875 11.9893 15.9317
34 4 3.53221 9.27307 12.8659
131 2 5.66022 12.754 12.5985
193 2 11.1774 9.89394 15.0627
218 2 9.55141 10.5542 8.21761
194 2 9.56757 7.47183 11.5367
241 2 9.04844 10.2819 15.3794
191 3 11.7987 7.02597 10.1837
264 2 8.93634 12.3924 15.5708
274 2 8.64201 8.97193 8.47444
164 2 2.05797 12.8339 9.28464
269 2 10.0503 11.0331 13.8001
203 2 8.67039 7.10564 9.36285
ITEM: TIMESTEP
100
ITEM: NUMBER OF ATOMS
274
ITEM: BOX BOUNDS xy xz yz pp pp pp
-8.3797999999999995e+00 1.8013900000000000e+01 -8.3797999999999995e+00
0.0000000000000000e+00 1.3273200000000001e+01 1.1950000000000001e+00
0.0000000000000000e+00 1.6236255000000003e+01 4.3120000000000003e-01
ITEM: ATOMS id type x y z
119 2 7.39048 1.18318 5.33283
12 4 -1.06142 6.38576 5.33692
7 4 0.917504 2.23917 5.22002
9 4 -0.506651 4.80382 1.96948
10 4 0.338745 4.47579 7.22994
242 1 3.25794 0.555955 3.22497
21 4 5.72033 1.35094 5.87872
26 4 5.32787 4.45744 6.94992
41 1 1.16987 0.599003 6.17045
44 1 3.7088 3.86482 1.83085
55 3 1.18155 1.08173 1.1043
56 3 -0.354154 2.29689 4.2506
58 3 -1.8929 4.53518 2.83692
59 3 -0.106976 3.51291 1.121
243 2 3.34422 1.71016 2.94326
61 3 1.04343 3.52107 6.13963
62 3 -0.845786 5.34898 6.49909
74 3 5.60667 0.389719 7.52636
78 3 0.650433 5.20709 2.97119
81 3 5.39134 2.85212 6.15736
84 3 2.80955 6.13988 4.28394
85 3 4.61266 5.55931 6.09963
113 2 -1.79639 5.47529 4.08007
111 2 2.40587 1.97229 4.28317
112 2 -0.662857 6.14068 0.914949
24 4 4.73215 4.82439 0.50482
118 2 4.48508 0.699674 4.7188
5 4 0.378034 2.17893 0.22809
222 3 6.2584 1.36912 1.22057
223 2 6.24989 0.823954 4.04404
141 2 4.16076 2.7956 1.77334
142 2 2.66128 3.92332 1.44322
143 2 3.92305 4.57195 2.76887
220 4 6.70413 0.324259 2.37514
82 3 1.43883 5.46807 8.02836
135 2 0.691361 0.981124 7.17992
244 2 2.8407 0.260239 4.30079
133 2 2.29239 0.344549 6.29985
25 4 1.42468 6.42536 3.68602
138 2 1.10081 0.747177 12.4532
8 4 1.98268 2.58639 10.9498
13 4 0.544895 4.80342 12.3688
229 2 3.52532 6.53107 13.5599
20 4 4.73243 2.99113 9.42444
23 4 7.03522 2.70275 11.4322
99 3 8.18939 1.12133 8.3949
226 4 3.51887 6.33879 15.217
42 1 2.10324 1.29291 12.3881
57 3 0.519305 2.34342 10.3473
63 3 -0.231996 3.70644 13.2364
64 3 2.00082 4.23027 11.8795
65 3 -2.25531 6.34561 9.64784
66 3 -0.333611 5.60535 11.3711
73 3 3.29439 2.57125 9.97811
75 3 5.66722 3.08802 10.6824
76 3 6.96303 1.23333 11.9882
80 3 4.82442 4.23442 8.45096
29 4 3.81026 6.57295 11.2574
137 2 2.91827 0.640187 12.0382
114 2 1.12792 6.03254 13.4341
248 2 3.54824 3.6826 15.8635
124 2 3.24115 5.36391 12.2075
136 2 2.31859 1.9434 13.301
179 4 7.28593 2.38845 15.9134
183 1 5.88024 1.32068 15.2515
77 3 6.7525 4.12623 15.9954
60 3 -0.385818 3.56426 8.42123
196 2 4.89729 1.91928 15.3723
117 2 5.16887 1.59472 8.48749
227 3 4.90894 5.94825 15.7408
195 2 6.14745 1.17669 14.1384
245 1 2.88618 3.12792 15.1599
246 2 2.35327 3.6615 14.338
247 2 3.35079 2.15857 14.837
262 3 0.370841 2.12862 15.3005
228 2 2.44021 5.04456 15.3091
123 2 5.36694 6.0309 11.0332
86 3 3.01157 6.6679 9.96199
149 2 2.15089 9.14371 7.53025
3 3 -5.85839 11.5548 0.957745
268 2 -4.28769 8.04831 0.0852391
16 4 -3.2434 8.17121 6.65022
17 4 -4.58402 9.93406 4.70971
154 2 0.766714 9.57857 7.63352
161 2 -1.075 10.1463 0.1961
31 4 -1.99148 10.2589 3.13101
33 4 0.126764 10.9571 5.58385
48 1 -1.35552 8.9712 1.81967
49 1 -0.0187371 9.46227 6.70957
67 3 -3.81466 7.015 7.63254
68 3 -2.04293 7.51615 5.75399
28 4 4.14408 6.61601 5.03748
70 3 -4.46789 8.8453 5.88389
79 3 0.434844 7.06482 4.85415
87 3 1.82964 7.61002 2.41277
30 4 2.29419 8.0569 0.982785
89 3 -2.09315 11.6502 2.07655
90 3 -3.43051 9.8376 3.63988
93 3 -0.800808 10.6047 4.26337
94 3 -0.337275 12.3225 6.29827
115 2 -4.40975 11.4895 5.44712
147 2 2.0333 7.51183 6.60523
151 2 -0.167641 9.27435 1.4573
152 2 -2.13912 8.96779 0.980619
153 2 -1.39812 8.08209 2.60297
272 2 0.662288 10.1736 0.199698
155 2 0.249591 8.46935 6.12579
156 2 -1.12454 9.48553 7.13209
46 1 2.48514 8.02981 7.49721
148 2 3.62015 7.95162 7.64285
271 2 1.65211 10.1539 1.83943
19 4 -1.05685 12.7212 7.79906
1 4 -6.51987 12.6508 1.98038
69 3 -6.01232 9.96667 4.01547
91 3 -2.64178 9.53202 7.84907
265 2 -4.3274 12.6609 2.81222
47 1 1.64142 9.85836 0.756742
252 2 -4.91792 9.03495 1.70695
251 1 -5.17511 8.60871 0.675684
159 2 1.35918 10.9813 13.3241
18 4 -2.15921 8.21948 12.9808
22 4 -0.560307 12.7447 12.133
32 4 -2.1574 10.4662 9.06536
35 4 -1.35722 10.8485 14.3898
43 1 -5.59888 11.0528 14.1872
15 4 -4.12249 10.7799 16.1046
157 2 0.899361 9.37555 12.4028
51 1 0.199527 11.2266 15.3886
162 2 0.0405258 12.3649 15.5061
72 3 -1.27611 8.00758 11.5724
83 3 0.539369 7.49359 9.56889
158 2 2.08499 10.5996 11.4674
92 3 -0.843918 11.3396 9.12892
95 3 3.63723 7.96344 12
96 3 -1.25024 8.99314 13.9509
97 3 -1.24683 11.6361 12.969
98 3 -2.75811 10.9883 15.3022
116 2 -3.34837 9.22846 12.5123
120 2 -0.444973 12.0298 10.5842
126 2 -2.16614 9.6004 10.4897
127 2 -3.35834 11.3052 9.82631
128 2 2.24388 9.19374 14.1826
140 2 -5.90753 11.9292 14.7
50 1 1.73172 10.116 12.5502
139 2 -4.55843 11.1848 13.7688
160 2 1.20626 11.0448 14.7198
88 3 2.73993 7.68272 15.8444
187 3 0.880351 13.0504 12.7151
27 4 1.77866 6.83521 8.90666
71 3 -2.71957 6.92365 13.684
14 4 -0.853254 6.8119 10.5577
34 4 3.39308 9.29868 12.8464
197 2 -2.41321 13.2232 15.9466
235 2 11.5103 1.51034 2.8957
37 4 13.047 2.0645 5.83554
230 4 13.7169 0.215828 2.46208
39 4 11.3138 3.96893 7.58636
45 1 7.13483 5.20015 7.05073
54 1 10.4101 5.37023 6.65516
101 3 14.0412 3.16361 5.01756
102 3 13.87 1.06796 6.8677
221 1 8.59331 0.363687 2.16762
4 4 15.0154 2.80555 3.76519
106 3 11.941 3.02043 6.54056
232 3 14.3695 1.64327 2.80686
129 2 12.1785 1.12109 4.66737
130 2 7.93391 5.8053 3.0252
169 2 10.9276 6.33948 7.05185
250 2 11.3202 4.92518 0.118764
146 2 7.71722 4.39871 6.52024
231 1 11.8458 0.442768 2.83505
145 2 7.09486 6.22489 6.54136
170 2 9.2566 5.37224 6.75465
171 2 10.8111 5.10025 5.6215
225 2 8.66962 0.683422 3.37693
224 2 8.90413 1.19953 1.5
273 2 9.1641 0.191424 0.219045
103 3 5.64794 6.09618 1.47098
207 4 14.6899 0.262325 7.92089
234 2 11.4758 0.116639 1.77891
11 4 13.0822 6.12441 8.96456
36 4 9.20854 2.17923 9.19981
52 1 10.4976 1.08213 10.0826
188 3 8.56676 1.99926 15.002
100 3 8.33209 2.80197 10.4362
107 3 12.717 4.58365 8.74595
110 2 14.7575 3.06154 10.4953
204 2 8.12988 5.86822 10.9794
202 2 13.9891 3.60223 11.9408
163 2 11.5615 1.45197 10.0559
6 4 16.0276 2.491 9.44976
165 2 10.1092 0.822435 11.1345
172 4 16.1638 2.43188 14.1116
173 1 14.3511 1.53736 13.7218
174 2 14.4914 2.74404 14.9219
175 2 15.696 0.80474 13.1233
176 2 13.8369 2.10598 12.8312
144 2 7.42453 5.29749 8.16668
178 4 13.7372 5.59943 14.411
180 4 9.86068 1.49146 14.0301
181 4 11.808 3.90399 12.7723
205 2 9.3392 4.9977 9.74464
185 1 12.9981 3.24004 11.3683
186 1 9.00928 5.99726 10.3208
189 3 10.8623 2.50999 13.2551
190 3 12.8128 4.48265 13.8785
192 3 11.0108 5.0531 12.0759
263 3 15.5566 1.17227 8.8421
199 2 11.8209 1.21328 15.2418
200 2 12.8513 3.78957 10.2751
201 2 12.9333 2.1107 11.2259
182 4 10.8236 6.21489 11.0255
105 3 10.1692 3.23617 8.4553
177 2 13.6829 0.666697 14.1373
249 1 13.5633 5.9074 16.1043
184 1 10.8687 0.620253 15.311
121 2 7.26689 3.73231 12.7516
266 2 14.8974 5.16063 16.1124
237 1 7.44151 10.1345 0.116573
256 2 1.61301 11.3181 3.84366
167 2 9.05673 7.56461 2.33428
53 1 8.09748 7.41374 2.90539
104 3 5.34054 7.03082 4.0942
233 2 2.90091 12.5995 3.67854
125 2 3.95351 7.94256 0.909301
150 2 2.57194 10.3136 0.203636
166 2 6.95111 8.55892 2.11859
168 2 8.16507 7.92265 4.01757
206 4 9.32271 10.436 3.77341
215 2 6.52187 8.46284 7.57897
208 4 7.67895 10.3599 6.68308
209 1 6.20974 9.06019 6.64363
255 2 2.25903 12.3316 5.38053
211 3 8.43603 10.3099 5.00502
212 3 7.03325 11.7466 7.33117
213 2 8.61282 9.35416 2.64268
254 1 1.94062 11.3232 4.94488
216 2 6.23935 8.5595 5.66604
217 2 5.31834 9.81733 6.82343
219 2 10.1103 9.42233 7.1978
253 2 10.5373 8.24397 0.578048
267 2 12.4674 6.6147 0.222106
238 3 5.51236 12.2058 0.958355
240 2 8.01366 10.3292 1.05004
239 2 6.62457 9.25159 0.277001
257 2 2.66613 10.4763 5.19163
258 1 5.95684 11.8311 3.86375
259 2 6.62985 11.1359 3.24166
260 2 5.08679 11.3044 4.30391
261 2 6.5531 12.6566 4.51035
38 4 6.2513 6.89255 2.67021
210 1 9.19607 9.79456 7.74952
134 2 9.01286 12.6967 5.64209
2 3 9.27989 11.8381 2.95239
270 2 0.704872 12.207 1.9199
122 2 3.76158 8.04189 5.9999
198 2 2.57764 12.4001 14.8133
40 4 5.73479 11.3527 13.1249
108 3 4.6073 10.3255 13.0433
109 3 6.45788 11.5171 14.5551
214 2 5.16714 12.5323 8.92629
132 2 6.83819 10.9541 12.031
236 4 7.31258 11.8326 15.8572
203 2 8.90374 6.82174 9.60233
131 2 5.43781 12.923 12.484
193 2 11.1323 9.82362 15.0758
218 2 9.41625 10.6575 8.49724
194 2 9.67266 7.39853 11.59
241 2 9.31936 10.3797 15.4367
191 3 11.7919 6.81361 10.0106
264 2 8.98376 12.2796 15.4853
274 2 8.50215 8.89509 8.19702
164 2 2.04764 13.0076 9.39526
269 2 10.4617 10.9683 13.2978
ITEM: TIMESTEP
200
ITEM: NUMBER OF ATOMS
274
ITEM: BOX BOUNDS xy xz yz pp pp pp
-8.3797999999999995e+00 1.8013900000000000e+01 -8.3797999999999995e+00
0.0000000000000000e+00 1.3273200000000001e+01 1.1950000000000001e+00
0.0000000000000000e+00 1.6236255000000003e+01 4.3120000000000003e-01
ITEM: ATOMS id type x y z
119 2 7.33285 1.41605 5.45544
12 4 -1.14386 6.47774 5.37597
7 4 1.03908 2.32827 5.00951
9 4 -0.431477 4.6925 1.94661
10 4 0.287857 4.64158 7.29734
242 1 3.36395 0.64108 3.02357
21 4 5.67122 1.42524 5.7796
26 4 5.41727 4.51851 7.01103
41 1 0.981261 0.715522 5.94026
44 1 3.77613 3.78963 1.8129
55 3 0.992752 1.0554 1.17838
56 3 -0.32873 2.29377 4.21301
58 3 -1.75581 4.40802 2.99351
59 3 -0.0989635 3.64654 0.779322
243 2 3.53072 1.7567 2.70319
61 3 1.12388 3.49018 6.09482
62 3 -0.669253 5.6374 6.56616
74 3 5.70066 0.349986 7.43344
78 3 0.839053 5.02729 2.75725
81 3 5.45127 2.93643 6.16127
84 3 2.81601 6.02403 4.27144
85 3 4.74049 5.71383 6.15731
113 2 -1.95411 5.44888 4.23896
111 2 2.37142 2.15768 3.96056
112 2 -0.974157 6.04172 1.1179
24 4 4.73829 4.842 0.593668
118 2 4.38346 0.879047 4.70029
5 4 0.261161 2.13944 0.157054
222 3 6.2967 1.31879 1.30645
223 2 6.20418 0.84953 4.07228
141 2 4.30731 2.70648 2.04176
142 2 2.7396 3.79876 1.34473
143 2 3.905 4.4648 2.73004
220 4 6.78753 0.337066 2.43455
25 4 1.39091 6.41433 3.60189
135 2 0.253147 0.742182 6.8007
244 2 2.91657 0.406174 3.99594
133 2 2.05345 0.578832 6.27311
82 3 1.3586 5.47009 8.11039
138 2 1.35144 0.569137 11.7641
8 4 2.04529 2.68176 10.9509
13 4 0.493029 4.83774 12.5345
229 2 3.59975 6.36524 13.5169
20 4 4.77224 2.89931 9.4614
23 4 7.09098 2.70452 11.5344
99 3 8.1094 1.1684 8.49891
226 4 3.37836 6.25751 15.2259
42 1 2.2718 1.12778 12.0421
57 3 0.662955 2.42008 10.1833
63 3 -0.365011 3.6237 13.1417
64 3 1.98971 4.19276 12.1842
65 3 -2.17419 6.33683 9.61288
66 3 -0.0968357 5.53495 11.2934
73 3 3.33141 2.47124 9.9593
75 3 5.7704 3.14362 10.6424
76 3 6.87272 1.17725 12.0047
80 3 4.8855 4.1694 8.54401
29 4 3.81412 6.58876 11.2644
137 2 3.23803 0.685991 11.6945
114 2 0.603258 5.93444 13.8144
248 2 3.47365 3.85464 15.6395
124 2 3.31034 5.14225 11.9713
136 2 2.32411 1.44009 13.1562
179 4 7.24066 2.33973 15.8721
183 1 5.79228 1.38897 15.12
77 3 6.6818 3.87456 15.9419
60 3 -0.654885 3.7061 8.19647
196 2 4.99942 2.15461 14.6743
117 2 5.20899 1.54406 8.4496
227 3 4.74208 5.86742 15.9308
195 2 6.31855 0.691493 14.3652
245 1 2.81868 2.97408 15.1171
246 2 2.26789 3.31924 14.1945
247 2 3.4146 2.03317 14.9247
262 3 0.263887 2.17446 15.4086
228 2 2.30957 4.87347 15.0856
197 2 5.41063 0.803505 16.0201
6 4 -0.721199 2.53617 9.32387
149 2 2.23069 9.14255 7.95749
3 3 -5.89515 11.6311 0.915582
267 2 -4.1631 6.48381 0.233131
16 4 -3.23349 8.20144 6.69438
17 4 -4.54741 9.87269 4.65976
154 2 0.957236 9.58485 7.3626
161 2 -0.990006 9.94183 0.215212
31 4 -1.96641 10.1337 2.90535
33 4 0.142008 10.9392 5.39239
48 1 -1.11075 8.76028 1.85683
49 1 0.185014 9.45808 6.57099
67 3 -3.75844 6.97434 7.58723
68 3 -2.03405 7.67534 5.81294
28 4 4.05302 6.64974 5.02004
70 3 -4.3909 8.82046 5.8587
79 3 0.234826 7.03029 4.78558
87 3 1.56186 7.53914 2.49468
30 4 2.14972 8.11176 1.11833
89 3 -1.93286 11.5849 2.12949
90 3 -3.42183 9.69052 3.54183
93 3 -0.795381 10.4954 4.04835
94 3 -0.479049 12.0648 6.35627
115 2 -4.1857 11.4203 5.37271
147 2 2.05125 7.6162 6.82081
151 2 -0.115289 9.24911 1.51082
152 2 -1.84325 8.43421 1.05663
153 2 -0.908375 7.96371 2.58744
272 2 0.62405 10.1852 0.268692
155 2 0.37609 8.55371 5.91464
156 2 -0.855899 9.40935 7.05816
46 1 2.53889 8.10141 7.71426
148 2 3.6514 7.92986 7.76882
271 2 1.58083 10.3035 1.9763
19 4 -1.12183 12.7015 7.80196
1 4 -6.54029 12.6588 1.97724
69 3 -6.04279 10.0029 4.10403
91 3 -2.51102 9.51378 7.85497
265 2 -4.2962 12.7092 2.512
47 1 1.64557 9.91736 0.89881
252 2 -4.5034 9.24708 1.80005
251 1 -4.98415 8.78509 0.817643
134 2 -7.6854 12.715 5.20462
122 2 3.59257 8.03354 5.95777
2 3 -7.48854 11.9449 3.05854
270 2 0.460474 12.2651 1.78188
268 2 -4.20247 8.30588 0.14641
159 2 1.18003 10.8253 13.4465
18 4 -2.06768 8.24491 12.9294
22 4 -0.58793 12.7457 12.1371
32 4 -2.24972 10.4363 9.06575
35 4 -1.35285 10.6942 14.4076
43 1 -5.53326 10.8777 14.2206
15 4 -4.05301 10.9029 16.0889
157 2 0.83307 9.10555 12.417
51 1 0.166733 11.1175 15.5159
162 2 0.0461982 12.1939 15.8464
72 3 -1.3828 7.97313 11.5198
83 3 0.228149 7.509 9.56346
158 2 1.85464 10.5052 11.3681
92 3 -0.921809 11.345 9.20919
95 3 3.65536 7.95925 12.0795
96 3 -1.13172 9.20345 13.9728
97 3 -1.32586 11.7584 13.0923
98 3 -2.69352 11.0989 15.3407
116 2 -3.59862 8.9821 12.7402
120 2 -0.46257 11.9731 10.5907
126 2 -2.46853 9.52075 10.4733
127 2 -3.62598 11.2798 9.51884
128 2 2.33059 9.45719 14.2316
140 2 -5.86637 11.9662 14.6811
50 1 1.54982 10.0287 12.5578
139 2 -4.51933 10.9665 13.673
160 2 1.13561 11.0008 14.8006
88 3 2.75362 7.54699 15.9179
187 3 0.867419 13.085 12.675
27 4 1.78177 6.75866 8.96084
71 3 -2.46787 6.89654 13.7146
14 4 -0.887937 6.8256 10.4717
34 4 3.33783 9.53744 12.7729
86 3 2.99223 6.68903 9.96262
235 2 11.6558 1.75273 3.07237
37 4 13.0617 2.02688 5.88792
230 4 13.6042 0.132755 2.50739
39 4 11.2664 3.9606 7.5575
45 1 7.25897 5.05114 7.06872
54 1 10.5161 5.48926 6.74794
101 3 14.1024 2.93422 5.07875
102 3 13.7801 1.10384 6.88037
221 1 8.67073 0.471317 2.27519
4 4 15.0463 2.69875 3.73893
106 3 11.7421 2.8779 6.42585
232 3 14.2834 1.55749 2.84457
129 2 12.2605 1.02642 4.73928
130 2 7.60842 5.57112 3.56145
169 2 10.9868 6.38966 7.31631
250 2 11.5202 4.94475 0.381782
146 2 7.87261 4.24536 6.50163
231 1 11.6802 0.612197 2.89733
145 2 7.38569 6.10408 6.57259
170 2 9.27362 5.3836 6.81993
171 2 10.9441 5.26293 5.67192
225 2 8.95652 0.39044 3.41652
224 2 9.17837 1.35022 1.7724
273 2 9.20654 0.316757 0.262327
103 3 5.61297 5.76809 1.63764
207 4 14.7275 0.290566 7.93478
234 2 11.2804 0.247142 1.9299
11 4 13.2119 6.14176 9.03024
36 4 9.10217 2.15284 9.308
52 1 10.411 1.07317 10.1057
188 3 8.48537 2.03466 14.8551
100 3 8.32718 2.87647 10.5296
107 3 12.7078 4.58082 8.70738
110 2 14.7099 2.91712 10.2903
204 2 7.94836 5.92276 10.7067
202 2 14.0866 3.41366 11.7884
163 2 11.413 1.51341 10.0447
121 2 7.28246 3.71311 12.8418
165 2 10.0463 0.870971 11.1986
172 4 16.164 2.40734 14.0953
173 1 14.2407 1.60252 13.8365
174 2 14.2915 2.46947 14.6737
175 2 15.8833 0.90786 13.1203
176 2 13.7506 2.1685 12.8934
266 2 14.9739 5.04709 15.9772
178 4 13.7905 5.65716 14.4257
180 4 9.82115 1.51876 14.0769
181 4 11.8082 3.7726 12.6953
205 2 9.16206 5.38862 9.44347
185 1 13.0347 3.18602 11.3088
186 1 8.90933 6.26489 10.1766
189 3 10.8473 2.61218 13.4177
190 3 12.9649 4.39826 13.8299
192 3 10.9788 5.0612 11.9034
263 3 15.6915 1.16032 8.72441
199 2 11.8285 1.27819 15.2333
200 2 12.7986 3.69604 10.226
201 2 12.6258 2.06158 11.4042
182 4 10.7262 6.14848 10.8562
105 3 10.0288 3.41246 8.34941
177 2 13.4636 0.710263 14.1631
249 1 13.6597 5.89566 16.1106
184 1 10.8115 0.672373 15.3624
123 2 5.43861 6.28831 10.9979
144 2 7.45408 5.03614 8.20144
191 3 11.9836 6.61842 10.0528
237 1 7.66079 10.2528 0.0982948
256 2 1.82546 11.1384 3.8712
167 2 8.82019 6.69343 2.333
53 1 8.1208 7.31704 2.9461
104 3 5.22928 7.16334 3.97976
233 2 2.88714 12.8073 3.77128
125 2 3.90179 8.16694 1.12929
150 2 2.57755 10.2306 0.336118
166 2 7.29994 8.20868 1.98842
168 2 8.47372 7.71578 3.8704
206 4 9.2836 10.4984 3.81602
215 2 6.10193 8.89577 7.75522
208 4 7.69174 10.5438 6.66163
209 1 6.26988 9.18582 6.67992
255 2 2.32413 12.3576 5.22868
211 3 8.53708 10.6011 5.14344
212 3 7.07419 11.9102 7.22609
213 2 8.54718 9.28195 2.88377
254 1 2.01926 11.313 4.98864
216 2 6.52996 8.30126 6.05205
217 2 5.45962 9.84238 6.22829
219 2 10.1036 9.91962 7.67509
253 2 10.99 8.13089 0.932684
210 1 9.03543 9.99939 8.01533
238 3 5.54993 12.0921 1.06344
240 2 8.03934 10.4137 1.18039
38 4 6.29667 6.60711 2.88789
257 2 2.54103 10.4975 5.5604
258 1 6.03449 11.7644 3.78235
259 2 6.35753 10.8324 3.27969
260 2 5.04681 11.7213 4.43637
261 2 6.85013 12.3342 4.25583
198 2 2.47319 12.422 14.9262
40 4 5.74299 11.52 13.2162
108 3 4.49004 10.5631 12.8868
109 3 6.47228 11.5993 14.6029
214 2 5.36755 12.4223 9.05598
132 2 6.81843 11.0457 12.1299
236 4 7.33812 11.7313 15.9149
203 2 8.82578 7.23013 9.53969
131 2 5.47881 13.0722 12.4823
193 2 11.4182 9.6547 15.191
218 2 8.92797 10.6427 8.88516
194 2 9.7295 7.42356 11.5171
241 2 9.72333 10.8065 15.5629
164 2 1.87744 12.9759 9.3969
264 2 8.89436 12.3805 15.4051
274 2 8.59474 8.99508 8.22799
269 2 10.4897 10.6416 13.5222
239 2 8.23093 9.65695 16.1762
ITEM: TIMESTEP
300
ITEM: NUMBER OF ATOMS
274
ITEM: BOX BOUNDS xy xz yz pp pp pp
-8.3797999999999995e+00 1.8013900000000000e+01 -8.3797999999999995e+00
0.0000000000000000e+00 1.3273200000000001e+01 1.1950000000000001e+00
0.0000000000000000e+00 1.6236255000000003e+01 4.3120000000000003e-01
ITEM: ATOMS id type x y z
119 2 7.35571 1.36977 5.20384
12 4 -1.01485 6.46099 5.25776
7 4 0.920682 2.43075 5.06005
9 4 -0.391509 4.60773 1.90586
10 4 0.396177 4.53989 7.2338
242 1 3.11147 0.627045 3.20312
21 4 5.74354 1.47294 5.66848
26 4 5.45777 4.47027 6.8735
41 1 1.03528 0.824448 6.03253
44 1 3.76065 3.52463 2.00665
55 3 1.01316 1.06029 1.10848
56 3 -0.359628 2.42004 4.24248
58 3 -1.75836 4.42041 2.8543
59 3 -0.11506 3.47133 0.876819
243 2 3.71283 1.73831 3.148
61 3 1.12855 3.57538 6.10996
62 3 -0.585688 5.59179 6.45524
74 3 5.68195 0.434018 7.34666
78 3 0.901727 5.07578 2.72213
81 3 5.48099 3.02717 5.83935
84 3 2.85171 6.15404 4.42655
85 3 4.8151 5.71675 6.08756
113 2 -1.81195 5.46139 4.10753
111 2 2.31821 2.29783 4.004
112 2 -0.776252 5.94741 0.99508
24 4 4.64314 4.52432 0.691208
118 2 4.47146 0.811873 4.6159
5 4 0.280572 2.08764 0.0993975
222 3 6.23432 1.34699 1.18275
223 2 6.25592 0.855166 3.83665
141 2 3.68149 2.40061 1.92906
142 2 2.7002 3.95828 2.07462
143 2 4.39876 3.8939 2.93207
220 4 6.8529 0.306562 2.23217
25 4 1.49612 6.40447 3.50537
135 2 0.780581 0.989667 7.13346
244 2 2.7348 0.307025 4.26112
133 2 2.08243 0.397378 5.95809
82 3 1.54304 5.32932 8.18485
8 4 1.99641 2.7003 10.9695
13 4 0.457983 4.78205 12.5337
229 2 3.50154 6.47626 13.5261
20 4 4.74848 2.97964 9.40093
23 4 7.03253 2.71962 11.4763
99 3 8.11091 1.15645 8.2815
226 4 3.36418 6.27805 15.2489
42 1 2.21923 1.06463 11.9373
57 3 0.584502 2.63314 10.2486
63 3 -0.491839 3.69695 13.228
64 3 2.06819 4.12066 12.3379
65 3 -2.17666 6.10859 9.77598
66 3 -0.195729 5.58183 11.4023
73 3 3.34028 2.87355 10.0809
75 3 5.75009 3.15165 10.6458
76 3 6.93813 1.26673 12.1655
80 3 4.99937 4.16897 8.40416
6 4 -0.712363 2.5502 9.29984
137 2 3.3084 0.791303 11.7784
114 2 0.909529 5.9814 13.5661
248 2 3.35369 3.87325 15.7585
124 2 3.0901 5.34366 12.2808
136 2 1.91408 1.12799 13.0648
179 4 7.21681 2.46338 15.8568
183 1 5.73777 1.5255 15.1534
77 3 6.87484 4.01471 16.0013
60 3 -0.602533 3.646 8.18201
196 2 5.10784 2.18515 14.4283
117 2 5.07408 1.56443 8.46435
227 3 4.76832 5.75029 15.9978
195 2 6.14374 0.679993 14.57
245 1 2.81573 3.15188 15.09
246 2 2.69478 3.54555 14.02
247 2 3.39597 2.05139 15.14
138 2 1.4987 0.442966 11.3258
228 2 2.19482 5.04799 15.248
197 2 5.15629 1.22988 16.1269
149 2 2.20963 9.02636 7.71587
3 3 -5.8772 11.6374 0.928111
268 2 -4.08882 8.54792 0.531177
16 4 -3.20955 8.17817 6.7201
17 4 -4.4377 9.95523 4.73112
154 2 0.916273 9.42578 7.40345
161 2 -1.05958 9.96219 0.3124
31 4 -1.95815 10.1521 3.04443
33 4 0.0408231 10.9007 5.57723
48 1 -1.26588 8.77518 1.91511
49 1 0.132041 9.30354 6.6478
67 3 -3.72639 6.94706 7.582
68 3 -2.1177 7.57299 5.67022
28 4 4.09028 6.77941 5.10263
70 3 -4.38099 8.85081 5.94766
79 3 0.25483 7.0379 4.52104
87 3 1.75219 7.58531 2.3454
30 4 2.35841 8.00726 0.979258
89 3 -2.0072 11.6435 2.05354
90 3 -3.36572 9.72456 3.53706
93 3 -0.921382 10.4391 4.32159
94 3 -0.398316 12.179 6.35106
115 2 -4.1307 11.4747 5.45224
147 2 2.07416 7.54743 6.47639
151 2 -0.0980765 9.14073 1.53877
152 2 -2.01773 8.67134 1.05137
153 2 -1.21615 7.87028 2.55346
272 2 0.758644 10.0817 0.270892
155 2 0.383204 8.47343 5.89766
156 2 -0.954584 9.23397 7.1098
46 1 2.49106 7.91811 7.45685
148 2 3.54497 7.60879 7.74144
271 2 1.55432 10.0074 2.04743
19 4 -1.13527 12.7842 7.70092
1 4 -6.668 12.7074 2.10299
69 3 -5.90777 10.0112 4.0274
91 3 -2.63755 9.5306 7.87194
265 2 -4.48126 12.6203 2.71995
47 1 1.70459 9.80255 0.901833
252 2 -5.06751 9.34977 1.9797
251 1 -5.1161 8.98078 0.944314
159 2 1.53075 11.0577 13.5634
18 4 -2.09311 8.21931 13.0046
22 4 -0.523927 12.781 12.1728
32 4 -2.18273 10.3458 9.09036
35 4 -1.318 10.7876 14.4458
43 1 -5.56565 10.844 14.2653
15 4 -4.09698 11.0287 16.1867
157 2 0.774112 9.42137 12.6836
51 1 0.204726 11.1244 15.4851
162 2 0.161549 12.2167 15.7192
72 3 -1.46719 8.14021 11.5086
83 3 0.299184 7.3529 9.33944
158 2 1.92027 10.562 11.5062
92 3 -1.15404 11.5153 9.10554
95 3 3.70403 8.13516 12.0671
96 3 -1.10962 9.03675 14.0012
97 3 -1.2274 11.6651 13.1403
98 3 -2.71316 11.0047 15.356
116 2 -3.51115 9.12093 12.6901
120 2 -0.597649 12.1483 10.5737
126 2 -1.58565 9.26405 10.2281
127 2 -3.66487 10.739 9.82019
128 2 2.40441 9.32827 14.2808
140 2 -5.98176 11.7826 14.6388
50 1 1.64128 10.177 12.7102
139 2 -4.70868 11.0091 13.59