ITEM: TIMESTEP
0
ITEM: NUMBER OF ATOMS
274
ITEM: BOX BOUNDS xy xz yz pp pp pp
-8.3797999999999995e+00 1.8013900000000000e+01 -8.3797999999999995e+00
0.0000000000000000e+00 1.3273200000000001e+01 1.1950000000000001e+00
0.0000000000000000e+00 1.6236255000000003e+01 4.3120000000000003e-01
ITEM: ATOMS id type x y z
223 2 6.40631 1.00496 3.8192
12 4 -0.797397 6.43552 5.35605
7 4 1.0256 1.92755 5.33495
9 4 -0.834441 4.40217 2.04479
10 4 0.531471 4.31574 7.39059
220 4 6.77827 0.426568 2.15644
21 4 5.9881 1.65936 5.59934
26 4 5.22968 4.70295 6.69811
41 1 0.552639 0.601404 6.65102
44 1 3.86106 3.74796 1.72154
55 3 1.27932 0.509008 1.17203
56 3 -0.203335 2.12237 4.35452
58 3 -1.98022 4.20245 3.25346
59 3 -0.201513 3.06633 1.33685
243 2 3.04608 1.09527 2.87077
61 3 1.42435 3.19474 6.28321
62 3 -0.192309 5.44115 6.43986
74 3 5.56377 0.630203 7.19974
78 3 0.221229 5.51772 2.44684
81 3 5.58231 3.23565 5.74904
84 3 2.77773 5.85503 3.82422
85 3 4.28819 5.79584 5.8672
222 3 6.21431 1.41133 1.03184
111 2 2.45507 1.34039 4.61033
112 2 -1.66786 5.10087 0.704151
24 4 5.00866 4.86381 0.655173
118 2 4.66681 1.03354 4.4438
113 2 -1.44819 5.32031 4.25478
143 2 3.41991 4.4792 2.50036
135 2 0.839317 0.702774 7.73774
141 2 4.55145 2.95341 2.19684
142 2 3.00509 3.23508 0.901841
119 2 7.57966 1.54069 5.06929
5 4 0.507327 1.83136 0.511956
242 1 3.4377 0.14063 3.36901
60 3 -0.588016 3.43641 8.08721
138 2 2.65286 1.74289 13.0342
8 4 1.94215 2.74907 10.9487
13 4 0.542546 4.75146 12.818
267 2 -0.896294 5.95286 15.2323
20 4 4.64144 3.16659 9.16638
23 4 6.9961 2.99947 11.2449
117 2 5.17959 1.88724 8.12327
29 4 3.68549 6.59081 11.2515
42 1 2.43472 1.25521 12.0079
57 3 0.435768 2.38848 10.3504
63 3 -0.184753 3.4593 13.5269
64 3 1.95322 4.16973 12.2509
65 3 -2.24174 5.52073 9.78202
66 3 -0.347795 5.4572 11.7393
73 3 3.21286 2.75754 9.85175
75 3 5.6961 3.35524 10.3624
76 3 6.82108 1.53884 11.811
80 3 4.61033 4.43935 8.18917
262 3 0.476737 1.78716 15.6584
82 3 1.51839 5.13405 8.47039
114 2 0.943927 5.884 14.0074
99 3 8.0845 1.30468 8.34583
124 2 3.23222 5.24271 12.1935
136 2 3.4006 0.914612 11.4694
179 4 7.35153 2.56621 15.8348
183 1 5.89756 1.75146 14.9338
249 1 -1.79825 5.26832 15.4895
195 2 6.34249 0.752715 14.2405
196 2 5.432 2.54501 14.2027
137 2 1.64058 0.460311 12.0366
227 3 5.22555 6.2737 16.0741
228 2 2.75665 6.40102 15.2263
245 1 2.98499 3.1513 15.6254
246 2 2.37227 3.08868 14.6523
247 2 4.02668 2.60968 15.4496
27 4 1.64161 6.62557 8.99894
248 2 3.08124 4.20856 16.0687
197 2 5.19666 1.38227 15.767
14 4 -0.987198 6.43572 10.6587
123 2 5.18812 6.10929 10.7125
1 4 -6.56906 12.1614 2.00644
3 3 -5.80275 10.9852 0.946469
25 4 1.23921 6.53885 3.14345
16 4 -3.03945 8.0171 6.64015
17 4 -4.71246 9.87799 5.03765
265 2 -4.30226 12.3425 2.61802
30 4 2.55082 8.82126 1.21157
31 4 -2.23059 10.424 2.96133
33 4 -0.00200918 11.1199 5.39002
48 1 -1.21929 9.01659 2.16761
49 1 0.149785 9.55934 6.52983
47 1 1.53719 10.433 1.24541
68 3 -1.93526 7.50474 5.60048
253 2 -5.15332 8.50082 1.83536
70 3 -4.41668 8.4772 5.87403
79 3 0.440319 7.19717 4.55168
87 3 1.71035 7.68807 2.08103
252 2 -4.37954 7.51264 0.396581
89 3 -2.21887 11.7035 2.01646
90 3 -3.6741 10.0709 3.75042
93 3 -1.04016 10.7695 4.21986
94 3 -0.493108 12.3276 6.39252
115 2 -4.39529 11.1727 6.07824
147 2 1.57458 7.46546 6.72269
151 2 -0.18315 9.50359 1.76282
152 2 -1.89041 8.5992 1.33923
153 2 -1.05565 8.28177 3.06483
149 2 2.05249 8.8808 7.79693
155 2 0.292397 8.68298 5.77355
156 2 -0.918841 9.54686 7.01948
271 2 0.622085 10.4103 0.454097
244 2 -5.6233 12.4519 4.16744
91 3 -2.47453 9.52017 7.63976
67 3 -3.30565 6.84019 7.70231
133 2 -7.28603 12.5057 6.14812
122 2 2.84303 7.92962 5.55692
46 1 2.27862 7.82083 7.48791
154 2 1.01135 9.64454 7.29564
148 2 3.42319 7.67321 7.31961
161 2 -1.09206 9.8774 0.320563
28 4 3.7756 6.76798 4.68211
150 2 1.30344 10.6515 2.38755
19 4 -1.24985 12.8965 7.76149
86 3 2.7671 6.72753 10.0526
18 4 -2.05335 8.37472 12.7346
159 2 1.58191 11.6062 12.7375
32 4 -2.44079 10.4964 8.88153
35 4 -1.35698 10.7224 14.4498
71 3 -2.58237 7.17857 13.6616
160 2 0.900027 10.3084 14.7637
50 1 2.0922 10.5804 12.7367
51 1 0.214464 10.8807 15.4395
15 4 -4.14523 10.2442 16.1574
72 3 -1.50544 7.69742 11.4066
83 3 0.19838 7.06395 9.54624
88 3 3.98349 8.64299 15.9148
92 3 -1.3238 11.5415 9.12904
95 3 3.81975 7.85634 12.1072
96 3 -1.09437 9.37486 13.5394
97 3 -1.43106 12.2967 13.3106
98 3 -2.6092 10.4612 15.379
116 2 -3.4344 9.18879 12.2638
120 2 -0.714626 12.1447 10.7426
126 2 -2.37294 9.47947 10.2562
127 2 -3.96911 11.1741 8.88571
128 2 2.68576 10.3078 14.0548
226 4 4.22686 7.23334 15.291
162 2 0.360415 11.9726 15.449
157 2 1.30027 9.77033 12.5311
140 2 -5.00245 10.2139 13.6992
229 2 4.5267 7.4469 13.6301
22 4 -0.66607 13.0926 12.1615
235 2 11.8031 1.95583 2.02212
37 4 12.9365 1.72255 6.07392
234 2 11.8757 0.487364 0.726743
39 4 11.2013 3.99081 7.24897
45 1 6.8658 5.6355 6.72228
54 1 10.8448 5.39456 5.96052
101 3 14.1834 2.58135 5.52798
102 3 13.2226 0.980009 7.45431
103 3 5.78794 5.73952 1.73362
233 2 11.3807 0.190662 2.6754
106 3 11.5633 2.7253 6.21451
232 3 14.4856 1.2722 3.14504
129 2 12.5575 0.447158 5.01286
130 2 7.40188 5.58453 3.89961
4 4 15.1078 2.43944 4.1058
145 2 7.58652 5.21358 6.00291
225 2 8.84321 0.68081 3.11724
231 1 11.9938 0.888863 1.83419
169 2 11.369 6.30082 6.33764
170 2 9.73585 5.53738 5.99296
171 2 11.2316 4.99831 4.97207
221 1 8.68308 0.434295 1.97695
224 2 8.94582 1.29267 1.24462
105 3 9.74647 3.7816 7.91645
146 2 7.16226 5.41482 7.83518
250 2 13.4435 4.96749 0.342139
134 2 16.2452 0.410516 6.48456
230 4 13.6149 0.11126 2.39317
273 2 9.44846 0.298181 0.0384854
11 4 13.2958 5.83651 8.87262
36 4 9.0146 2.40271 9.05334
52 1 10.5141 1.41674 9.62046
182 4 10.798 6.21812 10.6804
100 3 8.3256 3.17522 10.3005
107 3 12.4327 4.51874 8.30098
110 2 14.6006 3.16556 10.2879
6 4 15.8989 2.56273 9.33836
177 2 13.6806 0.469731 14.0464
163 2 11.4039 2.01146 9.14428
121 2 7.10309 4.06078 12.6432
165 2 10.5293 1.50397 10.786
172 4 16.1872 2.14688 14.3066
173 1 14.4221 1.3112 13.7874
174 2 14.3383 2.25626 15.1455
202 2 13.9794 3.65323 11.9541
176 2 13.9214 1.91546 12.9409
187 3 9.28154 0.447437 12.6201
178 4 13.5202 6.04182 14.6405
180 4 9.88545 1.52812 13.9334
181 4 11.7361 3.99119 12.6551
188 3 8.65107 2.07482 14.7977
185 1 13.0465 3.08001 11.5217
263 3 15.4202 1.11808 8.93217
189 3 10.8632 2.83625 13.2431
190 3 12.6758 4.85478 13.8731
192 3 10.8121 5.1697 11.8082
203 2 9.31892 5.37743 9.12927
199 2 12.0104 0.960314 14.8093
200 2 12.5975 3.51841 10.5246
201 2 12.9653 1.90684 11.487
175 2 16.0011 0.742575 13.0739
184 1 11.0332 0.591894 15.1404
186 1 9.09873 6.32594 9.74474
266 2 15.0984 4.09443 15.2794
164 2 10.3521 0.362696 9.1981
205 2 8.38078 6.093 10.664
191 3 12.144 6.59976 9.85316
77 3 7.17966 4.19839 16.0081
144 2 6.60731 6.86703 6.56004
2 3 9.15489 11.5918 3.10536
219 2 9.35905 9.10851 7.80583
53 1 8.245 7.05941 3.36122
104 3 5.02312 7.47846 3.93811
261 2 5.39562 12.0426 4.85009
125 2 4.04505 9.13061 1.97081
257 2 2.16353 10.7582 4.88207
166 2 7.4784 8.08918 2.41746
168 2 8.40215 7.57746 4.29398
206 4 9.15607 10.4003 4.23103
272 2 2.40081 11.0891 0.749854
208 4 7.38929 10.2809 7.02887
209 1 6.19194 8.85138 6.54787
254 1 1.57755 11.7204 4.46768
211 3 8.20177 10.5592 5.39709
212 3 6.44962 11.7128 7.67837
213 2 8.55387 9.02987 3.43872
215 2 6.32396 8.36935 7.62246
216 2 6.39693 8.20944 5.64645
217 2 5.29007 9.50117 6.35326
38 4 6.29505 6.77517 2.93707
268 2 10.6399 7.34242 0.789551
237 1 7.43399 9.75191 0.343249
238 3 5.82729 12.0901 1.1967
251 1 11.5191 8.03568 0.813781
241 2 7.69744 9.8491 1.4428
256 2 1.37353 11.6399 3.34402
258 1 4.76946 11.7217 3.96107
259 2 5.17456 10.7708 3.5023
260 2 3.63024 11.7237 4.13725
255 2 2.08604 12.7071 4.7559
167 2 9.20981 6.74286 2.7835
270 2 0.767417 12.2213 1.67491
69 3 10.6255 10.035 4.59529
240 2 6.5306 8.97317 0.165111
34 4 3.83635 9.79835 12.525
40 4 6.40588 11.2745 13.2186
108 3 5.12108 10.5605 12.8727
109 3 6.93652 11.5007 14.7099
131 2 6.14407 12.7732 12.4076
132 2 7.60451 10.7142 12.2075
207 4 5.85508 13.0422 8.36735
239 2 9.63162 10.025 15.9159
139 2 11.069 9.02352 15.0677
218 2 9.05499 10.6612 8.78553
214 2 5.01431 12.4171 9.66807
194 2 9.86154 7.62818 11.0661
204 2 8.82548 7.25733 9.10437
264 2 9.31459 11.905 15.9349
269 2 10.4406 10.8921 14.7333
210 1 8.6158 9.68458 8.43761
198 2 2.41128 12.394 14.7184
236 4 7.60307 11.6808 16.1894
274 2 8.07052 9.01987 9.22627
193 2 12.5323 7.08482 15.5696
158 2 3.04227 10.7822 11.1839
43 1 11.3042 10.2094 14.7176
ITEM: TIMESTEP
100
ITEM: NUMBER OF ATOMS
274
ITEM: BOX BOUNDS xy xz yz pp pp pp
-8.3797999999999995e+00 1.8013900000000000e+01 -8.3797999999999995e+00
0.0000000000000000e+00 1.3273200000000001e+01 1.1950000000000001e+00
0.0000000000000000e+00 1.6236255000000003e+01 4.3120000000000003e-01
ITEM: ATOMS id type x y z
223 2 6.21098 1.05236 3.84874
12 4 -0.717452 6.53688 5.37655
7 4 1.00428 1.9604 5.36222
9 4 -0.71378 4.41596 2.02444
10 4 0.449431 4.37689 7.33032
220 4 6.68064 0.521535 2.16766
21 4 5.80272 1.60433 5.64704
26 4 5.23866 4.60417 6.60753
41 1 0.384102 0.553678 6.47001
44 1 3.79287 3.88791 1.54986
55 3 1.25653 0.717267 1.22859
56 3 -0.246932 2.32589 4.47929
58 3 -1.8572 4.27791 3.25704
59 3 -0.17099 3.12395 1.29939
243 2 3.09755 1.25172 2.8184
61 3 1.35339 3.29123 6.31902
62 3 -0.0680464 5.69389 6.55438
74 3 5.76544 0.626306 7.35333
78 3 0.319635 5.44939 2.65419
81 3 5.574 3.19969 5.77332
84 3 2.6968 5.77184 3.60512
85 3 4.40607 5.63303 5.68293
222 3 6.14696 1.59069 1.1451
111 2 2.34625 1.50869 4.3158
112 2 -1.42556 5.27334 0.758079
24 4 5.10388 4.82719 0.61854
118 2 4.40841 0.729423 4.92265
113 2 -1.40514 5.41981 4.3008
143 2 3.35544 4.57416 2.33186
135 2 0.216677 0.759177 7.54561
141 2 4.40917 3.03744 1.97752
142 2 2.99008 3.49302 0.698001
119 2 7.45756 1.71276 5.27412
5 4 0.491257 1.87465 0.371503
242 1 3.41435 0.18741 3.33795
60 3 -0.806649 3.53399 8.05463
80 3 4.64511 4.12118 8.10905
138 2 2.16411 1.66521 13.0768
8 4 1.85366 2.74226 10.8839
13 4 0.458489 4.67117 12.6963
267 2 -1.12072 6.20445 15.4136
20 4 4.58822 3.06556 9.28647
23 4 6.95716 2.86344 11.1871
117 2 5.15821 1.72179 8.39947
29 4 3.75094 6.47078 11.3232
42 1 2.18779 1.21349 12.0235
57 3 0.496434 2.55559 10.095
63 3 -0.310272 3.55981 13.47
64 3 1.88382 4.22335 12.1166
65 3 -2.2285 5.67926 9.76387
66 3 -0.439474 5.52764 11.5596
73 3 3.19211 2.78518 9.94246
75 3 5.59152 3.35436 10.4089
76 3 6.86134 1.42935 11.9162
123 2 5.24665 6.0187 10.8569
262 3 0.511518 1.8127 15.4596
82 3 1.40568 4.91639 8.47746
114 2 0.882722 5.78064 13.8425
99 3 8.16121 1.27014 8.32458
124 2 3.30198 5.07332 12.2162
136 2 3.21048 0.880999 11.6242
179 4 7.31337 2.66509 15.7205
183 1 5.75379 1.85731 14.8981
249 1 -1.88136 5.39309 15.8351
195 2 6.20341 1.01402 14.2518
196 2 5.21529 2.65032 14.2486
137 2 1.4083 0.393765 11.9199
227 3 5.26051 6.42516 15.8592
228 2 2.63397 6.46759 15.3204
245 1 2.86017 3.33977 15.5337
246 2 2.25824 3.28879 14.5585
247 2 4.03937 2.91125 15.4259
27 4 1.65094 6.53707 9.1157
248 2 2.83962 4.37564 16.0103
197 2 5.22217 1.48006 15.8338
14 4 -1.13805 6.50923 10.5273
77 3 7.05524 4.20537 15.8601
86 3 2.8833 6.681 10.0636
1 4 -6.50384 12.2634 2.04779
3 3 -5.96566 10.9216 1.11751
25 4 1.362 6.52539 3.13162
16 4 -2.9757 8.01958 6.69923
17 4 -4.66133 9.87604 4.97393
265 2 -4.32067 12.2723 2.65775
30 4 2.58021 8.74062 1.28941
31 4 -2.25547 10.4859 3.13636
33 4 -0.00516874 11.1702 5.30811
48 1 -1.3915 9.06916 2.17513
49 1 0.189745 9.67088 6.4144
47 1 1.37111 10.274 1.2275
68 3 -1.80335 7.53701 5.79177
253 2 -4.83695 8.49964 1.84227
70 3 -4.32435 8.53872 5.79375
79 3 0.555732 7.24234 4.66534
87 3 1.74103 7.8828 2.19883
252 2 -4.31317 7.61481 0.22603
89 3 -2.144 11.8906 1.94118
90 3 -3.64332 10.0032 3.74007
93 3 -1.14069 10.8683 4.25487
94 3 -0.388529 12.2896 6.41299
115 2 -4.42121 11.1697 6.02444
147 2 1.76229 6.94269 6.62611
151 2 -0.357916 9.44103 1.80212
152 2 -2.04073 8.70294 1.32645
153 2 -1.27977 8.27542 3.02179
149 2 1.92087 8.53537 7.65134
155 2 0.345606 8.74697 5.65448
156 2 -0.901082 9.60373 6.91213
271 2 0.523441 10.2948 0.421817
244 2 -5.48689 12.5742 4.17553
91 3 -2.39209 9.5454 7.72209
67 3 -3.41032 6.85602 7.63545
133 2 -7.00434 12.6755 6.27284
122 2 2.92545 7.73075 5.67328
46 1 2.23242 7.49042 7.48473
154 2 0.987277 9.79115 7.19142
148 2 3.33256 7.31798 7.49089
161 2 -1.29323 9.89672 0.340867
28 4 3.80073 6.61794 4.66195
150 2 1.02337 10.4563 2.32116
19 4 -1.1445 12.9992 7.76729
15 4 -5.38056 9.79202 0.0514369
69 3 -6.13714 10.0403 4.4776
22 4 -0.718926 12.9378 12.1765
18 4 -2.27572 8.28372 12.7179
159 2 1.71114 11.5557 12.7158
32 4 -2.40079 10.6134 8.8778
35 4 -1.44675 10.7703 14.2649
71 3 -2.72275 7.08524 13.7097
160 2 0.827697 10.235 14.8589
50 1 2.16855 10.492 12.7955
51 1 0.0489986 10.8276 15.4687
187 3 0.811383 13.0942 12.6032
72 3 -1.83512 7.79827 11.2795
83 3 0.155904 7.13568 9.54053
88 3 4.02156 8.6528 15.8644
92 3 -1.31567 11.6628 9.14916
95 3 3.76424 7.75479 12.1923
96 3 -1.14198 9.32274 13.3422
97 3 -1.47215 12.0617 13.2873
98 3 -2.84428 10.5792 15.2943
116 2 -3.60719 9.20594 12.4482
120 2 -0.844177 12.0769 10.6976
126 2 -2.5833 9.7357 10.2827
127 2 -3.94767 11.1358 9.29192
128 2 2.88224 10.3238 14.2386
226 4 4.14281 7.23438 15.2917
162 2 0.196419 11.9456 15.4378
157 2 1.30935 9.6958 12.7202
140 2 -5.08669 9.80879 13.9111
229 2 4.2607 7.26786 13.5764
235 2 12.2346 2.21524 1.9187
37 4 13.0759 1.66198 6.1614
234 2 12.1561 0.808203 0.661335
39 4 11.3072 3.99982 7.2452
45 1 6.86284 5.58572 6.94659
54 1 11.0991 5.43331 5.98897
101 3 14.2534 2.39253 5.38088
102 3 13.3199 0.867947 7.48659
103 3 6.0691 5.66134 1.6955
233 2 11.2287 0.60855 2.31435
106 3 11.856 2.76621 6.39899
232 3 14.4446 1.36393 3.03752
129 2 12.4494 0.566831 4.97298
130 2 7.4975 5.80597 4.23123
4 4 15.1273 2.52225 4.05408
145 2 7.63961 5.22061 6.23597
225 2 8.67715 0.664993 3.25572
231 1 12.0986 1.09235 1.76676
169 2 11.2369 6.42747 6.54931
170 2 10.0587 5.24445 5.5667
171 2 11.9008 5.27031 5.22797
221 1 8.57342 0.465296 2.06654
224 2 8.95456 1.28911 1.53752
105 3 9.75909 3.51655 8.02333
146 2 7.07266 5.24663 8.07996
250 2 13.3536 5.20785 0.656265
134 2 16.1943 0.270676 5.96012
230 4 13.5492 0.107897 2.46746
273 2 9.2115 0.258652 0.113587
11 4 13.1412 5.96227 8.83667
36 4 9.12684 2.39089 9.00651
52 1 10.6587 1.44029 9.72599
182 4 10.7076 6.18547 10.704
100 3 8.27874 3.00206 10.296
107 3 12.4498 4.51572 8.42912
110 2 14.7025 3.31994 10.3089
6 4 15.8589 2.62652 9.32015
177 2 13.8843 0.485151 14.0387
163 2 11.5269 2.04589 9.29341
205 2 8.29909 6.19516 10.4837
165 2 10.5728 1.38394 10.851
172 4 16.2896 2.2152 14.3479
173 1 14.5381 1.38804 13.7857
174 2 14.4652 2.2253 15.0401
202 2 14.0507 3.57443 11.9198
176 2 14.0506 2.01689 12.9118
191 3 11.9795 6.66952 9.8204
178 4 13.5303 6.00692 14.6394
180 4 9.81078 1.56991 14.0162
181 4 11.844 3.93486 12.7531
188 3 8.57653 2.15431 14.8541
185 1 13.0992 3.12453 11.4799
263 3 15.391 1.15 9.03272
189 3 10.9067 2.65112 13.3058
190 3 12.8237 4.79961 13.8067
192 3 10.9743 5.06842 11.802
203 2 9.27755 5.59709 8.94787
199 2 11.9476 0.828575 15.0227
200 2 12.7269 3.70123 10.5781
201 2 13.0661 2.00133 11.454
175 2 16.1109 0.734733 13.1677
184 1 10.7986 0.572529 15.1798
186 1 9.07815 6.43587 9.72732
266 2 15.1449 4.39901 15.5635
164 2 10.5068 0.426108 9.22376
121 2 7.15301 4.15563 12.38
144 2 6.65409 6.74049 6.83156
2 3 9.15595 11.6381 3.15549
219 2 9.25787 8.88842 7.77983
53 1 8.19907 7.22942 3.46388
104 3 4.88258 7.36338 3.78069
261 2 5.36537 12.0912 5.00481
125 2 4.06842 9.07929 1.97133
257 2 2.23031 10.9526 5.15411
166 2 7.36322 8.17751 2.40796
168 2 8.35395 7.8382 4.46003
206 4 9.17637 10.4475 4.17254
272 2 2.27325 10.9915 0.955599
208 4 7.50802 10.3529 6.99581
209 1 6.38189 8.79844 6.68603
254 1 1.62007 11.6109 4.47289
211 3 8.44509 10.6506 5.62699
212 3 6.66514 11.5968 7.73001
213 2 8.309 9.19815 3.36322
215 2 6.3484 8.3466 7.72399
216 2 6.75585 8.06297 5.90853
217 2 5.38876 9.36619 6.48242
38 4 6.35227 6.70022 2.97267
268 2 10.6633 7.39414 0.832492
237 1 7.55356 9.97696 0.576772
238 3 5.76291 12.0524 1.07536
251 1 11.6183 8.01851 0.764121
241 2 7.92497 10.3622 1.58659
256 2 1.56284 11.2191 3.37709
258 1 4.83168 11.811 4.07453
259 2 5.23147 10.8631 3.54678
260 2 3.64365 11.7061 4.24474
255 2 1.82531 12.7061 4.62195
167 2 9.09787 7.04798 2.8729
270 2 0.578858 12.2471 1.73507
240 2 6.58617 9.15959 0.716566
34 4 3.82897 9.73787 12.5362
40 4 6.4742 11.277 13.1578
108 3 5.15751 10.4987 12.8411
109 3 7.01813 11.4361 14.5683
131 2 6.33212 12.795 12.4289
132 2 7.72154 10.7577 12.152
207 4 6.00701 12.895 8.36689
239 2 9.6399 10.1249 16.0935
139 2 10.8145 8.84718 15.3845
218 2 9.06318 10.2933 9.04899
214 2 5.04507 12.4073 9.68009
194 2 9.7633 7.4793 11.2936
204 2 8.80299 7.48313 9.19079
43 1 11.258 9.89657 14.9806
269 2 10.5307 10.8111 15.1832
210 1 8.56122 9.48243 8.37999
198 2 2.06603 12.3468 14.6698
236 4 7.58666 11.6824 16.0499
274 2 7.90119 8.88136 9.01306
158 2 2.93309 10.5923 11.1525
264 2 9.32906 12.0151 15.8568
193 2 12.559 6.87754 15.8179
ITEM: TIMESTEP
200
ITEM: NUMBER OF ATOMS
274
ITEM: BOX BOUNDS xy xz yz pp pp pp
-8.3797999999999995e+00 1.8013900000000000e+01 -8.3797999999999995e+00
0.0000000000000000e+00 1.3273200000000001e+01 1.1950000000000001e+00
0.0000000000000000e+00 1.6236255000000003e+01 4.3120000000000003e-01
ITEM: ATOMS id type x y z
223 2 6.21321 1.01464 3.90247
12 4 -0.785902 6.47682 5.30283
7 4 1.08073 2.08874 5.33346
9 4 -0.74471 4.51089 2.00392
10 4 0.252159 4.24487 7.33913
220 4 6.57177 0.493705 2.23658
21 4 5.88218 1.5242 5.65685
26 4 5.26317 4.59596 6.75582
41 1 0.813117 0.484168 6.36513
44 1 3.90664 3.86552 1.38983
55 3 1.19595 0.730506 1.27943
56 3 -0.105854 2.20108 4.25297
58 3 -1.78084 4.22568 3.25926
59 3 -0.0771531 3.224 1.25514
243 2 2.8668 1.39034 2.72346
61 3 1.26584 3.26233 6.42673
62 3 -0.306041 5.41108 6.32108
74 3 5.79473 0.46933 7.29802
78 3 0.342578 5.54085 2.33844
81 3 5.70734 3.04179 5.99831
84 3 2.84722 5.76356 3.66965
85 3 4.55108 5.55572 5.75018
222 3 6.29666 1.55468 1.09285
111 2 2.61446 1.78705 4.55362
112 2 -1.73861 5.28651 0.862647
24 4 5.15123 4.95083 0.406464
118 2 4.57463 0.853633 4.57995
113 2 -1.65147 5.55216 4.1854
143 2 3.46891 4.56812 2.22451
135 2 0.766569 0.710299 7.4656
141 2 4.55891 3.03164 1.79658
142 2 3.05903 3.51724 0.640009
119 2 7.50146 1.36469 5.06131
5 4 0.417196 2.08843 0.347369
242 1 3.22232 0.377576 3.36365
60 3 -0.859211 3.32641 8.06288
28 4 3.8294 6.44897 4.68731
25 4 1.34719 6.497 3.14789
250 2 -3.66174 5.69074 0.525483
138 2 1.76348 1.35915 12.9068
8 4 1.83682 2.71428 10.859
13 4 0.434133 4.94095 12.6174
267 2 -1.2089 5.86098 15.2863
20 4 4.67883 2.98043 9.29756
23 4 6.9984 2.923 11.262
117 2 5.20727 1.62946 8.37679
29 4 3.74923 6.4463 11.2851
42 1 1.7296 1.07587 11.7992
57 3 0.503822 2.59813 10.1191
63 3 -0.33156 3.88067 13.4769
64 3 1.80802 4.24955 12.0655
65 3 -2.23562 5.81217 9.5521
66 3 -0.556459 5.51894 11.5112
73 3 3.29045 2.62418 9.96504
75 3 5.75887 3.19924 10.3865
76 3 6.92104 1.46145 12.0223
123 2 5.2491 5.819 10.89
262 3 0.533411 1.90055 15.2859
82 3 1.28224 5.00383 8.4077
114 2 0.893975 6.10946 13.657
99 3 8.17638 1.21739 8.40871
124 2 3.16846 5.15287 12.2178
136 2 2.74641 0.666296 11.4386
179 4 7.34871 2.65694 15.6655
183 1 5.8567 1.72805 14.9849
187 3 9.24134 0.39023 12.6209
195 2 6.28797 0.801234 14.3568
196 2 5.05011 2.31082 14.325
137 2 0.818406 0.45952 11.4661
227 3 5.29183 6.3299 15.9589
228 2 2.5521 6.52949 15.5873
245 1 2.94999 3.264 15.4555
246 2 2.38208 3.25417 14.4596
247 2 4.01638 2.72841 15.4304
27 4 1.64999 6.53772 9.01626
248 2 2.91941 4.30701 15.9149
197 2 5.43218 1.42328 16.0033
14 4 -1.14994 6.5734 10.4125
86 3 2.88829 6.60708 10.0039
80 3 4.65676 4.20313 8.32917
1 4 -6.62997 12.289 2.09178
3 3 -6.0237 11 1.05785
251 1 -5.04731 8.13658 0.990503
16 4 -2.90189 8.12945 6.74886
17 4 -4.55054 9.93655 4.88448
265 2 -4.42835 12.3632 2.538
30 4 2.40915 8.88499 1.26499
31 4 -2.14007 10.4659 3.06535
33 4 0.0347141 11.2087 5.42164
48 1 -1.455 8.9291 2.05351
49 1 0.341671 9.62986 6.55693
47 1 1.30344 10.4451 1.19379
68 3 -1.64475 7.63695 5.92449
253 2 -4.80487 8.64877 1.99484
70 3 -4.14515 8.6386 5.70832
79 3 0.52533 7.20698 4.55746
87 3 1.76709 7.83599 2.1611
252 2 -4.11895 7.5461 0.619483
89 3 -2.25523 11.8132 2.04329
90 3 -3.6235 10.116 3.50836
93 3 -1.0616 10.818 4.27566
94 3 -0.253825 12.3782 6.44206
115 2 -4.22679 11.2599 5.82863
147 2 1.53693 7.1431 6.59272
151 2 -0.371456 9.42635 1.6328
152 2 -2.2617 8.69442 1.31558
153 2 -1.27995 8.04719 2.7815
149 2 2.02371 8.74694 7.6695
155 2 0.373397 8.77283 5.76156
156 2 -0.70757 9.60001 7.11999
271 2 0.428716 10.5328 0.391734
244 2 -5.81108 12.7714 4.22318
91 3 -2.48684 9.58384 7.80288
67 3 -3.52936 7.05809 7.67758
133 2 -6.716 12.6943 6.04168
122 2 2.99943 7.66794 5.70351
46 1 2.22606 7.60811 7.48536
154 2 1.31084 9.82539 7.15471
148 2 3.3185 7.31602 7.50576
161 2 -1.37796 9.85604 0.261842
15 4 -5.36365 9.76377 0.0122955
150 2 0.918924 10.7326 2.25613
19 4 -1.13035 12.8857 7.80856
22 4 -0.769519 12.9358 12.198
18 4 -2.41967 8.34907 12.584
159 2 1.63224 11.5469 12.688
32 4 -2.39288 10.6165 8.95538
35 4 -1.61893 10.6613 14.342
71 3 -2.94679 7.20748 13.6095
160 2 0.74302 10.448 14.6836
50 1 2.04535 10.4915 12.6949
51 1 -0.079212 10.8998 15.4197
229 2 4.20598 7.42657 13.722
72 3 -1.9875 7.89306 11.1393
83 3 0.240783 7.22874 9.63009
88 3 3.84306 8.69359 15.9456
92 3 -1.04788 11.4891 9.1597
95 3 3.88542 7.68927 12.2137
96 3 -1.26703 9.22186 13.2853
97 3 -1.58976 11.9829 13.2595
98 3 -2.88607 10.4284 15.3794
116 2 -3.79156 9.30487 12.2643
120 2 -0.83226 12.1923 10.6755
126 2 -2.34804 9.77642 10.4133
127 2 -3.83173 11.4278 9.29459
128 2 2.79686 10.0982 14.1808
226 4 4.04522 7.2615 15.4247
162 2 -0.0839556 12.0471 15.4967
157 2 1.25668 9.69692 12.6855
235 2 11.6802 2.17139 1.97559
37 4 13.1329 1.54494 6.00395
234 2 11.4075 0.622426 0.922425
39 4 11.5037 3.91924 7.28937
45 1 6.7887 5.63489 7.2293
54 1 11.0614 5.4041 6.14473
101 3 14.2553 2.45717 5.35149
102 3 13.6767 0.665762 7.2021
103 3 5.99304 5.78216 1.60734
233 2 11.3401 0.495895 2.88425
106 3 11.9953 2.60951 6.54161
232 3 14.4662 1.42414 2.98154
129 2 12.3773 0.551863 4.79707
130 2 7.60341 5.55192 4.08262
4 4 15.1446 2.39564 3.99405
145 2 7.62601 5.12127 6.6556
225 2 8.70357 0.550898 3.10647
231 1 11.7818 1.06479 1.88731
169 2 11.3637 6.43394 6.52625
170 2 9.96042 5.34361 6.04926
171 2 11.6197 5.12565 5.20653
221 1 8.47309 0.452478 1.95848
224 2 8.69707 1.43357 1.32861
105 3 9.94774 3.49901 7.96211
230 4 13.5017 0.317924 2.2605
11 4 13.0309 6.11853 8.91418
36 4 9.22201 2.44292 9.04191
52 1 10.5952 1.53146 9.94663
182 4 10.692 6.15584 10.7759
100 3 8.35092 3.05295 10.4287
107 3 12.4332 4.52179 8.47847
110 2 14.7062 3.39054 10.3825
6 4 15.8112 2.53385 9.3927
177 2 14.1887 0.396544 14.2646
163 2 11.4926 1.89537 9.38176
205 2 8.13562 6.5826 10.9676
165 2 10.5919 1.79597 11.0283
172 4 16.3544 2.37144 14.1875
173 1 14.6436 1.39345 13.8866
174 2 14.5437 2.35279 15.1055
202 2 14.05 3.48188 12.2965
176 2 14.0894 1.94851 13.049
121 2 7.01761 3.98609 12.5257
178 4 13.4015 6.12934 14.6453
180 4 9.72053 1.52979 13.8665
181 4 11.7968 3.90809 12.8111
188 3 8.49354 2.0822 14.7546
185 1 13.1464 3.13127 11.6379
263 3 15.3745 0.993622 9.19226
189 3 10.9302 2.6742 13.2653
190 3 12.5985 4.82398 14.0985
192 3 11.0669 4.89445 11.6545
203 2 8.86715 5.48658 9.54408
199 2 11.74 0.727224 14.8053
200 2 12.9399 3.79418 10.7026
201 2 13.011 1.98503 11.694
175 2 16.1896 0.976738 13.0177
184 1 10.6493 0.443024 15.0944
186 1 8.91979 6.58868 10.144
266 2 14.9978 4.38759 16.1027
164 2 10.2572 0.450734 9.66176
146 2 6.84119 5.36779 8.40907
77 3 7.06681 4.41691 15.5967
249 1 14.7354 5.39317 15.8653
273 2 10.3437 0.713729 16.2001
144 2 6.67958 6.77235 7.01523
2 3 9.14736 11.7348 3.36125
219 2 9.47341 8.61346 7.70569
53 1 8.1298 7.16934 3.71543
104 3 5.10425 7.28939 3.89025
261 2 5.46315 12.033 4.69386
125 2 3.85284 9.33311 2.07767
257 2 2.1606 10.5911 5.10615
166 2 7.63385 7.89575 2.40874
168 2 7.80991 7.65801 4.67482
206 4 9.23013 10.3744 4.25188
272 2 2.23178 11.1309 0.860488
208 4 7.65662 10.2579 7.04252
209 1 6.28073 8.73315 6.61415
254 1 1.66736 11.5835 4.53039
211 3 8.44689 10.5241 5.6443
212 3 6.99543 11.6224 7.74797
213 2 8.50375 9.09378 3.43995
215 2 6.20869 8.33635 7.68116
216 2 6.65647 7.99425 5.87785
217 2 5.38996 9.31709 6.18045
38 4 6.29166 6.56785 3.06618
268 2 10.7749 7.60786 1.08494
237 1 7.68938 10.1304 0.602406
238 3 5.56503 12.205 1.02645
69 3 10.6941 9.94723 4.60952
241 2 8.04828 10.7132 1.52963
256 2 1.5108 11.3899 3.3865
258 1 4.74885 11.8832 3.77532
259 2 5.0949 10.9574 3.22997
260 2 3.59033 11.7872 4.05298
255 2 2.29585 12.4923 4.7013
240 2 6.75058 9.25506 0.789505
167 2 9.22934 7.28265 3.74951
270 2 0.571118 12.3346 1.53263
134 2 8.29373 12.921 5.84725
34 4 3.74962 9.64906 12.5733
40 4 6.45889 11.2537 13.1434
108 3 5.17678 10.4128 12.8019
109 3 7.01193 11.394 14.5656
131 2 6.26233 12.8336 12.4439
132 2 7.67016 10.712 12.1216
207 4 6.18689 12.8481 8.31805
193 2 12.7944 7.00994 16.0048
139 2 10.6603 8.82409 15.4104
218 2 9.45949 10.1328 8.7755
214 2 5.13053 12 9.36695
194 2 9.84095 7.26088 11.744
204 2 8.95639 7.51048 9.52256
43 1 11.3433 9.59974 14.9172
269 2 10.9161 10.7973 14.9455
210 1 8.77767 9.42171 8.2438
198 2 2.04356 12.1783 14.9029
236 4 7.58406 11.6981 16.1751
274 2 8.04393 8.87301 8.95013
158 2 2.82739 10.5193 11.1926
264 2 9.23093 12.3347 16.1477
191 3 11.9375 6.93102 10.0811
239 2 9.81285 10.1082 16.1516
140 2 11.445 9.36824 13.7682
ITEM: TIMESTEP
300
ITEM: NUMBER OF ATOMS
274
ITEM: BOX BOUNDS xy xz yz pp pp pp
-8.3797999999999995e+00 1.8013900000000000e+01 -8.3797999999999995e+00
0.0000000000000000e+00 1.3273200000000001e+01 1.1950000000000001e+00
0.0000000000000000e+00 1.6236255000000003e+01 4.3120000000000003e-01
ITEM: ATOMS id type x y z
223 2 6.34558 0.94816 3.81628
12 4 -0.903709 6.35496 5.31181
7 4 1.2304 1.95193 5.29473
9 4 -0.839053 4.57041 1.84655
10 4 0.23896 4.21111 7.25472
220 4 6.76874 0.52584 2.09931
21 4 5.96643 1.48603 5.8193
26 4 5.36189 4.63634 6.98412
41 1 1.28911 0.404858 6.33745
44 1 3.98323 3.96258 1.61217
55 3 1.0918 0.622377 1.24507
56 3 -0.0953383 1.94437 4.231
58 3 -1.73912 4.26436 3.15941
59 3 -0.131923 3.30738 1.08479
243 2 2.95248 1.16654 2.94493
61 3 1.23917 3.24566 6.37543
62 3 -0.486359 5.17294 6.21685
74 3 5.76076 0.475377 7.30665
78 3 0.326188 5.65144 2.18461
81 3 5.84716 3.01579 6.1671
84 3 2.79313 5.6567 3.70964
85 3 4.32135 5.48101 5.99621
222 3 6.08385 1.57892 0.982602
111 2 2.73223 1.68565 4.49643
112 2 -1.92235 5.23208 0.680631
24 4 5.08183 5.01979 0.572462
118 2 4.73298 0.817784 4.55817
113 2 -1.99056 5.6879 4.21012
143 2 3.44469 4.66741 2.39054
135 2 1.06238 0.703301 7.39166
141 2 4.69943 3.19482 2.07991
142 2 3.21635 3.45024 0.903459
119 2 7.47962 1.07528 5.24448
5 4 0.488283 1.93626 0.279121
242 1 3.46275 0.249288 3.42514
60 3 -0.911378 3.30875 7.99016
28 4 3.78951 6.35504 4.75353
250 2 -3.40488 5.73989 0.434598
138 2 2.24986 1.45718 13.0639
8 4 1.8347 2.63273 10.8507
13 4 0.404646 4.92516 12.6001
267 2 -1.40506 5.96494 14.8337
20 4 4.6116 2.91502 9.31484
23 4 7.01817 3.07159 11.3247
117 2 5.13427 1.59325 8.41127
29 4 3.69875 6.4325 11.1923
42 1 1.91389 1.13077 11.9595
57 3 0.414009 2.50536 10.1456
63 3 -0.343353 3.8914 13.5041
64 3 1.74414 4.1388 12.0343
65 3 -2.1849 5.91461 9.56739
66 3 -0.488858 5.60995 11.593
73 3 3.16567 2.58444 9.9374
75 3 5.78599 3.12269 10.3955
76 3 6.97634 1.61458 11.9955
123 2 5.29705 5.9854 10.7916
262 3 0.594916 2.11173 15.3465
82 3 1.10023 5.18942 8.2432
114 2 0.900923 6.20085 13.5371
99 3 8.18693 1.22679 8.51354
124 2 3.25764 5.10585 12.0548
136 2 2.70248 0.506197 11.3606
179 4 7.33898 2.63692 15.6876
183 1 5.899 1.67068 14.8606
80 3 4.54503 4.1791 8.38699
195 2 6.21999 0.776572 14.1734
196 2 5.36395 2.59592 14.2398
137 2 0.86664 0.692561 11.9596
227 3 5.15681 6.39975 15.8923
228 2 2.46459 6.29011 15.5514
245 1 3.15601 3.14785 15.6701
246 2 2.61894 3.20598 14.5962
247 2 4.17576 2.59224 15.4857
27 4 1.59147 6.65597 8.89829
248 2 3.18664 4.13809 16.1907
197 2 5.35541 1.3005 15.8093
14 4 -1.07343 6.66847 10.4766
86 3 2.74908 6.51962 9.94212
77 3 7.04819 4.24078 15.7717
1 4 -6.67646 12.2606 2.10797
3 3 -5.96786 11.1101 1.11901
25 4 1.34344 6.60681 3.26736
16 4 -2.9407 8.15354 6.75682
17 4 -4.48453 10.0612 4.90461
265 2 -4.45764 12.3058 2.63255
30 4 2.49658 8.95036 1.255
31 4 -2.1302 10.4331 3.00484
33 4 0.124047 11.0379 5.37858
48 1 -1.3014 9.02152 2.06489
49 1 0.240795 9.50842 6.53297
47 1 1.38649 10.5268 1.06638
68 3 -1.69909 7.51491 6.0307
253 2 -5.05648 8.80252 2.0992
70 3 -4.03727 8.77328 5.68197
79 3 0.445316 7.03122 4.57538
87 3 1.77499 8.06771 2.29566
252 2 -4.2369 7.69862 0.720959
89 3 -2.02488 11.9036 1.84823
90 3 -3.59614 10.0915 3.45368
93 3 -1.13936 10.6795 4.27212
94 3 -0.25751 12.1922 6.44936
115 2 -4.13201 11.3757 5.85516
147 2 1.55608 7.3307 6.57375
151 2 -0.263014 9.47233 1.69884
152 2 -2.02311 8.83636 1.16765
153 2 -1.15111 8.09786 2.72164
149 2 2.21312 8.86295 7.54254
155 2 0.385423 8.61003 5.87143
156 2 -0.841717 9.49642 6.99682
271 2 0.498364 10.5139 0.305394
244 2 -5.71974 12.4709 4.13631
91 3 -2.42119 9.66666 7.78817
67 3 -3.73602 7.21296 7.69137
133 2 -6.02821 12.7027 6.22889
122 2 2.98285 7.71833 5.49973
46 1 2.24704 7.71479 7.38662
154 2 1.13979 9.70268 7.29058
148 2 3.37342 7.31611 7.24169
161 2 -1.29711 9.92362 0.256542
15 4 -5.46591 9.77631 0.108891
150 2 1.02477 10.7013 2.1621
19 4 -1.00949 12.8806 7.79325
69 3 -5.97603 10.1709 4.57851
22 4 -0.831456 12.977 12.1843
18 4 -2.45249 8.36888 12.6358
159 2 1.58967 11.4133 12.3809
32 4 -2.20231 10.5045 9.04207
35 4 -1.53025 10.7498 14.3245
71 3 -2.96969 7.15827 13.5598
160 2 0.715362 10.2162 14.7337
50 1 2.07618 10.3864 12.3827
51 1 -0.00782901 10.8168 15.4068
229 2 3.66802 7.40257 13.6836
72 3 -1.85864 8.02287 11.2088
83 3 0.266105 7.36378 9.41886
88 3 3.65932 8.73058 15.9862
92 3 -1.03628 11.543 9.15468
95 3 3.71667 7.71342 12.1215
96 3 -1.40937 9.34219 13.4619
97 3 -1.60728 12.1323 13.3289
98 3 -3.01066 10.4673 15.3195
116 2 -3.77477 9.39591 12.244
120 2 -0.965417 12.231 10.6997