ITEM: TIMESTEP
0
ITEM: NUMBER OF ATOMS
274
ITEM: BOX BOUNDS xy xz yz pp pp pp
-8.3797999999999995e+00 1.8013900000000000e+01 -8.3797999999999995e+00
0.0000000000000000e+00 1.3405932000000000e+01 1.1950000000000001e+00
0.0000000000000000e+00 1.6075500000000002e+01 4.3551200000000001e-01
ITEM: ATOMS id type x y z
119 2 7.36786 1.24535 5.28466
12 4 -0.996022 6.52654 5.30917
7 4 0.911585 2.22389 5.17832
9 4 -0.331825 4.77898 1.83393
10 4 0.284129 4.46527 7.24978
242 1 3.24523 0.495474 3.16246
21 4 5.69452 1.45282 5.70759
26 4 5.36384 4.41888 6.80933
41 1 0.975833 0.584488 6.19723
44 1 3.74554 4.05809 1.80979
55 3 1.14621 0.958277 1.12899
56 3 -0.492089 2.43801 4.39565
58 3 -1.69111 4.56528 2.71756
59 3 0.0839074 3.49306 1.04043
243 2 3.62683 1.59096 3.21231
61 3 1.3402 3.32452 6.21556
62 3 -0.76045 5.4016 6.44103
74 3 5.87503 0.414119 7.37017
78 3 0.601711 5.47935 2.89604
81 3 5.50346 2.99912 5.94714
84 3 2.81668 6.02982 4.18831
85 3 4.79986 5.73349 5.92532
113 2 -1.49554 5.57267 4.0014
111 2 2.19167 1.88334 4.04239
112 2 -0.645857 5.90445 0.591903
24 4 4.69154 4.95929 0.49435
118 2 4.43867 0.741213 4.75732
5 4 0.488812 2.14126 0.212754
222 3 6.32365 1.48745 1.27519
223 2 6.2608 0.947344 4.00027
141 2 3.79251 2.9414 1.54849
142 2 2.73639 4.57793 1.70543
143 2 4.35252 4.23625 2.79125
220 4 6.80863 0.404068 2.33219
82 3 1.37606 5.49203 7.84352
135 2 0.537175 0.940842 7.19706
197 2 4.39156 0.681565 0.0661422
138 2 1.72371 0.531305 12.2345
8 4 1.78529 2.63755 10.9725
13 4 0.453637 4.97174 12.3227
229 2 3.61719 6.38109 13.2329
20 4 4.65265 2.82218 9.33828
23 4 6.99196 2.71512 11.2295
99 3 8.34674 1.12182 8.32404
226 4 3.40894 6.33574 14.9338
42 1 2.34974 1.48728 12.3467
57 3 0.398015 2.03823 10.4305
63 3 -0.210938 3.77642 13.2405
64 3 1.88749 4.44069 11.8126
65 3 -2.32572 6.59444 9.61285
66 3 -0.489772 5.56191 11.1961
73 3 3.17463 2.41349 9.91973
75 3 5.64409 3.10294 10.5566
76 3 6.96431 1.26792 11.9012
80 3 4.69046 4.07296 8.49468
29 4 3.769 6.69076 11.0175
137 2 3.44673 1.346 12.2612
114 2 0.948239 6.16874 13.4103
248 2 3.77267 4.00118 15.4325
124 2 3.4234 5.16911 11.6822
136 2 2.03312 2.12896 13.2542
179 4 7.35907 2.60246 15.77
183 1 5.84863 1.66214 15.1456
77 3 7.10068 4.10882 15.8366
60 3 -0.378435 3.52697 8.40343
196 2 5.14896 2.5511 14.9174
117 2 5.17463 1.5049 8.38122
227 3 4.7773 5.84249 15.5541
195 2 6.05351 0.93429 14.2914
245 1 3.03229 3.2433 15.0628
246 2 2.46611 3.59048 14.1387
247 2 3.52187 2.15132 14.901
262 3 0.379699 1.94167 15.3754
228 2 2.31341 5.07924 15.2794
266 2 -1.7984 5.21564 15.8799
149 2 2.35844 9.28654 7.74408
3 3 -5.86273 11.5487 0.92128
268 2 -4.71804 8.12064 0.376345
16 4 -3.23698 8.26294 6.68801
17 4 -4.67138 10.0583 4.75513
154 2 1.07849 9.66332 7.40196
161 2 -1.08057 10.1531 0.269279
31 4 -2.07733 10.4213 3.06329
33 4 0.0334129 11.1162 5.5341
48 1 -1.34925 9.06491 1.97632
49 1 0.199523 9.62364 6.68769
122 2 3.61067 8.03676 5.85314
68 3 -2.03586 7.59871 5.73167
28 4 4.10433 6.72688 4.90082
70 3 -4.49552 8.87288 5.80856
79 3 0.440008 7.33177 4.80613
87 3 1.7875 7.79404 2.31779
30 4 2.35031 8.33509 0.928859
89 3 -2.21666 11.9407 2.06656
90 3 -3.49483 10.1355 3.6935
93 3 -0.828124 10.8096 4.3199
94 3 -0.298749 12.431 6.363
115 2 -4.582 11.4591 5.65336
147 2 2.06975 7.78162 6.50523
151 2 -0.127962 9.47857 1.54332
152 2 -2.16556 8.97092 1.21215
153 2 -1.31472 8.19702 2.72868
272 2 0.657763 10.3788 0.334311
155 2 0.243406 8.71041 5.8465
156 2 -0.859635 9.60195 7.24184
46 1 2.56186 8.14073 7.47571
148 2 3.67649 7.85967 7.54135
271 2 1.61594 10.4278 1.98657
19 4 -1.00946 12.9501 7.72627
1 4 -6.59505 12.7147 2.04898
69 3 -6.07141 10.022 4.00622
91 3 -2.49921 9.5454 7.82009
265 2 -4.31674 12.8031 2.63654
47 1 1.63793 10.1306 0.889911
252 2 -5.55387 9.15505 1.80629
244 2 -5.51883 13.0344 4.18333
25 4 1.45828 6.61484 3.61456
251 1 -5.57429 8.81478 0.689969
133 2 -6.35546 13.1292 6.28341
159 2 1.43993 10.8629 13.3523
18 4 -2.15607 8.28648 12.8027
22 4 -0.601027 12.8826 11.9942
32 4 -2.06159 10.5252 8.97513
35 4 -1.39557 10.8139 14.2119
43 1 -5.83661 11.3042 14.1677
15 4 -4.14393 11.0162 15.9356
157 2 1.00717 9.2495 12.4226
51 1 0.134144 11.23 15.3405
162 2 -0.0947966 12.3197 15.5593
72 3 -1.44596 8.38525 11.4292
83 3 0.138217 7.40418 9.30313
158 2 1.99667 10.6199 11.5739
92 3 -0.844548 11.4787 8.9508
95 3 3.58315 7.88373 12.0581
96 3 -1.14553 9.18014 13.8612
97 3 -1.30211 11.7481 12.8109
98 3 -2.75814 10.9604 15.1156
116 2 -3.63971 8.95561 12.7458
120 2 -0.593565 12.224 10.4187
126 2 -1.47492 9.49938 10.1766
127 2 -3.42629 11.2972 9.47775
128 2 2.60797 9.34441 14.2379
140 2 -6.05753 12.1782 14.9455
50 1 1.78556 10.1035 12.6091
139 2 -5.03117 11.6114 13.4232
160 2 1.0733 11.0678 14.7286
88 3 3.17302 7.88284 15.6221
187 3 0.93222 13.0381 12.4945
27 4 1.68242 6.86207 8.67054
71 3 -2.64064 6.87089 13.4758
14 4 -0.908176 6.78339 10.3425
86 3 2.76232 6.8434 9.79324
235 2 11.4337 1.47227 3.10554
37 4 13.0566 1.98944 5.72219
230 4 13.7095 0.199527 2.45872
39 4 11.3668 3.97143 7.58946
45 1 7.18251 4.90795 7.03333
54 1 10.4709 5.29793 6.66061
101 3 13.9421 3.14375 4.78181
102 3 13.8525 1.11623 6.7348
221 1 8.68411 0.261935 1.95736
4 4 14.9906 2.83612 3.57123
106 3 12.0877 2.95239 6.5626
232 3 14.4076 1.59739 2.65044
129 2 12.1916 0.902233 4.69625
130 2 7.74545 5.97186 3.07248
169 2 10.856 6.31902 7.00033
250 2 11.5539 4.87148 0.507261
146 2 7.76822 4.01249 6.67848
231 1 11.7398 0.400511 2.84689
145 2 7.28541 5.7967 6.34932
170 2 9.28331 5.20829 6.78823
171 2 10.82 5.06738 5.59456
234 2 11.5042 0.0941849 1.75206
224 2 8.74918 1.2052 1.2714
249 1 12.4172 5.49936 0.0239366
103 3 5.6399 6.4085 1.24297
225 2 9.01081 0.472963 3.041
273 2 9.37513 0.122783 0.0409424
207 4 14.5558 0.224254 7.75237
11 4 13.1002 6.33954 8.97895
36 4 9.20947 2.09488 9.20719
52 1 10.5078 0.833043 9.96944
188 3 8.7602 2.03193 14.6576
100 3 8.40475 2.92957 10.3895
107 3 12.6332 4.76553 8.87444
110 2 14.756 2.98991 10.2949
204 2 8.04412 6.27155 10.7137
202 2 14.0585 3.67499 11.9081
163 2 11.4654 1.47832 10.0179
6 4 16.052 2.32367 9.37429
165 2 10.1282 0.459932 10.9928
172 4 16.2384 2.53252 14.1913
173 1 14.6523 1.5032 13.5787
174 2 14.6201 2.80103 14.9585
175 2 15.7238 0.837203 13.1187
176 2 14.1128 2.05282 12.6791
144 2 7.33768 5.15611 8.14687
178 4 13.6239 5.65671 14.3863
180 4 9.94502 1.46332 13.8322
181 4 11.8989 3.86099 12.6931
205 2 9.33953 5.13941 9.42519
185 1 13.1152 3.23695 11.3321
186 1 8.90318 6.33961 9.99764
189 3 10.846 2.67273 13.2283
190 3 12.8753 4.38917 13.846
192 3 11.0315 5.24879 11.9574
263 3 15.4669 1.0185 8.6759
199 2 11.9904 1.02621 14.8128
200 2 12.958 3.82308 10.2839
201 2 12.969 2.09454 11.4168
182 4 10.6518 6.31922 10.807
105 3 10.1727 3.12777 8.32524
177 2 13.9507 0.75625 14.1335
123 2 5.33483 6.40522 10.5606
184 1 10.9943 0.523395 14.9637
121 2 7.03767 3.89874 12.4876
237 1 7.32248 10.2809 0.0756026
256 2 1.42641 11.3865 3.79024
167 2 9.1306 7.49143 2.38626
53 1 8.18602 7.47906 2.94133
104 3 5.11818 7.32932 3.85161
233 2 2.85059 12.6457 3.62419
125 2 4.04292 8.24667 1.11147
150 2 2.55989 10.5711 0.360704
166 2 6.91324 8.62859 2.0737
168 2 8.4117 7.88455 3.86983
206 4 9.29102 10.4965 3.66099
215 2 7.01663 8.0455 6.87726
208 4 7.70336 10.3422 6.4366
209 1 6.33796 8.94765 6.51178
255 2 2.36677 12.3269 5.24619
211 3 8.25383 10.4555 4.97753
212 3 6.8724 11.8974 7.14293
213 2 8.65824 9.37019 2.49973
254 1 1.88399 11.3476 4.95497
216 2 5.97443 8.84485 5.40645
217 2 5.51725 9.3363 7.20793
219 2 9.88103 9.19769 7.02271
253 2 10.3213 8.42058 0.2707
270 2 0.700964 12.3232 1.55158
238 3 5.59665 12.392 1.00897
240 2 8.0283 10.3727 0.942034
239 2 6.47895 9.45697 0.31222
257 2 2.5121 10.4632 5.11208
258 1 5.96888 11.9543 3.89103
259 2 6.62324 11.2349 3.47107
260 2 4.92811 11.5925 4.22537
261 2 6.39839 12.6613 4.61252
38 4 6.18056 7.07316 2.56063
210 1 9.12898 9.72152 7.65588
134 2 8.73204 12.9047 5.60757
2 3 9.21349 11.9827 3.0437
267 2 12.4919 6.68517 0.273766
67 3 12.939 6.95575 7.51401
198 2 2.58019 12.4314 14.5684
40 4 5.97197 11.3894 13.0529
108 3 4.74504 10.3896 12.9053
109 3 6.50931 11.6621 14.4785
214 2 4.97265 12.6071 8.76916
132 2 7.42411 10.907 12.3017
236 4 7.29875 12.1092 15.774
34 4 3.53221 9.3658 12.7385
131 2 5.66022 12.8815 12.4738
193 2 11.1774 9.99288 14.9136
218 2 9.55141 10.6597 8.13625
194 2 9.56757 7.54655 11.4225
241 2 9.04844 10.3847 15.2272
191 3 11.7987 7.09623 10.0829
264 2 8.93634 12.5163 15.4167
274 2 8.64201 9.06165 8.39053
164 2 2.05797 12.9622 9.19271
269 2 10.0503 11.1434 13.6635
203 2 8.67039 7.1767 9.27015
ITEM: TIMESTEP
100
ITEM: NUMBER OF ATOMS
274
ITEM: BOX BOUNDS xy xz yz pp pp pp
-8.3797999999999995e+00 1.8013900000000000e+01 -8.3797999999999995e+00
0.0000000000000000e+00 1.3405932000000000e+01 1.1950000000000001e+00
0.0000000000000000e+00 1.6075500000000002e+01 4.3551200000000001e-01
ITEM: ATOMS id type x y z
119 2 7.39365 1.231 5.2868
12 4 -1.07086 6.44964 5.27967
7 4 0.916921 2.26616 5.17013
9 4 -0.50621 4.83033 1.93809
10 4 0.334589 4.51671 7.15388
242 1 3.26044 0.537844 3.20802
21 4 5.72471 1.36666 5.80663
26 4 5.32895 4.5079 6.88842
41 1 1.1829 0.616809 6.12321
44 1 3.71424 3.92182 1.84583
55 3 1.18405 1.08788 1.08743
56 3 -0.355844 2.32025 4.20077
58 3 -1.88902 4.56624 2.80288
59 3 -0.0965682 3.52882 1.12369
243 2 3.27702 1.66435 2.86563
61 3 1.05302 3.56611 6.06459
62 3 -0.854088 5.40184 6.43954
74 3 5.57582 0.408011 7.49124
78 3 0.63689 5.28354 2.92195
81 3 5.38247 2.87022 6.08402
84 3 2.81034 6.21671 4.23962
85 3 4.61814 5.60698 6.04143
113 2 -1.78432 5.54912 4.00903
111 2 2.40181 1.96255 4.2556
112 2 -0.676618 6.12259 0.831752
24 4 4.74208 4.85394 0.502313
118 2 4.44088 0.694707 4.73235
5 4 0.384154 2.20233 0.229529
222 3 6.25759 1.36682 1.21408
223 2 6.23471 0.813003 4.00973
141 2 4.13668 2.84134 1.78657
142 2 2.6724 4.00623 1.45334
143 2 3.95222 4.61485 2.77019
220 4 6.70367 0.319694 2.35795
82 3 1.43837 5.51514 7.93501
135 2 0.684454 1.01305 7.09064
244 2 2.84265 0.266215 4.29134
133 2 2.28698 0.351416 6.30006
25 4 1.42288 6.50077 3.65046
138 2 1.11766 0.74866 12.2985
8 4 1.98349 2.62233 10.8495
13 4 0.546405 4.83356 12.2529
229 2 3.53763 6.57032 13.4407
20 4 4.73313 3.02035 9.35214
23 4 7.03716 2.72277 11.3442
99 3 8.19861 1.14076 8.32647
226 4 3.51669 6.38519 15.0829
42 1 2.10291 1.3204 12.2865
57 3 0.52274 2.37464 10.2493
63 3 -0.251304 3.7338 13.096
64 3 2.02416 4.27648 11.767
65 3 -2.25775 6.412 9.55856
66 3 -0.316373 5.68354 11.2813
73 3 3.29362 2.60425 9.86567
75 3 5.66749 3.10991 10.6115
76 3 6.95054 1.23422 11.8817
80 3 4.82981 4.26222 8.37328
29 4 3.81965 6.65153 11.1347
137 2 2.96095 0.689022 12.0131
114 2 1.14582 6.01125 13.3656
248 2 3.55606 3.73795 15.723
124 2 3.20965 5.44523 12.0624
136 2 2.23886 2.00061 13.1915
179 4 7.28512 2.42001 15.7544
183 1 5.8682 1.36732 15.0875
77 3 6.74837 4.15611 15.8375
60 3 -0.390299 3.5916 8.33757
196 2 4.90075 1.98195 15.2277
117 2 5.17306 1.59699 8.40078
227 3 4.89953 5.98684 15.5882
195 2 6.12146 1.24579 13.9633
245 1 2.89472 3.20274 15.019
246 2 2.38024 3.76141 14.188
247 2 3.35136 2.24904 14.6816
262 3 0.378717 2.15949 15.1404
228 2 2.41085 5.11907 15.2103
123 2 5.36218 6.07063 10.8948
86 3 3.0107 6.7448 9.85378
149 2 2.2017 9.20586 7.44668
3 3 -5.87064 11.6775 0.926755
268 2 -4.1062 8.54105 0.428935
16 4 -3.24188 8.24939 6.57911
17 4 -4.58717 10.0379 4.66161
154 2 0.750748 9.64938 7.5288
161 2 -1.0741 10.2679 0.192985
31 4 -2.00169 10.3746 3.08046
33 4 0.142929 11.0665 5.49913
48 1 -1.35031 9.06743 1.79951
49 1 -0.0331104 9.54524 6.66244
67 3 -3.82462 7.09076 7.55571
68 3 -2.04766 7.58461 5.68578
28 4 4.15159 6.67421 4.99091
70 3 -4.46574 8.92449 5.8186
79 3 0.443675 7.14523 4.82101
87 3 1.82707 7.69211 2.40821
30 4 2.29423 8.12714 0.969403
89 3 -2.09832 11.7617 2.02901
90 3 -3.43828 9.9621 3.59799
93 3 -0.798313 10.7097 4.22897
94 3 -0.346269 12.4035 6.22156
115 2 -4.42054 11.5764 5.44108
147 2 2.00014 7.6087 6.52847
151 2 -0.145927 9.34119 1.41454
152 2 -2.13762 9.07821 0.968496
153 2 -1.41006 8.2026 2.584
272 2 0.667998 10.2369 0.177838
155 2 0.228905 8.56263 6.06862
156 2 -1.11085 9.605 7.06535
46 1 2.46496 8.12738 7.41452
148 2 3.61418 8.00581 7.58695
271 2 1.66498 10.2578 1.78579
19 4 -1.04139 12.8565 7.74185
1 4 -6.52675 12.772 1.9619
69 3 -6.01818 10.0714 3.96651
91 3 -2.63573 9.63576 7.77609
265 2 -4.33892 12.7702 2.76243
47 1 1.65189 9.93498 0.728657
252 2 -5.2047 9.07343 1.83639
251 1 -5.15974 8.78767 0.749841
134 2 -7.78167 12.8413 5.58619
159 2 1.34768 11.0637 13.1643
18 4 -2.16354 8.31533 12.8469
22 4 -0.547168 12.878 12.0068
32 4 -2.14435 10.5567 8.97353
35 4 -1.35731 10.9544 14.2348
43 1 -5.59267 11.1685 14.0434
15 4 -4.14771 10.9482 15.893
157 2 0.920656 9.44204 12.2842
51 1 0.192646 11.3398 15.221
162 2 0.031369 12.4921 15.3435
72 3 -1.26822 8.09072 11.4699
83 3 0.520853 7.55157 9.46377
158 2 2.12076 10.6483 11.3265
92 3 -0.877974 11.4397 9.02517
95 3 3.66381 8.04909 11.8683
96 3 -1.27045 9.09203 13.828
97 3 -1.24922 11.746 12.8147
98 3 -2.7515 11.1288 15.1449
116 2 -3.34254 9.31704 12.3394
120 2 -0.416996 12.1565 10.4434
126 2 -2.14316 9.68812 10.4069
127 2 -3.34756 11.3871 9.74753
128 2 2.2609 9.2662 14.0505
140 2 -5.84402 12.1098 14.5745
50 1 1.7307 10.2026 12.4163
139 2 -4.5932 11.2857 13.5369
160 2 1.1977 11.1599 14.5417
88 3 2.74316 7.74236 15.7244
187 3 0.895492 13.2107 12.6163
27 4 1.7627 6.90353 8.80044
71 3 -2.72519 7.03061 13.576
14 4 -0.858729 6.88561 10.4563
34 4 3.40688 9.37997 12.7073
197 2 -2.43497 13.3965 15.7811
235 2 11.4998 1.52271 2.84745
37 4 13.0376 2.07939 5.76759
230 4 13.7213 0.231358 2.43194
39 4 11.3122 4.00468 7.50879
45 1 7.13882 5.24371 6.99041
54 1 10.4056 5.39874 6.56665
101 3 14.05 3.18167 4.97248
102 3 13.8594 1.06779 6.80116
221 1 8.5989 0.360474 2.17964
4 4 15.0094 2.82774 3.71821
106 3 11.9441 3.04253 6.48435
232 3 14.3645 1.66596 2.77101
129 2 12.1891 1.14109 4.58362
130 2 7.94928 5.89777 2.97446
169 2 10.948 6.38455 6.93637
250 2 11.4668 4.59542 0.25018
146 2 7.7184 4.45175 6.45742
231 1 11.8423 0.466108 2.77297
145 2 7.11643 6.26277 6.48276
170 2 9.25875 5.41062 6.68996
171 2 10.7857 5.09622 5.52677
273 2 9.16454 0.205615 0.228751
224 2 8.9128 1.18689 1.50883
267 2 12.2514 6.33347 0.414129
103 3 5.68314 6.13146 1.44176
225 2 8.68753 0.682597 3.37082
207 4 14.6901 0.270278 7.85302
234 2 11.508 0.14703 1.68412
11 4 13.0728 6.19142 8.87418
36 4 9.20165 2.20011 9.10094
52 1 10.507 1.10464 9.97733
188 3 8.5688 2.03747 14.8523
100 3 8.33181 2.82188 10.3493
107 3 12.7085 4.64584 8.65164
110 2 14.7671 3.10227 10.4168
204 2 8.10372 5.9889 10.8565
202 2 13.9767 3.61037 11.8488
163 2 11.567 1.47107 9.95122
6 4 16.0296 2.5113 9.36123
165 2 10.1147 0.871459 11.0287
172 4 16.1545 2.45199 13.9642
173 1 14.3622 1.52775 13.5693
174 2 14.4959 2.7658 14.8004
175 2 15.63 0.816352 12.975
176 2 13.8093 2.08656 12.6675
144 2 7.41776 5.32726 8.10547
178 4 13.7773 5.64473 14.3042
180 4 9.86137 1.5062 13.8852
181 4 11.7917 3.92803 12.6454
205 2 9.30863 5.00921 9.69876
185 1 12.9861 3.26917 11.2518
186 1 9.00038 6.0448 10.2071
189 3 10.8671 2.54012 13.1227
190 3 12.8141 4.55965 13.7315
192 3 10.9942 5.07494 11.9571
263 3 15.5826 1.1899 8.74362
199 2 11.8348 1.23134 15.1412
200 2 12.857 3.83976 10.1604
201 2 12.8893 2.14973 11.1057
182 4 10.8148 6.27034 10.9284
105 3 10.1587 3.26249 8.35546
177 2 13.7075 0.700167 14.0239
249 1 13.5381 5.74435 15.9756
184 1 10.8688 0.63642 15.1842
121 2 7.27138 3.7285 12.6807
266 2 14.9251 5.0926 15.9375
237 1 7.44471 10.2585 0.131022
256 2 1.69213 11.4909 3.80476
167 2 9.07566 7.69849 2.30873
53 1 8.09979 7.53633 2.8553
104 3 5.34788 7.08935 4.0512
233 2 2.92433 12.7143 3.60771
125 2 3.9365 8.00553 0.88709
150 2 2.55989 10.3849 0.174095
166 2 6.97887 8.60234 2.07147
168 2 8.13694 8.05114 3.97652
206 4 9.31864 10.5438 3.71715
215 2 6.34477 8.45603 7.51759
208 4 7.69318 10.4873 6.63408
209 1 6.21231 9.16314 6.59519
255 2 2.32456 12.3522 5.39082
211 3 8.41738 10.41 4.96203
212 3 7.02649 11.8722 7.27388
213 2 8.62204 9.45035 2.58369
254 1 1.96379 11.4008 4.90954
216 2 6.25147 8.71614 5.57947
217 2 5.36627 10.0004 6.77282
219 2 10.0986 9.53569 7.15135
253 2 10.8213 8.08138 0.524072
270 2 0.725465 12.3593 1.94718
238 3 5.53162 12.3387 0.947339
240 2 8.02472 10.4683 1.06488
239 2 6.62017 9.37971 0.316868
257 2 2.68956 10.5484 5.09533
258 1 5.96011 11.9768 3.86746
259 2 6.62716 11.2979 3.27125
260 2 5.11398 11.4429 4.33521
261 2 6.54696 12.812 4.49215
38 4 6.26799 6.96011 2.62823
210 1 9.18273 9.9058 7.6961
2 3 9.27076 11.9497 2.91438
122 2 3.79968 8.08939 5.96319
198 2 2.59173 12.5821 14.7052
40 4 5.71725 11.4771 12.9792
108 3 4.60325 10.4336 12.8949
109 3 6.46038 11.6258 14.3903
214 2 5.18715 12.6982 8.89301
132 2 6.82162 11.1064 11.8686
236 4 7.32079 11.9454 15.6835
203 2 8.93173 6.81901 9.44159
131 2 5.40058 13.0735 12.343
193 2 11.2431 9.87609 14.9771
218 2 9.36608 10.7946 8.40991
194 2 9.64924 7.42756 11.5021
241 2 9.31691 10.4823 15.2863
191 3 11.79 6.87485 9.92134
264 2 9.00095 12.3628 15.2875
274 2 8.46211 9.00987 8.15996
164 2 2.05843 13.1609 9.30713
269 2 10.3936 11.0184 13.2203
ITEM: TIMESTEP
200
ITEM: NUMBER OF ATOMS
274
ITEM: BOX BOUNDS xy xz yz pp pp pp
-8.3797999999999995e+00 1.8013900000000000e+01 -8.3797999999999995e+00
0.0000000000000000e+00 1.3405932000000000e+01 1.1950000000000001e+00
0.0000000000000000e+00 1.6075500000000002e+01 4.3551200000000001e-01
ITEM: ATOMS id type x y z
119 2 7.33167 1.39995 5.39012
12 4 -1.16711 6.53719 5.31679
7 4 1.04614 2.35053 4.94088
9 4 -0.433755 4.73716 1.90146
10 4 0.285388 4.69261 7.22326
242 1 3.33629 0.620083 2.99855
21 4 5.65875 1.43415 5.73656
26 4 5.42031 4.54489 6.95037
41 1 0.979374 0.776066 5.92665
44 1 3.80371 3.8433 1.85758
55 3 0.979362 1.0763 1.17915
56 3 -0.324032 2.29719 4.15636
58 3 -1.74655 4.44606 2.95609
59 3 -0.0962862 3.66395 0.780189
243 2 3.52728 1.71072 2.92522
61 3 1.11638 3.53061 6.01253
62 3 -0.71116 5.67547 6.5065
74 3 5.72046 0.369964 7.40424
78 3 0.831688 5.11667 2.69104
81 3 5.45593 2.96815 6.09065
84 3 2.8187 6.10157 4.23006
85 3 4.75585 5.75864 6.11336
113 2 -1.97115 5.56594 4.12792
111 2 2.38533 2.12145 3.85097
112 2 -0.996787 6.06341 1.05565
24 4 4.76083 4.87212 0.601508
118 2 4.35272 0.914793 4.65909
5 4 0.26457 2.16646 0.142613
222 3 6.31664 1.3162 1.27063
223 2 6.20011 0.8418 4.00472
141 2 4.29725 2.82699 1.99892
142 2 2.74371 3.8812 1.45407
143 2 3.99386 4.497 2.77045
220 4 6.78734 0.341705 2.41272
25 4 1.39162 6.49414 3.57233
135 2 0.144135 0.837429 6.68961
244 2 2.9211 0.193478 3.94927
133 2 1.99498 0.616976 6.39371
82 3 1.3539 5.53131 8.01107
138 2 1.33501 0.642424 11.7461
8 4 2.0463 2.72635 10.8725
13 4 0.483711 4.88112 12.4516
229 2 3.64513 6.45257 13.3606
20 4 4.7861 2.92527 9.4027
23 4 7.09209 2.70885 11.4672
99 3 8.12404 1.12863 8.41793
226 4 3.37991 6.2897 15.0812
42 1 2.2927 1.17537 11.9722
57 3 0.671794 2.46154 10.0905
63 3 -0.405213 3.64164 12.9546
64 3 1.99483 4.23793 12.0889
65 3 -2.19309 6.37938 9.56411
66 3 -0.0739912 5.65783 11.2109
73 3 3.35107 2.5056 9.87295
75 3 5.76088 3.18544 10.6235
76 3 6.87835 1.14812 11.8969
80 3 4.91373 4.19712 8.47599
29 4 3.82377 6.65527 11.1379
137 2 3.23921 0.683583 11.5678
114 2 0.562968 5.92404 13.7802
248 2 3.50948 3.83509 15.4878
124 2 3.28525 5.22222 11.8427
136 2 2.42183 1.51287 13.0578
179 4 7.24843 2.36658 15.7202
183 1 5.79342 1.44642 14.9342
77 3 6.67941 3.88308 15.8018
60 3 -0.646874 3.76011 8.12911
196 2 4.88945 2.21823 14.7979
117 2 5.25425 1.57481 8.41805
227 3 4.74284 5.89814 15.7964
195 2 6.18865 0.975812 13.9968
245 1 2.81275 3.00921 14.9395
246 2 2.28897 3.40081 14.0173
247 2 3.33993 2.02792 14.7613
262 3 0.274294 2.20033 15.2224
228 2 2.30782 4.94152 14.9223
6 4 -0.703928 2.56239 9.2261
197 2 5.6097 0.646336 15.7513
149 2 2.17073 9.2831 7.81405
3 3 -5.92291 11.7774 0.876467
268 2 -3.97896 8.63043 0.534729
16 4 -3.26365 8.26994 6.62183
17 4 -4.57268 9.97682 4.60687
154 2 0.947276 9.67235 7.31983
161 2 -0.978322 10.0786 0.187303
31 4 -1.96567 10.2474 2.85354
33 4 0.117044 11.0498 5.33914
48 1 -1.10794 8.87454 1.83443
49 1 0.192895 9.55465 6.48937
67 3 -3.78295 7.0475 7.51833
68 3 -2.04183 7.74513 5.7442
28 4 4.08792 6.69902 4.95527
70 3 -4.41936 8.87467 5.76827
79 3 0.237684 7.0716 4.74483
87 3 1.54285 7.66603 2.49737
30 4 2.15024 8.17823 1.113
89 3 -1.93317 11.6987 2.07708
90 3 -3.41145 9.8517 3.52123
93 3 -0.716847 10.6197 4.06075
94 3 -0.46311 12.1918 6.31549
115 2 -4.24553 11.5093 5.35582
147 2 2.07705 7.67759 6.70262
151 2 -0.128224 9.34304 1.46089
152 2 -1.83429 8.55095 1.07436
153 2 -0.882662 8.10752 2.57711
272 2 0.65852 10.2291 0.220736
155 2 0.3947 8.68561 5.78315
156 2 -0.881321 9.53458 6.99971
46 1 2.51257 8.17516 7.59838
148 2 3.62318 7.95218 7.68945
271 2 1.5789 10.4003 1.90129
19 4 -1.10248 12.8204 7.72366
1 4 -6.58253 12.8092 1.92962
69 3 -6.07183 10.1015 4.02413
91 3 -2.52002 9.59619 7.74766
265 2 -4.31241 12.9141 2.40518
47 1 1.64454 9.9768 0.846081
252 2 -5.02649 9.34108 1.9253
251 1 -4.98877 8.97484 0.872401
134 2 -7.61979 12.9166 5.16
122 2 3.63724 8.05033 5.91896
270 2 0.478354 12.3838 1.82092
2 3 -7.50123 12.0722 3.02917
159 2 1.1664 10.9254 12.9798
18 4 -2.08966 8.3066 12.8761
22 4 -0.546122 12.8708 12.0006
32 4 -2.24662 10.4988 9.02648
35 4 -1.33286 10.8406 14.1902
43 1 -5.54385 10.9594 14.062
15 4 -4.03448 11.0431 15.9256
157 2 0.902989 9.11259 12.3655
51 1 0.158158 11.2649 15.3729
162 2 0.0427301 12.3426 15.7231
72 3 -1.43092 8.03195 11.4527
83 3 0.186798 7.59409 9.44855
158 2 1.87426 10.4593 11.1074
92 3 -0.951334 11.4404 9.06489
95 3 3.66695 8.02672 11.9694
96 3 -1.16496 9.30362 13.8642
97 3 -1.2551 11.8191 12.8819
98 3 -2.71384 11.2611 15.1225
116 2 -3.64901 8.96694 12.7262
120 2 -0.450467 12.173 10.434
126 2 -2.34793 9.55791 10.4067
127 2 -3.58256 11.3332 9.52335
128 2 2.30026 9.58015 14.0619
140 2 -5.81125 11.97 14.5229
50 1 1.54817 10.0971 12.3535
139 2 -4.59808 10.9981 13.4434
160 2 0.994235 11.1824 14.7262
88 3 2.76122 7.58367 15.7706
187 3 0.90869 13.2552 12.5698
27 4 1.76344 6.83145 8.85103
71 3 -2.42795 6.9481 13.6088
14 4 -0.892295 6.91795 10.4016
34 4 3.33581 9.6262 12.6155
86 3 2.95968 6.76241 9.84818
235 2 11.5548 1.72517 3.0725
37 4 13.0446 2.03653 5.83398
230 4 13.6242 0.167247 2.47108
39 4 11.2545 3.99032 7.46442
45 1 7.26776 5.08233 7.00281
54 1 10.5167 5.50348 6.60076
101 3 14.1007 2.9191 5.02502
102 3 13.7712 1.12553 6.85321
221 1 8.6569 0.471711 2.3176
4 4 15.0448 2.70874 3.68996
106 3 11.7397 2.89831 6.37019
232 3 14.287 1.60607 2.76611
129 2 12.2259 1.04548 4.6615
130 2 7.73842 5.71569 3.49983
169 2 11.0058 6.43858 7.11139
250 2 11.5231 4.77921 0.296711
146 2 7.86255 4.25849 6.43354
231 1 11.7033 0.622272 2.82892
145 2 7.4084 6.12921 6.51317
170 2 9.26201 5.4074 6.71025
171 2 10.9219 5.21749 5.50958
273 2 9.19353 0.31274 0.327693
224 2 9.18822 1.34749 1.84251
234 2 11.3589 0.349457 1.77766
103 3 5.67127 5.80417 1.57988
225 2 8.89327 0.406673 3.47303
207 4 14.7445 0.294747 7.88095
267 2 12.6105 6.46638 0.408893
11 4 13.1895 6.20596 8.96776
36 4 9.09565 2.16707 9.22518
52 1 10.4244 1.10683 10.0127
188 3 8.49214 2.07103 14.7182
100 3 8.30442 2.87592 10.4399
107 3 12.6856 4.64743 8.6052
110 2 14.7132 2.95854 10.15
204 2 7.88014 6.15544 10.4972
202 2 14.0238 3.49122 11.6919
163 2 11.4098 1.58939 9.92633
123 2 5.44529 6.3581 10.8624
165 2 10.0669 0.906408 11.1366
172 4 16.1389 2.44357 13.9361
173 1 14.2601 1.59788 13.6661
174 2 14.4429 2.70116 14.8768
175 2 15.7825 0.874414 13.0029
176 2 13.7724 2.19946 12.7537
266 2 15.0064 5.00672 15.8013
178 4 13.8192 5.67644 14.3282
180 4 9.84329 1.55029 13.9655
181 4 11.8127 3.79654 12.5614
205 2 9.11889 5.33681 9.43323
185 1 13.043 3.20346 11.1685
186 1 8.90041 6.34485 10.0073
189 3 10.8747 2.64071 13.3601
190 3 12.9346 4.43348 13.6384
192 3 10.933 5.07361 11.7863
263 3 15.7514 1.18129 8.60114
199 2 11.7843 1.34342 15.1664
200 2 12.8168 3.72689 10.1078
201 2 12.6758 2.11933 11.2419
182 4 10.6979 6.17516 10.7623
105 3 10.0105 3.46354 8.27482
177 2 13.5333 0.748248 14.0254
249 1 13.6625 5.84498 16.0134
184 1 10.7979 0.709515 15.2564
121 2 7.33071 3.68954 12.7741
144 2 7.45138 5.06053 8.12584
191 3 11.9599 6.66417 9.96794
237 1 7.66322 10.3788 0.060859
256 2 2.30843 10.9843 3.8297
167 2 8.87473 6.87273 2.22619
53 1 8.17575 7.42703 2.9001
104 3 5.24428 7.17444 3.9185
233 2 2.8313 12.7321 3.63609
125 2 3.91357 8.24786 1.14976
150 2 2.56741 10.2984 0.273769
166 2 7.23878 8.28456 1.96823
168 2 8.51769 7.81873 3.81173
206 4 9.26403 10.6302 3.78015
215 2 5.89086 9.085 7.67321
208 4 7.70602 10.6755 6.60493
209 1 6.25995 9.34191 6.64552
255 2 2.36139 12.4316 5.06226
211 3 8.53108 10.7016 5.14501
212 3 7.05184 12.0255 7.16114
213 2 8.50948 9.37239 2.83241
254 1 1.97701 11.3859 4.86439
216 2 6.56197 8.40494 6.13288
217 2 5.53248 9.95784 6.08402
219 2 10.0355 10.0503 7.58352
253 2 11.1057 8.10159 0.624022
210 1 8.99389 10.1642 7.9371
238 3 5.57749 12.2254 1.04295
240 2 8.00622 10.5205 1.16714
38 4 6.32432 6.64423 2.84856
257 2 2.40643 10.6869 5.64865
258 1 6.05021 11.9743 3.79923
259 2 6.364 11.0822 3.24611
260 2 5.03419 11.9109 4.44385
261 2 6.83446 12.5293 4.33122
198 2 2.50885 12.5721 14.8039
40 4 5.73746 11.6533 13.0541
108 3 4.49537 10.6667 12.7294
109 3 6.47852 11.7309 14.4145
214 2 5.43736 12.5759 9.05055
132 2 6.81868 11.1778 11.9168
236 4 7.35275 11.8546 15.7276
203 2 8.94059 7.19682 9.22398
131 2 5.38244 13.2044 12.3061
193 2 11.4285 9.78122 15.0824
218 2 8.8943 10.8937 8.77961
194 2 9.654 7.39855 11.4446
241 2 9.73182 10.9089 15.4069
269 2 10.4563 10.6268 13.422
264 2 8.90411 12.529 15.2179
274 2 8.48429 9.18218 8.14526
164 2 1.89913 13.1172 9.31349
239 2 8.28077 9.7941 15.9074
ITEM: TIMESTEP
300
ITEM: NUMBER OF ATOMS
274
ITEM: BOX BOUNDS xy xz yz pp pp pp
-8.3797999999999995e+00 1.8013900000000000e+01 -8.3797999999999995e+00
0.0000000000000000e+00 1.3405932000000000e+01 1.1950000000000001e+00
0.0000000000000000e+00 1.6075500000000002e+01 4.3551200000000001e-01
ITEM: ATOMS id type x y z
119 2 7.39756 1.48586 5.22599
12 4 -1.03877 6.53256 5.21373
7 4 0.903189 2.43415 5.0007
9 4 -0.385916 4.66382 1.86237
10 4 0.36478 4.60347 7.14225
242 1 3.15561 0.682273 3.16312
21 4 5.72749 1.46154 5.61601
26 4 5.45956 4.48644 6.82098
41 1 1.06354 0.854046 5.99695
44 1 3.77589 3.64673 2.0915
55 3 0.990438 1.08935 1.05291
56 3 -0.374176 2.41068 4.17464
58 3 -1.76061 4.4717 2.84558
59 3 -0.132078 3.52548 0.814781
243 2 3.6458 1.85524 3.11072
61 3 1.10334 3.67118 6.00858
62 3 -0.662033 5.62758 6.39825
74 3 5.68493 0.460865 7.32843
78 3 0.917892 5.13291 2.66647
81 3 5.44491 3.03874 5.78628
84 3 2.83913 6.20063 4.36358
85 3 4.77749 5.73085 6.04095
113 2 -1.88453 5.51094 4.09554
111 2 2.30214 2.28161 3.97175
112 2 -0.733467 5.99876 0.930684
24 4 4.65629 4.53488 0.718967
118 2 4.48213 0.841633 4.64639
5 4 0.259165 2.13453 0.0767666
222 3 6.26725 1.30346 1.18667
223 2 6.34222 0.837191 3.82221
141 2 3.60217 2.46255 1.90219
142 2 2.76473 4.16456 2.27871
143 2 4.47499 3.86025 2.99142
220 4 6.87447 0.286962 2.22899
25 4 1.49671 6.46182 3.46051
135 2 0.623339 0.974577 7.04918
244 2 2.75776 0.333306 4.23925
133 2 2.11951 0.528084 6.06157
267 2 -3.99918 6.44447 0.14897
71 3 -2.40115 6.82154 13.5876
8 4 2.019 2.75513 10.9036
13 4 0.432904 4.82712 12.4426
229 2 3.51732 6.4922 13.4217
20 4 4.75305 3.00904 9.36692
23 4 7.0595 2.69878 11.3949
99 3 8.14176 1.15323 8.24876
226 4 3.39819 6.26172 15.1303
42 1 2.20483 1.13641 11.8815
57 3 0.611216 2.66464 10.1834
63 3 -0.526569 3.71406 13.0637
64 3 2.02901 4.22779 12.2282
65 3 -2.20165 6.1443 9.71202
66 3 -0.196801 5.68102 11.3253
73 3 3.35408 2.91275 10.022
75 3 5.7292 3.18756 10.6226
76 3 6.9624 1.18487 11.9798
80 3 5.03759 4.20019 8.36819
138 2 1.54636 0.478046 11.2156
137 2 3.32325 0.874397 11.7939
114 2 0.898028 5.94762 13.5689
248 2 3.60064 3.72725 15.663
124 2 3.06157 5.36495 12.0978
136 2 1.81101 1.17895 12.9793
179 4 7.18418 2.50828 15.7083
183 1 5.68612 1.55955 15.1446
77 3 6.87856 4.03271 15.8811
60 3 -0.58663 3.68474 8.12338
196 2 4.68633 2.18343 15.148
117 2 5.11125 1.60539 8.42853
227 3 4.77921 5.76341 15.8522
195 2 5.93172 1.34752 14.0316
245 1 2.87788 3.09081 14.9454
246 2 2.63049 3.58872 13.9442
247 2 3.28628 1.96244 14.7927
262 3 0.213029 1.93129 15.2196
228 2 2.29876 4.99287 15.1961
6 4 -0.684356 2.57194 9.2227
197 2 5.58358 0.626209 15.7896
82 3 1.47963 5.43852 8.07563
149 2 2.29711 9.11871 7.52095
3 3 -5.91056 11.7703 0.88619
268 2 -3.96365 9.09015 0.962828
16 4 -3.21234 8.26068 6.69944
17 4 -4.46179 10.0436 4.68592
154 2 1.0217 9.53979 7.29847
161 2 -1.03673 10.1948 0.418235
31 4 -1.96819 10.2613 3.00202
33 4 0.0593344 11.0228 5.47946
48 1 -1.28328 8.85082 1.93595
49 1 0.0783221 9.40491 6.55153
67 3 -3.72008 7.04104 7.56984
68 3 -2.10406 7.65912 5.61079
28 4 4.09202 6.80546 5.03866
70 3 -4.4176 8.89005 5.87926
79 3 0.242469 7.08975 4.50113
87 3 1.73307 7.68184 2.32775
30 4 2.31496 8.0559 0.955268
89 3 -2.00731 11.7635 2.03318
90 3 -3.43175 9.84824 3.46877
93 3 -0.85498 10.5787 4.21131
94 3 -0.441583 12.2612 6.31125
115 2 -4.14983 11.5401 5.45114
147 2 2.02539 7.61932 6.38686
151 2 -0.129678 9.2443 1.52658
152 2 -2.01032 8.75332 1.10384
153 2 -1.16696 7.94392 2.53227
272 2 0.747928 10.236 0.236369
155 2 0.248047 8.55381 5.74218
156 2 -0.920711 9.36234 7.10269
46 1 2.45717 7.98268 7.38622
148 2 3.54872 7.70459 7.70766
271 2 1.51112 10.0428 2.00313
19 4 -1.1685 12.9198 7.66306
1 4 -6.63214 12.8366 2.07513
69 3 -5.9294 10.0973 3.98742
91 3 -2.66737 9.59216 7.75197
265 2 -4.4325 12.818 2.70267
47 1 1.65177 9.8769 0.85679
252 2 -5.45797 9.33224 2.09987
251 1 -5.12588 9.14367 1.028
159 2 1.44878 11.2196 12.8044
18 4 -2.04119 8.22675 12.9301
22 4 -0.457101 12.9019 12.0448
32 4 -2.18017 10.4336 8.97831
35 4 -1.29858 10.8751 14.2732
43 1 -5.62899 10.8439 13.9769
15 4 -4.06651 11.156 15.9936
157 2 0.853988 9.45868 12.3883
51 1 0.183388 11.3368 15.413
162 2 0.00707048 12.4497 15.5892
72 3 -1.51957 8.22313 11.4041
83 3 0.232859 7.43608 9.27472
158 2 1.95921 10.4238 11.0537
92 3 -1.16483 11.6282 9.03247
95 3 3.80208 8.17576 11.9725
96 3 -1.08931 9.12693 13.9258
97 3 -1.11905 11.6816 12.9492
98 3 -2.65626 11.1682 15.2043
116 2 -3.49706 9.11603 12.6749
120 2 -0.422648 12.2792 10.4424
126 2 -1.58842 9.33678 10.1376