ITEM: TIMESTEP
0
ITEM: NUMBER OF ATOMS
274
ITEM: BOX BOUNDS xy xz yz pp pp pp
-8.3797999999999995e+00 1.8013900000000000e+01 -8.3797999999999995e+00
0.0000000000000000e+00 1.3433955000000001e+01 1.1950000000000001e+00
0.0000000000000000e+00 1.6075500000000002e+01 5.9195500000000001e-01
ITEM: ATOMS id type x y z
119 2 7.36786 1.28586 5.28466
12 4 -0.996022 6.51501 5.30917
7 4 0.911585 2.25365 5.17832
9 4 -0.331825 4.75 1.83393
10 4 0.284129 4.49356 7.24978
242 1 3.24523 0.522193 3.16246
21 4 5.69452 1.49552 5.70759
26 4 5.36384 4.44322 6.80933
41 1 0.975833 0.640674 6.19723
44 1 3.74554 4.03601 1.80979
55 3 1.14621 0.960079 1.12899
56 3 -0.492089 2.45783 4.39565
58 3 -1.69111 4.54726 2.71756
59 3 0.0839074 3.46888 1.04043
243 2 3.62683 1.60733 3.21231
61 3 1.3402 3.35376 6.21556
62 3 -0.76045 5.41253 6.44103
74 3 5.87503 0.48372 7.37017
78 3 0.601711 5.45406 2.89604
81 3 5.50346 3.0289 5.94714
84 3 2.81668 6.012 4.18831
85 3 4.79986 5.73597 5.92532
113 2 -1.49554 5.55751 4.0014
111 2 2.19167 1.90512 4.04239
112 2 -0.645857 5.85191 0.591903
24 4 4.69154 4.91514 0.49435
118 2 4.43867 0.781447 4.75732
5 4 0.488812 2.12219 0.212754
222 3 6.32365 1.48547 1.27519
223 2 6.2608 0.977967 4.00027
141 2 3.79251 2.92776 1.54849
142 2 2.73639 4.54965 1.70543
143 2 4.35252 4.22222 2.79125
220 4 6.80863 0.423389 2.33219
82 3 1.37606 5.51609 7.84352
135 2 0.537175 1.0035 7.19706
197 2 4.39156 0.675479 0.0661422
138 2 1.72371 0.64839 12.2345
8 4 1.78529 2.72116 10.9725
13 4 0.453637 5.04575 12.3227
229 2 3.61719 6.45024 13.2329
20 4 4.65265 2.88762 9.33828
23 4 6.99196 2.80053 11.2295
99 3 8.34674 1.19395 8.32404
226 4 3.40894 6.42235 14.9338
42 1 2.34974 1.59602 12.3467
57 3 0.398015 2.12235 10.4305
63 3 -0.210938 3.87143 13.2405
64 3 1.88749 4.51484 11.8126
65 3 -2.32572 6.62527 9.61285
66 3 -0.489772 5.6188 11.1961
73 3 3.17463 2.48879 9.91973
75 3 5.64409 3.17779 10.5566
76 3 6.96431 1.37438 11.9012
80 3 4.69046 4.11758 8.49468
29 4 3.769 6.73468 11.0175
137 2 3.44673 1.45528 12.2612
114 2 0.948239 6.24176 13.4103
248 2 3.77267 4.11589 15.4325
124 2 3.4234 5.23475 11.6822
136 2 2.03312 2.24042 13.2542
179 4 7.35907 2.73439 15.77
183 1 5.84863 1.79714 15.1456
77 3 7.10068 4.2265 15.8366
60 3 -0.378435 3.57609 8.40343
196 2 5.14896 2.67501 14.9174
117 2 5.17463 1.57382 8.38122
227 3 4.7773 5.94018 15.5541
195 2 6.05351 1.06795 14.2914
245 1 3.03229 3.36182 15.0628
246 2 2.46611 3.69632 14.1387
247 2 3.52187 2.27903 14.901
262 3 0.379699 2.0762 15.3754
228 2 2.31341 5.18175 15.2794
266 2 -1.7984 5.32279 15.8799
149 2 2.35844 9.27204 7.74408
3 3 -5.86273 11.4436 0.92128
268 2 -4.71804 8.044 0.376345
16 4 -3.23698 8.24801 6.68801
17 4 -4.67138 10.0063 4.75513
154 2 1.07849 9.64166 7.40196
161 2 -1.08057 10.0552 0.269279
31 4 -2.07733 10.3488 3.06329
33 4 0.0334129 11.0614 5.5341
48 1 -1.34925 8.99492 1.97632
49 1 0.199523 9.59523 6.68769
122 2 3.61067 8.01572 5.85314
68 3 -2.03586 7.58079 5.73167
28 4 4.10433 6.70928 4.90082
70 3 -4.49552 8.84311 5.80856
79 3 0.440008 7.30724 4.80613
87 3 1.7875 7.74005 2.31779
30 4 2.35031 8.26186 0.928859
89 3 -2.21666 11.8432 2.06656
90 3 -3.49483 10.072 3.6935
93 3 -0.828124 10.7457 4.3199
94 3 -0.298749 12.3715 6.363
115 2 -4.582 11.4021 5.65336
147 2 2.06975 7.76963 6.50523
151 2 -0.127962 9.40016 1.54332
152 2 -2.16556 8.89422 1.21215
153 2 -1.31472 8.14315 2.72868
272 2 0.657763 10.2794 0.334311
155 2 0.243406 8.68263 5.8465
156 2 -0.859635 9.5793 7.24184
46 1 2.56186 8.13488 7.47571
148 2 3.67649 7.85726 7.54135
271 2 1.61594 10.3445 1.98657
19 4 -1.00946 12.8992 7.72627
1 4 -6.59505 12.6093 2.04898
69 3 -6.07141 9.96288 4.00622
91 3 -2.49921 9.52909 7.82009
265 2 -4.31674 12.7027 2.63654
47 1 1.63793 10.0392 0.889911
252 2 -5.55387 9.08247 1.80629
244 2 -5.51883 12.9472 4.18333
25 4 1.45828 6.5855 3.61456
251 1 -5.57429 8.73441 0.689969
133 2 -6.35546 13.0621 6.28341
159 2 1.43993 10.8889 13.3523
18 4 -2.15607 8.33246 12.8027
22 4 -0.601027 12.875 11.9942
32 4 -2.06159 10.5107 8.97513
35 4 -1.39557 10.8489 14.2119
43 1 -5.83661 11.3339 14.1677
15 4 -4.14393 11.0665 15.9356
157 2 1.00717 9.28214 12.4226
51 1 0.134144 11.2722 15.3405
162 2 -0.0947966 12.3533 15.5593
72 3 -1.44596 8.41652 11.4292
83 3 0.138217 7.4239 9.30313
158 2 1.99667 10.6305 11.5739
92 3 -0.844548 11.4546 8.9508
95 3 3.58315 7.92625 12.0581
96 3 -1.14553 9.22786 13.8612
97 3 -1.30211 11.7599 12.8109
98 3 -2.75814 11.0031 15.1156
116 2 -3.63971 8.9944 12.7458
120 2 -0.593565 12.2072 10.4187
126 2 -1.47492 9.5071 10.1766
127 2 -3.42629 11.2801 9.47775
128 2 2.60797 9.39427 14.2379
140 2 -6.05753 12.2071 14.9455
50 1 1.78556 10.1296 12.6091
139 2 -5.03117 11.6307 13.4232
160 2 1.0733 11.1055 14.7286
88 3 3.17302 7.96101 15.6221
187 3 0.93222 13.034 12.4945
27 4 1.68242 6.88083 8.67054
71 3 -2.64064 6.93762 13.4758
14 4 -0.908176 6.81965 10.3425
86 3 2.76232 6.87357 9.79324
235 2 11.4337 1.48875 3.10554
37 4 13.0566 2.02696 5.72219
230 4 13.7095 0.222139 2.45872
39 4 11.3668 4.008 7.58946
45 1 7.18251 4.92969 7.03333
54 1 10.4709 5.31208 6.66061
101 3 13.9421 3.16044 4.78181
102 3 13.8525 1.17253 6.7348
221 1 8.68411 0.278915 1.95736
4 4 14.9906 2.84375 3.57123
106 3 12.0877 2.98878 6.5626
232 3 14.4076 1.60808 2.65044
129 2 12.1916 0.940262 4.69625
130 2 7.74545 5.94346 3.07248
169 2 10.856 6.32646 7.00033
250 2 11.5539 4.82832 0.507261
146 2 7.76822 4.03955 6.67848
231 1 11.7398 0.425014 2.84689
145 2 7.28541 5.8028 6.34932
170 2 9.28331 5.22461 6.78823
171 2 10.82 5.07315 5.59456
234 2 11.5042 0.110773 1.75206
224 2 8.74918 1.20598 1.2714
249 1 12.4172 5.44515 0.0239366
103 3 5.6399 6.35748 1.24297
225 2 9.01081 0.49869 3.041
273 2 9.37513 0.121976 0.0409424
207 4 14.5558 0.299557 7.75237
11 4 13.1002 6.36656 8.97895
36 4 9.20947 2.16621 9.20719
52 1 10.5078 0.924489 9.96944
188 3 8.7602 2.15839 14.6576
100 3 8.40475 3.00446 10.3895
107 3 12.6332 4.80709 8.87444
110 2 14.756 3.06326 10.2949
204 2 8.04412 6.31659 10.7137
202 2 14.0585 3.75769 11.9081
163 2 11.4654 1.56386 10.0179
6 4 16.052 2.39441 9.37429
165 2 10.1282 0.565306 10.9928
172 4 16.2384 2.64936 14.1913
173 1 14.6523 1.62411 13.5787
174 2 14.6201 2.92288 14.9585
175 2 15.7238 0.960101 13.1187
176 2 14.1128 2.15928 12.6791
144 2 7.33768 5.18653 8.14687
178 4 13.6239 5.74457 14.3863
180 4 9.94502 1.58715 13.8322
181 4 11.8989 3.94969 12.6931
205 2 9.33953 5.18277 9.42519
185 1 13.1152 3.31822 11.3321
186 1 8.90318 6.37682 9.99764
189 3 10.846 2.77855 13.2283
190 3 12.8753 4.48417 13.846
192 3 11.0315 5.31639 11.9574
263 3 15.4669 1.09518 8.6759
199 2 11.9904 1.16418 14.8128
200 2 12.958 3.88807 10.2839
201 2 12.969 2.18797 11.4168
182 4 10.6518 6.36473 10.807
105 3 10.1727 3.18006 8.32524
177 2 13.9507 0.890098 14.1335
123 2 5.33483 6.44741 10.5606
184 1 10.9943 0.66785 14.9637
121 2 7.03767 3.98502 12.4876
237 1 7.32248 10.1798 0.0756026
256 2 1.42641 11.3117 3.79024
167 2 9.1306 7.44112 2.38626
53 1 8.18602 7.43442 2.94133
104 3 5.11818 7.29527 3.85161
233 2 2.85059 12.5568 3.62419
125 2 4.04292 8.17613 1.11147
150 2 2.55989 10.47 0.360704
166 2 6.91324 8.5639 2.0737
168 2 8.4117 7.84518 3.86983
206 4 9.29102 10.4292 3.66099
215 2 7.01663 8.03461 6.87726
208 4 7.70336 10.3041 6.4366
209 1 6.33796 8.92418 6.51178
255 2 2.36677 12.2573 5.24619
211 3 8.25383 10.4017 4.97753
212 3 6.8724 11.8511 7.14293
213 2 8.65824 9.30242 2.49973
254 1 1.88399 11.2848 4.95497
216 2 5.97443 8.81134 5.40645
217 2 5.51725 9.31595 7.20793
219 2 9.88103 9.17685 7.02271
253 2 10.3213 8.33992 0.2707
270 2 0.700964 12.2167 1.55158
238 3 5.59665 12.2794 1.00897
240 2 8.0283 10.2794 0.942034
239 2 6.47895 9.36646 0.31222
257 2 2.5121 10.4108 5.11208
258 1 5.96888 11.8749 3.89103
259 2 6.62324 11.1584 3.47107
260 2 4.92811 11.5199 4.22537
261 2 6.39839 12.5821 4.61252
38 4 6.18056 7.02873 2.56063
210 1 9.12898 9.70182 7.65588
134 2 8.73204 12.833 5.60757
2 3 9.21349 11.8945 3.0437
267 2 12.4919 6.62172 0.273766
67 3 12.939 6.96203 7.51401
198 2 2.58019 12.454 14.5684
40 4 5.97197 11.4071 13.0529
108 3 4.74504 10.4157 12.9053
109 3 6.50931 11.6914 14.4785
214 2 4.97265 12.57 8.76916
132 2 7.42411 10.922 12.3017
236 4 7.29875 12.1471 15.774
34 4 3.53221 9.40046 12.7385
131 2 5.66022 12.8787 12.4738
193 2 11.1774 10.0431 14.9136
218 2 9.55141 10.6356 8.13625
194 2 9.56757 7.58605 11.4225
241 2 9.04844 10.4342 15.2272
191 3 11.7987 7.1268 10.0829
264 2 8.93634 12.5466 15.4167
274 2 8.64201 9.05583 8.39053
164 2 2.05797 12.9258 9.19271
269 2 10.0503 11.1697 13.6635
203 2 8.67039 7.19834 9.27015
ITEM: TIMESTEP
100
ITEM: NUMBER OF ATOMS
274
ITEM: BOX BOUNDS xy xz yz pp pp pp
-8.3797999999999995e+00 1.8013900000000000e+01 -8.3797999999999995e+00
0.0000000000000000e+00 1.3433955000000001e+01 1.1950000000000001e+00
0.0000000000000000e+00 1.6075500000000002e+01 5.9195500000000001e-01
ITEM: ATOMS id type x y z
119 2 7.40577 1.26748 5.30509
12 4 -1.07422 6.45211 5.27023
7 4 0.923888 2.28032 5.1653
9 4 -0.503783 4.83871 1.91717
10 4 0.347438 4.54613 7.14669
242 1 3.28019 0.602912 3.19332
21 4 5.71067 1.42291 5.80171
26 4 5.3329 4.54987 6.88195
41 1 1.18692 0.653364 6.12082
44 1 3.73578 3.85437 1.84209
55 3 1.19193 1.10154 1.07553
56 3 -0.361365 2.34001 4.2156
58 3 -1.89308 4.58588 2.77387
59 3 -0.110281 3.52957 1.09107
243 2 3.46443 1.77602 3.0052
61 3 1.06506 3.58975 6.0702
62 3 -0.858943 5.40575 6.42353
74 3 5.64424 0.461094 7.52748
78 3 0.645721 5.24143 2.92608
81 3 5.37747 2.9157 6.07018
84 3 2.81485 6.18502 4.23673
85 3 4.62864 5.66077 6.06786
113 2 -1.75574 5.52872 3.9936
111 2 2.40638 2.03076 4.19006
112 2 -0.672708 6.15754 0.845879
24 4 4.73212 4.8202 0.515395
118 2 4.45988 0.726468 4.74026
5 4 0.374633 2.19078 0.213564
222 3 6.26376 1.39322 1.20949
223 2 6.24221 0.86301 4.01196
141 2 4.16789 2.77366 1.77334
142 2 2.69014 3.93472 1.46396
143 2 3.97939 4.55685 2.78464
220 4 6.71909 0.354093 2.34388
82 3 1.43268 5.5441 7.92762
135 2 0.6937 1.01949 7.10609
244 2 2.78448 0.289889 4.2288
133 2 2.29817 0.399844 6.29258
25 4 1.42842 6.47774 3.64218
138 2 1.1448 0.853406 12.3361
8 4 1.97579 2.69229 10.879
13 4 0.552733 4.92045 12.2493
229 2 3.55962 6.6814 13.4514
20 4 4.72441 3.08803 9.36113
23 4 7.03595 2.82197 11.3374
99 3 8.19184 1.23689 8.33352
226 4 3.50498 6.48711 15.0786
42 1 2.10117 1.39195 12.3093
57 3 0.517239 2.42901 10.2778
63 3 -0.239742 3.82583 13.1117
64 3 2.03592 4.34064 11.7794
65 3 -2.25377 6.44761 9.57146
66 3 -0.30545 5.72085 11.261
73 3 3.29427 2.64788 9.85837
75 3 5.66452 3.20603 10.6154
76 3 6.98131 1.36175 11.8861
80 3 4.82428 4.29493 8.37205
29 4 3.83608 6.69251 11.127
137 2 2.9752 0.780458 12.0304
114 2 1.15208 6.14403 13.3312
248 2 3.58232 3.86758 15.7024
124 2 3.25563 5.49494 12.0845
136 2 2.26454 2.12344 13.2043
179 4 7.26813 2.55646 15.7302
183 1 5.86871 1.49169 15.0875
77 3 6.75507 4.29639 15.806
60 3 -0.377709 3.63089 8.34811
196 2 4.88703 2.10063 15.2024
117 2 5.21681 1.66053 8.42275
227 3 4.88581 6.1023 15.6083
195 2 6.11508 1.32535 13.9854
245 1 2.91548 3.30583 15.0172
246 2 2.41252 3.8548 14.1694
247 2 3.40345 2.34771 14.6846
262 3 0.375256 2.25436 15.1551
228 2 2.41253 5.20712 15.2177
123 2 5.38153 6.14148 10.8744
86 3 3.00998 6.78137 9.84922
149 2 2.24255 9.24564 7.43235
3 3 -5.86709 11.5778 0.928198
268 2 -4.17825 8.40241 0.192865
16 4 -3.24896 8.24553 6.57419
17 4 -4.60657 9.99872 4.646
154 2 0.74531 9.63437 7.4941
161 2 -1.04734 10.1657 0.199883
31 4 -1.98761 10.272 3.08274
33 4 0.150454 10.9957 5.47304
48 1 -1.32257 8.97693 1.80863
49 1 -0.0411424 9.51612 6.63969
67 3 -3.80075 7.08118 7.55238
68 3 -2.04845 7.59272 5.65447
28 4 4.14785 6.69817 4.97609
70 3 -4.4858 8.93185 5.83607
79 3 0.43618 7.14355 4.80764
87 3 1.83264 7.63479 2.40659
30 4 2.31337 8.08013 0.972432
89 3 -2.0797 11.6677 2.03243
90 3 -3.44319 9.88347 3.58947
93 3 -0.76971 10.6083 4.24043
94 3 -0.328806 12.3179 6.23708
115 2 -4.44262 11.5565 5.37365
147 2 1.97978 7.63354 6.53307
151 2 -0.167253 9.28009 1.46041
152 2 -2.13914 8.96053 0.959313
153 2 -1.34432 8.08267 2.58395
272 2 0.706947 10.2143 0.191931
155 2 0.231001 8.53153 6.01783
156 2 -1.1443 9.60674 7.05211
46 1 2.47302 8.15614 7.3963
148 2 3.63482 7.9906 7.58232
271 2 1.66825 10.1848 1.8363
19 4 -1.08162 12.8364 7.76386
1 4 -6.51926 12.68 1.94987
69 3 -6.03124 10.0079 3.948
91 3 -2.62181 9.63322 7.74897
265 2 -4.34143 12.6471 2.72271
47 1 1.673 9.8854 0.738069
252 2 -5.01187 9.05947 1.721
251 1 -5.19136 8.65219 0.703142
159 2 1.36433 11.0699 13.1801
18 4 -2.14407 8.35698 12.8479
22 4 -0.554112 12.8734 12.0178
32 4 -2.1498 10.5565 8.97327
35 4 -1.35768 10.9761 14.2498
43 1 -5.62919 11.199 14.0075
15 4 -4.12678 10.9622 15.923
157 2 0.903306 9.50132 12.2203
51 1 0.212954 11.4156 15.2437
162 2 0.00641662 12.5086 15.3519
72 3 -1.25413 8.10262 11.4782
83 3 0.523599 7.59493 9.44231
158 2 2.15677 10.7433 11.3302
92 3 -0.862391 11.4132 9.04583
95 3 3.66468 8.09551 11.8532
96 3 -1.27841 9.12147 13.862
97 3 -1.28033 11.7378 12.7779
98 3 -2.74986 11.1647 15.1696
116 2 -3.29352 9.39687 12.2959
120 2 -0.41397 12.1708 10.4624
126 2 -2.18205 9.67902 10.4013
127 2 -3.38305 11.3831 9.72614
128 2 2.23989 9.28337 14.0412
140 2 -5.85582 12.1495 14.5718
50 1 1.72375 10.2448 12.403
139 2 -4.61005 11.3007 13.5448
160 2 1.166 11.2369 14.5593
88 3 2.73072 7.83373 15.6943
187 3 0.894474 13.1702 12.6158
27 4 1.76825 6.94395 8.78346
71 3 -2.75417 7.08641 13.5715
14 4 -0.849186 6.92315 10.4681
34 4 3.39917 9.41996 12.6958
197 2 -2.41605 13.4184 15.8212
235 2 11.501 1.51511 2.87282
37 4 13.0277 2.122 5.76175
230 4 13.709 0.249417 2.43928
39 4 11.3091 4.06112 7.48094
45 1 7.13907 5.26894 6.99792
54 1 10.425 5.45486 6.52945
101 3 14.0307 3.20778 4.95955
102 3 13.8386 1.10957 6.81439
221 1 8.59543 0.388948 2.18568
4 4 15.0135 2.85195 3.70961
106 3 11.9207 3.08174 6.45477
232 3 14.3734 1.67926 2.76672
129 2 12.1749 1.1865 4.58099
130 2 7.94093 5.83078 2.97095
169 2 10.9262 6.44178 6.90557
250 2 11.4428 4.63128 0.303122
146 2 7.75058 4.47537 6.49902
231 1 11.8215 0.464202 2.78021
145 2 7.10957 6.27239 6.45458
170 2 9.2886 5.45059 6.62175
171 2 10.8389 5.18086 5.47107
225 2 8.6662 0.729337 3.39519
224 2 8.94105 1.20454 1.50338
273 2 9.15691 0.205805 0.240833
103 3 5.67544 6.1013 1.42895
207 4 14.6883 0.317017 7.86538
234 2 11.4771 0.150509 1.69707
267 2 12.2541 6.37852 0.317066
266 2 13.6578 4.64764 0.000640921
11 4 13.0633 6.21501 8.88184
36 4 9.21177 2.25938 9.11173
52 1 10.5061 1.18796 9.98988
188 3 8.56668 2.14941 14.8441
100 3 8.32409 2.91864 10.36
107 3 12.7138 4.66045 8.66295
110 2 14.7755 3.14812 10.4259
204 2 8.11458 5.96677 10.8617
202 2 13.9763 3.73504 11.8335
163 2 11.5769 1.55227 9.95838
6 4 16.0295 2.55632 9.38037
165 2 10.1291 0.936535 11.0389
172 4 16.1512 2.5538 13.9784
173 1 14.3643 1.62269 13.5996
174 2 14.5477 2.93456 14.8227
175 2 15.5478 0.906074 12.9902
176 2 13.7877 2.15618 12.6847
144 2 7.43517 5.40113 8.09951
178 4 13.7689 5.70464 14.3212
180 4 9.86762 1.60372 13.8939
181 4 11.7885 4.01626 12.664
205 2 9.33579 5.11692 9.59979
185 1 12.9914 3.36038 11.2767
186 1 8.9925 6.10353 10.1945
189 3 10.8582 2.63948 13.1238
190 3 12.8087 4.61326 13.7659
192 3 10.983 5.18197 11.9615
263 3 15.5632 1.23513 8.76835
199 2 11.8265 1.36522 15.1447
200 2 12.8525 3.89688 10.1751
201 2 12.9133 2.23605 11.162
182 4 10.7962 6.33535 10.9271
105 3 10.1575 3.34043 8.35282
177 2 13.7207 0.884638 14.1676
249 1 13.531 5.89682 15.9813
184 1 10.8738 0.763223 15.1936
121 2 7.27047 3.8333 12.6733
237 1 7.46259 10.1373 0.13127
256 2 1.68677 11.4348 3.77761
167 2 9.10644 7.59186 2.344
53 1 8.12366 7.43366 2.87057
104 3 5.34462 7.09354 4.03437
233 2 2.91636 12.6109 3.61203
125 2 3.96844 7.92965 0.896659
150 2 2.60311 10.3287 0.196719
166 2 7.00599 8.55995 2.03586
168 2 8.1475 7.92716 4.00056
206 4 9.30215 10.4726 3.72009
215 2 6.31839 8.42193 7.58187
208 4 7.68232 10.4159 6.65064
209 1 6.2007 9.102 6.62891
255 2 2.31572 12.2824 5.35908
211 3 8.40448 10.3281 4.96215
212 3 7.04539 11.7913 7.28162
213 2 8.59281 9.38034 2.60045
254 1 1.9553 11.3086 4.90664
216 2 6.26269 8.62654 5.6287
217 2 5.35635 9.93894 6.76053
219 2 10.0839 9.48306 7.16015
253 2 10.8663 7.90235 0.742989
122 2 3.76978 8.13624 5.89439
238 3 5.52284 12.2174 0.943608
240 2 8.03094 10.3647 1.06264
239 2 6.65458 9.25146 0.3198
257 2 2.74657 10.4819 5.01772
258 1 5.94209 11.8629 3.84381
259 2 6.58929 11.1033 3.33902
260 2 5.04066 11.37 4.32478
261 2 6.55699 12.6443 4.47001
38 4 6.27383 6.91939 2.61745
210 1 9.18282 9.86214 7.70531
134 2 9.05364 12.7343 5.60511
2 3 9.26483 11.8704 2.91142
270 2 0.717687 12.2252 1.97821
198 2 2.61356 12.5528 14.757
40 4 5.72008 11.4959 12.9859
108 3 4.60147 10.4596 12.8984
109 3 6.45763 11.6223 14.4032
214 2 5.20168 12.5795 8.89387
132 2 6.81755 11.1225 11.879
236 4 7.3279 11.9782 15.6926
203 2 8.88753 6.95531 9.49573
131 2 5.44217 13.0779 12.3293
193 2 11.1387 9.94666 14.9722
218 2 9.40981 10.7305 8.43374
194 2 9.63697 7.5078 11.481
241 2 9.34654 10.5225 15.2939
191 3 11.7888 6.92069 9.92262
264 2 8.99098 12.4268 15.28
274 2 8.49181 8.97231 8.18494
164 2 2.06808 13.1066 9.30642
269 2 10.3647 11.0888 13.1874
ITEM: TIMESTEP
200
ITEM: NUMBER OF ATOMS
274
ITEM: BOX BOUNDS xy xz yz pp pp pp
-8.3797999999999995e+00 1.8013900000000000e+01 -8.3797999999999995e+00
0.0000000000000000e+00 1.3433955000000001e+01 1.1950000000000001e+00
0.0000000000000000e+00 1.6075500000000002e+01 5.9195500000000001e-01
ITEM: ATOMS id type x y z
119 2 7.3263 1.43734 5.36772
12 4 -1.16235 6.52321 5.2933
7 4 0.994358 2.39847 4.95669
9 4 -0.437304 4.73597 1.8868
10 4 0.284664 4.72566 7.21593
242 1 3.33123 0.577866 2.97935
21 4 5.67429 1.52358 5.7344
26 4 5.42353 4.6135 6.97047
41 1 1.00789 0.794492 5.89743
44 1 3.85108 3.79925 1.87539
55 3 1.02134 1.12549 1.20355
56 3 -0.336625 2.35735 4.15375
58 3 -1.74503 4.44776 2.90744
59 3 -0.139864 3.66825 0.744416
243 2 3.56596 1.73984 3.1258
61 3 1.14591 3.57134 6.02217
62 3 -0.724159 5.67712 6.49709
74 3 5.70547 0.4573 7.39067
78 3 0.840673 5.09619 2.67556
81 3 5.41914 3.05489 6.05564
84 3 2.82574 6.07479 4.21431
85 3 4.76837 5.87151 6.11902
113 2 -1.92022 5.52336 4.11326
111 2 2.45165 2.04618 3.94945
112 2 -0.946647 6.08878 1.01384
24 4 4.7555 4.82115 0.56961
118 2 4.38984 1.02994 4.62766
5 4 0.291665 2.1786 0.173059
222 3 6.31615 1.32933 1.28695
223 2 6.28522 0.911461 4.02932
141 2 4.54967 2.86447 1.84604
142 2 2.74722 3.7186 1.55438
143 2 4.06304 4.46772 2.82395
220 4 6.79681 0.368706 2.41104
82 3 1.34324 5.57231 7.98589
135 2 0.225688 0.824123 6.66409
25 4 1.40825 6.46343 3.55794
133 2 1.9934 0.617537 6.30708
138 2 1.27161 0.700369 11.7336
8 4 2.04596 2.73735 10.9004
13 4 0.506844 4.93135 12.4212
229 2 3.62557 6.52446 13.3904
20 4 4.7847 2.99581 9.41527
23 4 7.09832 2.81864 11.4654
99 3 8.11854 1.21629 8.43283
226 4 3.34827 6.41963 15.0619
42 1 2.26702 1.18405 11.9875
57 3 0.647597 2.46868 10.1456
63 3 -0.386054 3.74899 13.0141
64 3 2.00551 4.26486 12.0913
65 3 -2.17811 6.44013 9.57101
66 3 -0.0412083 5.69641 11.1793
73 3 3.35429 2.55599 9.90258
75 3 5.76373 3.2933 10.6332
76 3 6.90594 1.29833 11.8884
80 3 4.91066 4.25241 8.48364
29 4 3.82782 6.70534 11.097
137 2 3.21279 0.666359 11.5493
114 2 0.638167 6.01472 13.6992
248 2 3.54116 3.99967 15.5528
124 2 3.26936 5.25293 11.7719
136 2 2.41776 1.51373 13.1396
179 4 7.22096 2.49036 15.6812
183 1 5.80522 1.56731 14.9593
77 3 6.65841 4.02835 15.6941
60 3 -0.61369 3.75955 8.13208
196 2 5.17146 2.40189 14.5803
117 2 5.28283 1.63981 8.42183
227 3 4.68471 5.98483 15.8211
195 2 6.16689 0.766937 14.2098
245 1 2.8586 3.19355 14.9896
246 2 2.51284 3.59572 13.9573
247 2 3.36948 2.16852 14.9068
262 3 0.336533 2.28941 15.2359
228 2 2.26807 5.07246 14.8662
197 2 5.41543 1.03793 15.8927
6 4 -0.7246 2.60069 9.25259
149 2 2.2731 9.28627 7.78974
3 3 -5.93346 11.6654 0.904331
268 2 -3.93369 8.46495 0.504226
16 4 -3.26244 8.28168 6.60462
17 4 -4.58158 9.94479 4.57266
154 2 0.978745 9.65172 7.37412
161 2 -0.998758 9.92567 0.144459
31 4 -1.94351 10.1511 2.86136
33 4 0.132956 10.9692 5.31934
48 1 -1.08766 8.77881 1.83008
49 1 0.217133 9.52211 6.54167
67 3 -3.77009 7.06754 7.51828
68 3 -2.04518 7.72951 5.70076
28 4 4.07832 6.74865 4.94098
70 3 -4.43056 8.90705 5.78453
79 3 0.23326 7.0844 4.73098
87 3 1.58705 7.6377 2.47886
30 4 2.17988 8.14943 1.07847
89 3 -1.91202 11.6058 2.07775
90 3 -3.40662 9.75623 3.50353
93 3 -0.728025 10.5671 4.07008
94 3 -0.434747 12.1738 6.28546
115 2 -4.2726 11.5086 5.2555
147 2 2.08217 7.7589 6.68919
151 2 -0.0884474 9.25154 1.519
152 2 -1.8291 8.40212 1.02437
153 2 -0.913642 7.9888 2.61546
272 2 0.644599 10.2016 0.212682
155 2 0.442607 8.59806 5.82688
156 2 -0.844553 9.50718 7.06129
46 1 2.53368 8.20347 7.54935
148 2 3.60545 7.89931 7.65582
271 2 1.60018 10.2249 1.94127
19 4 -1.0664 12.7739 7.72745
1 4 -6.57009 12.6989 1.94794
69 3 -6.08111 10.0143 4.00456
91 3 -2.51044 9.58992 7.76449
265 2 -4.27213 12.9028 2.31467
47 1 1.66495 9.94153 0.849878
252 2 -4.98302 9.22419 1.91705
251 1 -4.96559 8.80447 0.799778
134 2 -7.61448 12.8108 5.15199
122 2 3.60696 8.10348 5.8428
244 2 -5.27151 12.9046 3.98411
270 2 0.492915 12.2905 1.87289
159 2 1.17613 10.8407 13.1758
18 4 -2.07779 8.34142 12.8549
22 4 -0.555264 12.8765 12.0231
32 4 -2.25447 10.4611 9.01759
35 4 -1.37593 10.8476 14.2259
43 1 -5.57764 10.9772 13.9956
15 4 -4.00263 11.0143 15.9525
157 2 0.897968 9.15481 12.0845
51 1 0.159198 11.3105 15.3395
162 2 0.00559732 12.3786 15.6759
72 3 -1.35866 8.07974 11.4679
83 3 0.184152 7.63986 9.41618
158 2 1.8822 10.7111 11.2341
92 3 -0.975938 11.3989 9.08417
95 3 3.66796 8.09052 11.9199
96 3 -1.12998 9.30362 13.9342
97 3 -1.2813 11.8024 12.8954
98 3 -2.73362 11.3395 15.1545
116 2 -3.63596 9.05506 12.6729
120 2 -0.474152 12.1545 10.4866
126 2 -2.34344 9.3965 10.3222
127 2 -3.60217 11.2569 9.55607
128 2 2.27556 9.58092 14.0409
140 2 -6.00689 11.9016 14.4883
50 1 1.55726 10.1001 12.3233
139 2 -4.54912 11.1901 13.4867
160 2 1.05674 11.1771 14.6476
88 3 2.72747 7.72338 15.7197
187 3 0.900587 13.195 12.6035
27 4 1.75838 6.87407 8.83191
71 3 -2.46596 6.98576 13.5987
14 4 -0.849325 6.9316 10.4002
86 3 2.9413 6.80951 9.82046
34 4 3.33396 9.65212 12.6026
235 2 11.5383 1.67899 3.19551
37 4 13.0435 2.06504 5.82784
230 4 13.6113 0.155598 2.48317
39 4 11.252 4.04698 7.43634
45 1 7.27812 5.10658 7.00647
54 1 10.5189 5.58101 6.58661
101 3 14.0726 2.96055 5.01096
102 3 13.7809 1.17164 6.85033
221 1 8.66867 0.542941 2.34056
4 4 15.0266 2.72675 3.6869
106 3 11.7504 2.93668 6.35785
232 3 14.2787 1.59018 2.76249
129 2 12.2178 1.00507 4.68497
130 2 7.63254 5.64035 3.60075
169 2 10.9851 6.45801 7.15717
250 2 11.5354 4.61179 0.310396
146 2 7.87969 4.28945 6.43191
231 1 11.7152 0.602304 2.85131
145 2 7.41454 6.1434 6.50204
170 2 9.2741 5.43781 6.70015
171 2 10.9264 5.34015 5.52655
225 2 8.92302 0.522207 3.48893
224 2 9.14895 1.41969 1.81078
273 2 9.17905 0.307536 0.330743
103 3 5.6893 5.77543 1.59338
207 4 14.7212 0.351364 7.89359
234 2 11.3954 0.411708 1.80926
267 2 12.3266 6.35663 0.431987
11 4 13.2039 6.24673 8.95745
36 4 9.09391 2.2906 9.2312
52 1 10.3962 1.21927 10.0302
188 3 8.47593 2.17391 14.7186
100 3 8.29473 3.03594 10.4421
107 3 12.6913 4.69326 8.5885
110 2 14.6839 3.00781 10.1913
204 2 7.90705 6.01515 10.542
202 2 14.0369 3.57299 11.7194
163 2 11.3883 1.70111 9.95671
123 2 5.43796 6.41916 10.8021
165 2 10.0507 1.03687 11.1072
172 4 16.1566 2.57862 13.9932
173 1 14.2543 1.72615 13.6915
174 2 14.3513 2.85502 14.859
175 2 15.7219 1.07182 13.0907
176 2 13.7633 2.2167 12.7401
144 2 7.5016 5.11347 8.11247
178 4 13.7718 5.74136 14.3234
180 4 9.83291 1.64695 13.9664
181 4 11.811 3.89565 12.6036
205 2 9.15752 5.49131 9.30842
185 1 13.0172 3.31865 11.1836
186 1 8.8796 6.36496 10.0474
189 3 10.8489 2.73188 13.3402
190 3 12.9543 4.47393 13.7141
192 3 10.9451 5.18217 11.8311
263 3 15.7091 1.21867 8.65962
199 2 11.7701 1.4832 15.1803
200 2 12.801 3.83895 10.099
201 2 12.6205 2.20542 11.2683
182 4 10.7 6.2423 10.7493
105 3 10.0164 3.53361 8.23134
177 2 13.5934 0.876925 14.125
249 1 13.5481 5.93525 16.049
184 1 10.7958 0.8378 15.2869
121 2 7.32309 3.79745 12.7983
266 2 14.7544 5.35478 16.0073
191 3 11.9628 6.71214 9.95055
237 1 7.73383 10.3039 0.0677295
256 2 2.21235 10.8708 3.77311
167 2 8.90549 6.72622 2.33916
53 1 8.17792 7.35558 2.91602
104 3 5.23273 7.22994 3.89648
233 2 2.82686 12.5575 3.6062
125 2 3.94678 8.07401 1.08344
150 2 2.59497 10.3305 0.289994
166 2 7.39161 8.2203 1.91156
168 2 8.53486 7.80761 3.80327
206 4 9.24542 10.5349 3.77189
215 2 5.89608 9.01939 7.75716
208 4 7.69411 10.5867 6.64123
209 1 6.23856 9.22236 6.72002
255 2 1.85148 12.4137 4.90422
211 3 8.53913 10.6264 5.11022
212 3 7.02976 11.9428 7.19598
213 2 8.50543 9.32412 2.84222
254 1 1.99864 11.2202 4.84
216 2 6.59524 8.29033 6.25301
217 2 5.48221 9.81127 6.11729
219 2 10.0583 9.94587 7.57406
253 2 11.1392 7.86145 0.609886
210 1 9.01993 10.041 7.97373
238 3 5.5779 12.0648 1.07397
240 2 8.12822 10.4771 1.14404
38 4 6.3292 6.63349 2.83701
257 2 2.76014 10.8593 5.54445
258 1 5.99016 11.8542 3.77854
259 2 6.31971 10.8922 3.22656
260 2 5.03795 11.8093 4.40086
261 2 6.82875 12.3932 4.32256
2 3 9.29505 11.9843 3.02974
198 2 2.54513 12.5639 14.8713
40 4 5.74603 11.6326 13.0666
108 3 4.47531 10.6997 12.722
109 3 6.48136 11.7173 14.4291
214 2 5.34073 12.5286 9.03661
132 2 6.83892 11.1269 11.95
236 4 7.33514 11.889 15.7309
203 2 8.83027 7.33023 9.42023
131 2 5.33794 13.1398 12.3578
193 2 11.5359 9.7786 14.9906
218 2 8.91784 10.7585 8.81162
194 2 9.73026 7.54745 11.376
241 2 9.71278 10.9934 15.3219
239 2 8.24675 9.86892 16.0309
264 2 8.88126 12.5853 15.2502
274 2 8.55977 9.0066 8.24581
269 2 10.5295 10.5981 13.2897
164 2 1.88962 13.1111 9.31631
ITEM: TIMESTEP
300
ITEM: NUMBER OF ATOMS
274
ITEM: BOX BOUNDS xy xz yz pp pp pp
-8.3797999999999995e+00 1.8013900000000000e+01 -8.3797999999999995e+00
0.0000000000000000e+00 1.3433955000000001e+01 1.1950000000000001e+00
0.0000000000000000e+00 1.6075500000000002e+01 5.9195500000000001e-01
ITEM: ATOMS id type x y z
119 2 7.40132 1.61182 5.2569
12 4 -1.03502 6.51588 5.19875
7 4 0.877133 2.47111 5.01362
9 4 -0.390416 4.69286 1.83833
10 4 0.349997 4.62163 7.14584
242 1 3.15041 0.646318 3.18645
21 4 5.73177 1.56681 5.63821
26 4 5.46452 4.54778 6.81894
41 1 1.06442 0.880848 5.99315
44 1 3.80411 3.58646 2.05808
55 3 1.02335 1.06799 1.1487
56 3 -0.399741 2.47095 4.17578
58 3 -1.79494 4.49382 2.81216
59 3 -0.116354 3.55856 0.815209
243 2 3.39328 1.8428 3.23209
61 3 1.07958 3.67367 6.03206
62 3 -0.670619 5.62285 6.38696
74 3 5.72493 0.576411 7.30326
78 3 0.890057 5.14207 2.66126
81 3 5.4336 3.13393 5.81869
84 3 2.85185 6.18029 4.35397
85 3 4.79869 5.83427 6.0437
113 2 -1.86112 5.50966 4.06212
111 2 2.29833 2.19358 3.95384
112 2 -0.753181 6.03448 0.910762
24 4 4.67776 4.52153 0.699398
118 2 4.49849 0.945282 4.66608
5 4 0.263875 2.12512 0.117089
222 3 6.20498 1.34352 1.17595
223 2 6.32929 0.941281 3.83102
141 2 3.82654 2.53087 1.53405
142 2 2.6998 3.9721 2.20831
143 2 4.48993 3.79548 2.97428
220 4 6.8551 0.367888 2.223
133 2 2.12008 0.586646 6.08843
135 2 0.610382 0.961307 7.01418
25 4 1.5165 6.45755 3.44618
244 2 2.79386 0.217823 4.14719
71 3 -2.43315 6.8375 13.6378
8 4 2.01032 2.76418 10.9203
13 4 0.493872 4.93285 12.4372
229 2 3.4426 6.57906 13.3625
20 4 4.74718 3.08814 9.36006
23 4 7.06643 2.81465 11.4012
99 3 8.13295 1.27193 8.23878
226 4 3.36461 6.4519 15.1193
42 1 2.23151 1.12077 11.8693
57 3 0.627317 2.6754 10.1906
63 3 -0.507448 3.85533 13.1224
64 3 2.02603 4.24759 12.2138
65 3 -2.18942 6.19911 9.71548
66 3 -0.144746 5.70199 11.2504
73 3 3.36313 2.92507 10.0304
75 3 5.69805 3.25854 10.6329
76 3 7.00055 1.36086 12.0112
80 3 4.99785 4.27454 8.37155
82 3 1.50807 5.44342 8.03823
137 2 3.33126 0.868256 11.6997
114 2 0.954442 6.11507 13.4868
248 2 3.53702 4.00342 15.5813
124 2 3.23003 5.39137 12.0518
136 2 1.92161 1.18227 12.9507
179 4 7.23033 2.58635 15.6526
183 1 5.79307 1.61388 14.9012
77 3 6.87105 4.14123 15.7933
60 3 -0.566526 3.70399 8.1392
196 2 5.24856 2.45562 14.3698
117 2 5.12394 1.67479 8.46332
227 3 4.77182 5.9711 15.8224
195 2 6.17428 0.821885 14.1387
245 1 2.90479 3.24608 15.0633
246 2 2.51912 3.64626 14.031
247 2 3.46119 2.19095 15.0154
262 3 0.205048 2.05593 15.2326
228 2 2.27393 5.14445 15.1799
197 2 5.26209 1.23546 15.8292
6 4 -0.679824 2.61234 9.26039
123 2 5.18022 6.51556 10.5828
138 2 1.50344 0.490198 11.2478
149 2 2.32172 9.13797 7.37732
3 3 -5.92184 11.6114 0.890563
268 2 -3.92872 8.9718 1.01061
16 4 -3.20611 8.27802 6.66716
17 4 -4.48783 9.98244 4.62744
154 2 0.991209 9.45498 7.33804
161 2 -1.05302 10.0889 0.285542
31 4 -1.9619 10.2306 2.99602
33 4 0.0666472 10.9613 5.50693
48 1 -1.22848 8.84967 1.92406
49 1 0.0775294 9.36063 6.54073
67 3 -3.72771 7.0444 7.52165
68 3 -2.07847 7.66403 5.57128
28 4 4.117 6.85248 5.02296
70 3 -4.39587 8.89849 5.86744
79 3 0.276014 7.06085 4.49576
87 3 1.77261 7.64022 2.31221
30 4 2.35884 8.06379 0.928906
89 3 -1.95956 11.6937 2.01828
90 3 -3.45604 9.7684 3.3733
93 3 -0.917386 10.5864 4.28123
94 3 -0.423739 12.2126 6.35876
115 2 -4.17868 11.507 5.31862
147 2 1.95098 7.6037 6.38223
151 2 -0.108859 9.1822 1.53476
152 2 -1.98719 8.71614 1.06167
153 2 -1.06247 7.95483 2.60096
272 2 0.842914 10.1514 0.248558
155 2 0.274522 8.48076 5.86083
156 2 -0.996499 9.37534 7.03257
46 1 2.45319 8.02281 7.29772
148 2 3.51177 7.74962 7.53008
271 2 1.56148 10.1167 1.96947
19 4 -1.12988 12.9135 7.67988
1 4 -6.65574 12.7383 2.1149
69 3 -5.9504 9.97864 3.92355
91 3 -2.63412 9.5866 7.77358
134 2 -7.92712 12.9626 5.31208
47 1 1.71226 9.86101 0.89697
252 2 -5.44999 9.21968 2.02251
251 1 -5.08418 9.02609 1.00563
265 2 -4.40753 12.8408 2.63407
159 2 1.4499 11.1988 13.0073
18 4 -2.04293 8.28248 12.9684
22 4 -0.474957 12.8927 12.0224
32 4 -2.17358 10.4162 9.00928
35 4 -1.29616 10.9268 14.2826
43 1 -5.50339 10.8434 14.0648
15 4 -4.14618 11.1896 15.9846
157 2 0.865148 9.41567 12.6522
51 1 0.209155 11.3486 15.3526
162 2 0.0137994 12.4796 15.4763
72 3 -1.383 8.21396 11.4362
83 3 0.244484 7.45938 9.24129
158 2 1.88233 10.4443 11.1516
92 3 -1.11341 11.5779 9.05091
95 3 3.75075 8.19905 11.9348
96 3 -1.19426 9.08841 13.9136
97 3 -1.214 11.707 12.9199
98 3 -2.67834 11.1153 15.1914
116 2 -3.47322 9.16031 12.5452
120 2 -0.498666 12.3062 10.4354