ITEM: TIMESTEP
0
ITEM: NUMBER OF ATOMS
274
ITEM: BOX BOUNDS xy xz yz pp pp pp
-8.4635979999999993e+00 1.8194039000000000e+01 -8.4635979999999993e+00
0.0000000000000000e+00 1.3273200000000001e+01 1.2069500000000000e+00
0.0000000000000000e+00 1.6075500000000002e+01 4.3120000000000003e-01
ITEM: ATOMS id type x y z
119 2 7.44154 1.23302 5.28466
12 4 -1.00598 6.46192 5.30917
7 4 0.920701 2.20187 5.17832
9 4 -0.335143 4.73166 1.83393
10 4 0.28697 4.42106 7.24978
242 1 3.27768 0.490568 3.16246
21 4 5.75147 1.43844 5.70759
26 4 5.41747 4.37513 6.80933
41 1 0.985592 0.578701 6.19723
44 1 3.78299 4.01791 1.80979
55 3 1.15767 0.948789 1.12899
56 3 -0.49701 2.41387 4.39565
58 3 -1.70802 4.52008 2.71756
59 3 0.0847464 3.45847 1.04043
243 2 3.6631 1.57521 3.21231
61 3 1.3536 3.2916 6.21556
62 3 -0.768054 5.34812 6.44103
74 3 5.93378 0.410019 7.37017
78 3 0.607728 5.4251 2.89604
81 3 5.5585 2.96943 5.94714
84 3 2.84484 5.97011 4.18831
85 3 4.84786 5.67672 5.92532
113 2 -1.5105 5.51749 4.0014
111 2 2.21358 1.86469 4.04239
112 2 -0.652316 5.84599 0.591903
24 4 4.73845 4.91019 0.49435
118 2 4.48306 0.733874 4.75732
5 4 0.4937 2.12006 0.212754
222 3 6.38688 1.47272 1.27519
223 2 6.32341 0.937965 4.00027
141 2 3.83043 2.91228 1.54849
142 2 2.76376 4.5326 1.70543
143 2 4.39605 4.19431 2.79125
220 4 6.87672 0.400067 2.33219
82 3 1.38982 5.43766 7.84352
135 2 0.542547 0.931526 7.19706
197 2 4.43547 0.674817 0.0661422
138 2 1.74095 0.526045 12.2345
8 4 1.80314 2.61143 10.9725
13 4 0.458174 4.92252 12.3227
229 2 3.65336 6.31791 13.2329
20 4 4.69917 2.79423 9.33828
23 4 7.06188 2.68823 11.2295
99 3 8.4302 1.11071 8.32404
226 4 3.44303 6.27301 14.9338
42 1 2.37324 1.47256 12.3467
57 3 0.401995 2.01805 10.4305
63 3 -0.213047 3.73903 13.2405
64 3 1.90637 4.39672 11.8126
65 3 -2.34897 6.52914 9.61285
66 3 -0.49467 5.50684 11.1961
73 3 3.20638 2.38959 9.91973
75 3 5.70053 3.07222 10.5566
76 3 7.03395 1.25537 11.9012
80 3 4.73737 4.03264 8.49468
29 4 3.80669 6.62451 11.0175
137 2 3.4812 1.33267 12.2612
114 2 0.957721 6.10766 13.4103
248 2 3.8104 3.96156 15.4325
124 2 3.45763 5.11793 11.6822
136 2 2.05345 2.10788 13.2542
179 4 7.43266 2.5767 15.77
183 1 5.90712 1.64569 15.1456
77 3 7.17169 4.06814 15.8366
60 3 -0.38222 3.49205 8.40343
196 2 5.20045 2.52584 14.9174
117 2 5.22637 1.49 8.38122
227 3 4.82507 5.78464 15.5541
195 2 6.11405 0.925039 14.2914
245 1 3.06261 3.21119 15.0628
246 2 2.49077 3.55493 14.1387
247 2 3.55709 2.13002 14.901
262 3 0.383496 1.92245 15.3754
228 2 2.33655 5.02895 15.2794
266 2 -1.81639 5.164 15.8799
149 2 2.38203 9.1946 7.74408
3 3 -5.92135 11.4344 0.92128
268 2 -4.76522 8.04023 0.376345
16 4 -3.26935 8.18113 6.68801
17 4 -4.7181 9.95873 4.75513
154 2 1.08927 9.56764 7.40196
161 2 -1.09138 10.0526 0.269279
31 4 -2.0981 10.3181 3.06329
33 4 0.033747 11.0061 5.5341
48 1 -1.36275 8.97516 1.97632
49 1 0.201519 9.52836 6.68769
122 2 3.64678 7.95718 5.85314
68 3 -2.05622 7.52347 5.73167
28 4 4.14537 6.66027 4.90082
70 3 -4.54048 8.78502 5.80856
79 3 0.444409 7.25918 4.80613
87 3 1.80537 7.71687 2.31779
30 4 2.37382 8.25257 0.928859
89 3 -2.23883 11.8225 2.06656
90 3 -3.52978 10.0351 3.6935
93 3 -0.836406 10.7025 4.3199
94 3 -0.301736 12.3079 6.363
115 2 -4.62782 11.3456 5.65336
147 2 2.09045 7.70458 6.50523
151 2 -0.129242 9.38472 1.54332
152 2 -2.18722 8.8821 1.21215
153 2 -1.32786 8.11586 2.72868
272 2 0.664341 10.276 0.334311
155 2 0.24584 8.62417 5.8465
156 2 -0.868232 9.50689 7.24184
46 1 2.58748 8.06013 7.47571
148 2 3.71325 7.78185 7.54135
271 2 1.6321 10.3246 1.98657
19 4 -1.01956 12.8219 7.72627
1 4 -6.66101 12.5888 2.04898
69 3 -6.13213 9.92282 4.00622
91 3 -2.5242 9.45089 7.82009
265 2 -4.35991 12.6763 2.63654
47 1 1.6543 10.0303 0.889911
252 2 -5.60941 9.0644 1.80629
244 2 -5.57402 12.9054 4.18333
25 4 1.47287 6.54935 3.61456
251 1 -5.63003 8.72751 0.689969
133 2 -6.41902 12.9992 6.28341
159 2 1.45433 10.7554 13.3523
18 4 -2.17763 8.20443 12.8027
22 4 -0.607038 12.755 11.9942
32 4 -2.08221 10.421 8.97513
35 4 -1.40953 10.7068 14.2119
43 1 -5.89497 11.1923 14.1677
15 4 -4.18537 10.9071 15.9356
157 2 1.01724 9.15792 12.4226
51 1 0.135486 11.1188 15.3405
162 2 -0.0957446 12.1977 15.5593
72 3 -1.46042 8.30223 11.4292
83 3 0.139599 7.33087 9.30313
158 2 2.01663 10.5148 11.5739
92 3 -0.852994 11.3651 8.9508
95 3 3.61898 7.80567 12.0581
96 3 -1.15698 9.08925 13.8612
97 3 -1.31513 11.6318 12.8109
98 3 -2.78572 10.8519 15.1156
116 2 -3.67611 8.86694 12.7458
120 2 -0.5995 12.103 10.4187
126 2 -1.48967 9.40533 10.1766
127 2 -3.46055 11.1853 9.47775
128 2 2.63405 9.25189 14.2379
140 2 -6.11811 12.0576 14.9455
50 1 1.80341 10.0035 12.6091
139 2 -5.08148 11.4964 13.4232
160 2 1.08403 10.9582 14.7286
88 3 3.20475 7.80479 15.6221
187 3 0.941542 12.909 12.4945
27 4 1.69924 6.79413 8.67054
71 3 -2.66705 6.80287 13.4758
14 4 -0.917258 6.71623 10.3425
86 3 2.78995 6.77564 9.79324
235 2 11.548 1.4577 3.10554
37 4 13.1872 1.96974 5.72219
230 4 13.8466 0.197552 2.45872
39 4 11.4805 3.93211 7.58946
45 1 7.25434 4.85936 7.03333
54 1 10.5756 5.24548 6.66061
101 3 14.0816 3.11263 4.78181
102 3 13.991 1.10518 6.7348
221 1 8.77096 0.259341 1.95736
4 4 15.1405 2.80804 3.57123
106 3 12.2086 2.92316 6.5626
232 3 14.5516 1.58157 2.65044
129 2 12.3135 0.8933 4.69625
130 2 7.8229 5.91273 3.07248
169 2 10.9646 6.25645 7.00033
250 2 11.6694 4.82325 0.507261
146 2 7.8459 3.97277 6.67848
231 1 11.8572 0.396546 2.84689
145 2 7.35826 5.73931 6.34932
170 2 9.37614 5.15672 6.78823
171 2 10.9282 5.0172 5.59456
234 2 11.6192 0.0932524 1.75206
224 2 8.83668 1.19326 1.2714
249 1 12.5414 5.44491 0.0239366
103 3 5.6963 6.34505 1.24297
225 2 9.10092 0.46828 3.041
273 2 9.46888 0.121567 0.0409424
207 4 14.7014 0.222033 7.75237
11 4 13.2312 6.27677 8.97895
36 4 9.30156 2.07413 9.20719
52 1 10.6129 0.824795 9.96944
188 3 8.84781 2.01182 14.6576
100 3 8.4888 2.90056 10.3895
107 3 12.7596 4.71835 8.87444
110 2 14.9036 2.96031 10.2949
204 2 8.12456 6.20945 10.7137
202 2 14.199 3.63861 11.9081
163 2 11.5801 1.46368 10.0179
6 4 16.2126 2.30067 9.37429
165 2 10.2295 0.455379 10.9928
172 4 16.4008 2.50744 14.1913
173 1 14.7988 1.48832 13.5787
174 2 14.7663 2.7733 14.9585
175 2 15.881 0.828914 13.1187
176 2 14.2539 2.03249 12.6791
144 2 7.41105 5.10506 8.14687
178 4 13.7601 5.6007 14.3863
180 4 10.0445 1.44883 13.8322
181 4 12.0179 3.82276 12.6931
205 2 9.43292 5.08852 9.42519
185 1 13.2463 3.2049 11.3321
186 1 8.99221 6.27684 9.99764
189 3 10.9545 2.64626 13.2283
190 3 13.0041 4.34571 13.846
192 3 11.1418 5.19682 11.9574
263 3 15.6216 1.00842 8.6759
199 2 12.1103 1.01605 14.8128
200 2 13.0876 3.78523 10.2839
201 2 13.0987 2.0738 11.4168
182 4 10.7583 6.25666 10.807
105 3 10.2745 3.09681 8.32524
177 2 14.0903 0.748763 14.1335
123 2 5.38818 6.3418 10.5606
184 1 11.1043 0.518213 14.9637
121 2 7.10804 3.86014 12.4876
237 1 7.3957 10.1791 0.0756026
256 2 1.44068 11.2738 3.79024
167 2 9.22191 7.41726 2.38626
53 1 8.26788 7.40501 2.94133
104 3 5.16936 7.25676 3.85161
233 2 2.8791 12.5205 3.62419
125 2 4.08335 8.16502 1.11147
150 2 2.58549 10.4664 0.360704
166 2 6.98237 8.54316 2.0737
168 2 8.49582 7.80649 3.86983
206 4 9.38393 10.3926 3.66099
215 2 7.0868 7.96584 6.87726
208 4 7.78039 10.2398 6.4366
209 1 6.40133 8.85906 6.51178
255 2 2.39044 12.2049 5.24619
211 3 8.33636 10.3519 4.97753
212 3 6.94112 11.7796 7.14293
213 2 8.74482 9.27742 2.49973
254 1 1.90283 11.2353 4.95497
216 2 6.03417 8.75728 5.40645
217 2 5.57243 9.24387 7.20793
219 2 9.97984 9.10662 7.02271
253 2 10.4245 8.33721 0.2707
270 2 0.707974 12.2012 1.55158
238 3 5.65262 12.2693 1.00897
240 2 8.10858 10.27 0.942034
239 2 6.54374 9.36334 0.31222
257 2 2.53723 10.3596 5.11208
258 1 6.02857 11.836 3.89103
259 2 6.68947 11.1237 3.47107
260 2 4.9774 11.4777 4.22537
261 2 6.46238 12.5359 4.61252
38 4 6.24237 7.00313 2.56063
210 1 9.22027 9.62526 7.65588
134 2 8.81936 12.7769 5.60757
2 3 9.30563 11.8641 3.0437
267 2 12.6168 6.61898 0.273766
67 3 13.0684 6.88688 7.51401
198 2 2.60599 12.3083 14.5684
40 4 6.03169 11.2766 13.0529
108 3 4.79249 10.2867 12.9053
109 3 6.5744 11.5466 14.4785
214 2 5.02238 12.4823 8.76916
132 2 7.49835 10.799 12.3017
236 4 7.37174 11.9893 15.774
34 4 3.56753 9.27307 12.7385
131 2 5.71682 12.754 12.4738
193 2 11.2892 9.89394 14.9136
218 2 9.64692 10.5542 8.13625
194 2 9.66325 7.47183 11.4225
241 2 9.13892 10.2819 15.2272
191 3 11.9167 7.02597 10.0829
264 2 9.02571 12.3924 15.4167
274 2 8.72843 8.97193 8.39053
164 2 2.07855 12.8339 9.19271
269 2 10.1508 11.0331 13.6635
203 2 8.75709 7.10564 9.27015
ITEM: TIMESTEP
100
ITEM: NUMBER OF ATOMS
274
ITEM: BOX BOUNDS xy xz yz pp pp pp
-8.4635979999999993e+00 1.8194039000000000e+01 -8.4635979999999993e+00
0.0000000000000000e+00 1.3273200000000001e+01 1.2069500000000000e+00
0.0000000000000000e+00 1.6075500000000002e+01 4.3120000000000003e-01
ITEM: ATOMS id type x y z
119 2 7.46294 1.20485 5.28225
12 4 -1.07079 6.39265 5.27796
7 4 0.903924 2.23151 5.1561
9 4 -0.495345 4.79826 1.93679
10 4 0.334087 4.47194 7.15831
242 1 3.2887 0.564987 3.19459
21 4 5.77171 1.36261 5.81583
26 4 5.38773 4.4755 6.88211
41 1 1.17943 0.593444 6.11115
44 1 3.77427 3.85525 1.8398
55 3 1.19339 1.07678 1.0962
56 3 -0.385314 2.29217 4.21533
58 3 -1.89328 4.53474 2.78888
59 3 -0.0972627 3.49999 1.10461
243 2 3.42722 1.72431 2.97077
61 3 1.04253 3.52226 6.06405
62 3 -0.848395 5.35181 6.43558
74 3 5.6905 0.38692 7.46473
78 3 0.652764 5.20765 2.94494
81 3 5.44685 2.8545 6.09029
84 3 2.83596 6.14468 4.24674
85 3 4.66711 5.55952 6.03797
113 2 -1.78519 5.48977 4.01028
111 2 2.37137 1.97022 4.1781
112 2 -0.640623 6.11547 0.859654
24 4 4.78021 4.81932 0.505681
118 2 4.51768 0.696992 4.69826
5 4 0.389011 2.16643 0.224632
222 3 6.32741 1.36959 1.20749
223 2 6.30979 0.817398 3.99668
141 2 4.20013 2.79084 1.74937
142 2 2.71503 3.93971 1.48497
143 2 4.01798 4.54392 2.76846
220 4 6.76622 0.31944 2.34162
82 3 1.44128 5.46771 7.93486
135 2 0.685847 0.969149 7.0971
244 2 2.90087 0.275114 4.28018
133 2 2.28993 0.34491 6.27873
25 4 1.43993 6.42769 3.65523
138 2 1.11343 0.756147 12.3494
8 4 2.0072 2.59292 10.8465
13 4 0.541792 4.80072 12.2482
229 2 3.58659 6.51373 13.4286
20 4 4.78603 2.99318 9.34508
23 4 7.1031 2.70961 11.3283
99 3 8.28046 1.12453 8.3152
226 4 3.56167 6.326 15.0703
42 1 2.10565 1.2913 12.2779
57 3 0.540436 2.33236 10.2453
63 3 -0.238991 3.7043 13.1172
64 3 2.01861 4.2301 11.7609
65 3 -2.29345 6.3399 9.55161
66 3 -0.324745 5.60308 11.251
73 3 3.32728 2.58295 9.8976
75 3 5.72311 3.07495 10.5911
76 3 7.05082 1.23653 11.8766
80 3 4.89354 4.2389 8.38686
29 4 3.84103 6.563 11.1257
137 2 2.92457 0.63082 11.9505
114 2 1.12539 6.01948 13.3204
248 2 3.57198 3.68083 15.7363
124 2 3.25077 5.35022 12.0758
136 2 2.32294 1.97264 13.1994
179 4 7.36498 2.3952 15.7349
183 1 5.96224 1.32456 15.0874
77 3 6.80404 4.12292 15.8139
60 3 -0.400508 3.57047 8.35254
196 2 4.9595 1.88252 15.2236
117 2 5.24048 1.59753 8.38868
227 3 4.94436 5.93857 15.595
195 2 6.22688 1.22597 13.9825
245 1 2.93359 3.13247 15.0247
246 2 2.40279 3.67867 14.2
247 2 3.39758 2.18304 14.6922
262 3 0.389448 2.10264 15.1361
228 2 2.47146 5.04875 15.179
123 2 5.38023 5.9816 10.8659
86 3 3.02202 6.67974 9.85363
149 2 2.12998 9.14276 7.44371
3 3 -5.92353 11.5647 0.934486
268 2 -4.35924 8.00332 0.0994882
16 4 -3.26601 8.16706 6.56507
17 4 -4.63213 9.94423 4.66007
154 2 0.751752 9.56642 7.54089
161 2 -1.08997 10.1688 0.214068
31 4 -2.02301 10.2447 3.09685
33 4 0.126954 10.9535 5.5298
48 1 -1.36963 8.95407 1.80115
49 1 -0.0418638 9.47045 6.6665
67 3 -3.84668 7.01442 7.54009
68 3 -2.05619 7.52341 5.68342
28 4 4.17952 6.6176 4.98887
70 3 -4.49001 8.83565 5.81008
79 3 0.438876 7.08046 4.82183
87 3 1.83912 7.61131 2.41572
30 4 2.30049 8.0704 0.986546
89 3 -2.1074 11.6299 2.02693
90 3 -3.47641 9.86019 3.59431
93 3 -0.82178 10.5947 4.22468
94 3 -0.337684 12.3388 6.21293
115 2 -4.46873 11.4866 5.42419
147 2 2.07118 7.50417 6.50622
151 2 -0.175818 9.26291 1.45712
152 2 -2.1363 8.9169 0.954903
153 2 -1.40614 8.06217 2.5795
272 2 0.646163 10.1768 0.220946
155 2 0.213615 8.49271 6.05671
156 2 -1.11895 9.49927 7.07437
46 1 2.47094 8.06975 7.39915
148 2 3.61287 8.00405 7.61573
271 2 1.63703 10.1675 1.84525
19 4 -1.05275 12.7163 7.72485
1 4 -6.5862 12.6579 1.96071
69 3 -6.06677 9.96559 3.97622
91 3 -2.65681 9.53606 7.76557
265 2 -4.36925 12.6662 2.76145
47 1 1.62586 9.86369 0.750523
252 2 -4.96601 8.91993 1.75288
251 1 -5.2185 8.61895 0.681676
159 2 1.39993 10.9459 13.1487
18 4 -2.1724 8.2149 12.8583
22 4 -0.56734 12.7429 12.004
32 4 -2.17062 10.4702 8.97264
35 4 -1.36987 10.8484 14.2474
43 1 -5.65888 11.0495 14.0138
15 4 -4.14978 10.7686 15.9245
157 2 0.942056 9.37855 12.2034
51 1 0.190556 11.2502 15.2604
162 2 0.0116208 12.3599 15.3856
72 3 -1.28427 7.99672 11.4754
83 3 0.524897 7.49237 9.46083
158 2 2.20874 10.637 11.3375
92 3 -0.86079 11.3193 9.03603
95 3 3.69537 7.96814 11.8679
96 3 -1.28374 8.99041 13.845
97 3 -1.26354 11.6315 12.8183
98 3 -2.78391 11.0068 15.1709
116 2 -3.3484 9.2461 12.3547
120 2 -0.419177 12.0258 10.4519
126 2 -2.23142 9.61152 10.4155
127 2 -3.36817 11.3378 9.71209
128 2 2.29447 9.18125 14.025
140 2 -5.89643 11.9173 14.5954
50 1 1.75452 10.1213 12.403
139 2 -4.64149 11.1694 13.5527
160 2 1.16032 11.0917 14.6444
88 3 2.79584 7.6797 15.7211
187 3 0.881172 13.0512 12.5963
27 4 1.76786 6.85058 8.79861
71 3 -2.75751 6.92161 13.5587
14 4 -0.867687 6.81182 10.4511
34 4 3.43467 9.29594 12.7117
197 2 -2.38711 13.216 15.7579
235 2 11.6412 1.50101 2.83896
37 4 13.1785 2.06678 5.77431
230 4 13.8594 0.211565 2.44289
39 4 11.4134 3.96742 7.5067
45 1 7.22618 5.21226 6.9714
54 1 10.4847 5.37594 6.57848
101 3 14.1923 3.17282 4.97894
102 3 14.0053 1.06393 6.81669
221 1 8.65422 0.356728 2.18896
4 4 15.1655 2.80442 3.72927
106 3 12.0616 3.02112 6.46355
232 3 14.5093 1.64894 2.77376
129 2 12.3215 1.12974 4.5956
130 2 7.84479 5.7427 3.06807
169 2 11.0369 6.35252 6.95599
250 2 11.4545 4.90041 0.148472
146 2 7.818 4.43768 6.45165
231 1 11.972 0.431324 2.79019
145 2 7.16447 6.23328 6.45959
170 2 9.2508 5.35038 6.7003
171 2 10.8615 5.07414 5.51331
225 2 8.69539 0.686302 3.39972
224 2 8.95583 1.19661 1.52132
273 2 9.22853 0.201954 0.252565
103 3 5.71772 6.11412 1.4234
207 4 14.844 0.261519 7.86171
234 2 11.6269 0.104557 1.73055
11 4 13.2097 6.12789 8.86794
36 4 9.29557 2.18325 9.11004
52 1 10.5717 1.09755 9.99591
188 3 8.65466 2.01854 14.8509
100 3 8.40488 2.82825 10.332
107 3 12.8318 4.59843 8.64841
110 2 14.9281 3.02181 10.4314
204 2 8.25278 5.87973 10.8756
202 2 14.1225 3.60412 11.8386
163 2 11.6516 1.4667 9.97853
6 4 16.1955 2.48889 9.37634
165 2 10.1881 0.816369 11.0436
172 4 16.3285 2.4269 13.9784
173 1 14.5216 1.54628 13.5986
174 2 14.6698 2.73201 14.813
175 2 15.8629 0.815906 12.9379
176 2 13.9913 2.13328 12.7471
144 2 7.49497 5.31129 8.06875
178 4 13.8701 5.58503 14.2798
180 4 9.95791 1.49768 13.893
181 4 11.9309 3.89444 12.6489
205 2 9.45125 5.00285 9.62913
185 1 13.1442 3.23492 11.254
186 1 9.12094 5.99953 10.2095
189 3 10.975 2.50138 13.1146
190 3 12.9315 4.48197 13.7571
192 3 11.1314 5.04228 11.9574
263 3 15.7191 1.17586 8.76966
199 2 11.9099 1.20852 15.0991
200 2 12.9917 3.80502 10.165
201 2 13.0874 2.10988 11.0991
182 4 10.948 6.2116 10.922
105 3 10.2745 3.23087 8.37244
177 2 13.8608 0.651983 14.0029
249 1 13.7007 5.88409 15.983
184 1 10.9526 0.622015 15.1752
121 2 7.31462 3.72251 12.6594
266 2 15.002 5.14298 16.0082
237 1 7.52227 10.1418 0.113867
256 2 1.53277 11.3674 3.80857
167 2 9.12147 7.61006 2.35668
53 1 8.14744 7.45475 2.87623
104 3 5.36403 7.04887 4.05141
233 2 2.92744 12.5749 3.62474
125 2 3.95194 7.98424 0.931388
150 2 2.53962 10.3405 0.186107
166 2 7.07109 8.5358 2.09478
168 2 8.25213 7.9307 4.00019
206 4 9.43489 10.4266 3.73122
215 2 6.76374 8.51035 7.56654
208 4 7.75406 10.3705 6.62173
209 1 6.28861 9.0897 6.55692
255 2 2.28704 12.3139 5.31703
211 3 8.53111 10.2894 4.96275
212 3 7.10572 11.7444 7.26203
213 2 8.79909 9.31327 2.55206
254 1 1.93972 11.3251 4.88949
216 2 6.23931 8.47937 5.64371
217 2 5.35598 9.71546 6.81571
219 2 10.1834 9.43717 7.11354
253 2 10.6579 8.27501 0.57846
267 2 12.5978 6.62585 0.271411
238 3 5.58467 12.2021 0.948872
240 2 8.06842 10.3742 1.05933
239 2 6.70715 9.25914 0.28568
257 2 2.68739 10.4984 5.03936
258 1 6.0152 11.8388 3.85565
259 2 6.68486 11.1348 3.2212
260 2 5.1447 11.3118 4.29281
261 2 6.60945 12.6626 4.51049
38 4 6.30398 6.86072 2.64054
210 1 9.28385 9.77841 7.72767
134 2 9.13979 12.6726 5.58112
2 3 9.38945 11.8318 2.92683
270 2 0.696473 12.2169 1.96256
122 2 3.83442 8.02307 5.9875
198 2 2.56056 12.4131 14.6828
40 4 5.77967 11.3541 12.9832
108 3 4.6487 10.3291 12.906
109 3 6.52228 11.4945 14.3933
214 2 5.27087 12.5234 8.89799
132 2 6.85836 10.9637 11.8528
236 4 7.39112 11.8198 15.6774
203 2 9.01324 6.83082 9.50167
131 2 5.51595 12.9282 12.3623
193 2 11.2798 9.78446 14.8791
218 2 9.42828 10.7269 8.38732
194 2 9.78103 7.37642 11.4967
241 2 9.42519 10.3806 15.2774
191 3 11.9222 6.82435 9.92211
264 2 9.05445 12.2576 15.2653
274 2 8.60449 8.90581 8.19833
164 2 2.05132 13.031 9.29512
269 2 10.5149 10.9991 13.1877
ITEM: TIMESTEP
200
ITEM: NUMBER OF ATOMS
274
ITEM: BOX BOUNDS xy xz yz pp pp pp
-8.4635979999999993e+00 1.8194039000000000e+01 -8.4635979999999993e+00
0.0000000000000000e+00 1.3273200000000001e+01 1.2069500000000000e+00
0.0000000000000000e+00 1.6075500000000002e+01 4.3120000000000003e-01
ITEM: ATOMS id type x y z
119 2 7.39238 1.47479 5.35698
12 4 -1.14843 6.48464 5.31344
7 4 0.977379 2.32104 4.94788
9 4 -0.404539 4.67221 1.90574
10 4 0.257543 4.63811 7.23355
242 1 3.37504 0.609847 2.98331
21 4 5.73354 1.44594 5.72728
26 4 5.50011 4.5379 6.94823
41 1 0.980149 0.716991 5.88435
44 1 3.86237 3.81472 1.85356
55 3 1.03187 1.04574 1.16857
56 3 -0.370906 2.26324 4.15922
58 3 -1.74052 4.40254 2.93067
59 3 -0.0729138 3.61736 0.764852
243 2 3.51903 1.71648 3.04385
61 3 1.08669 3.47277 6.03423
62 3 -0.710585 5.62857 6.5079
74 3 5.79452 0.358286 7.38376
78 3 0.856379 5.02589 2.72995
81 3 5.51395 2.96271 6.1211
84 3 2.82186 6.02086 4.26041
85 3 4.8018 5.7339 6.09846
113 2 -1.92275 5.48762 4.13015
111 2 2.43549 2.05206 3.91437
112 2 -0.912166 6.02423 1.04964
24 4 4.80359 4.84888 0.571297
118 2 4.43509 0.919231 4.63254
5 4 0.291339 2.11194 0.145651
222 3 6.3625 1.31241 1.26718
223 2 6.27571 0.868057 4.04043
141 2 4.49626 2.87989 1.92534
142 2 2.79528 3.74368 1.50878
143 2 4.04937 4.49325 2.78082
220 4 6.84944 0.341306 2.39526
25 4 1.40402 6.41793 3.58522
135 2 0.161183 0.756661 6.65844
133 2 1.9878 0.559289 6.31445
82 3 1.35644 5.47928 7.99269
138 2 1.36917 0.562081 11.7148
8 4 2.07709 2.68435 10.8578
13 4 0.483511 4.83672 12.4214
229 2 3.65759 6.38134 13.3853
20 4 4.8487 2.9164 9.39475
23 4 7.16449 2.69863 11.4427
99 3 8.20024 1.15744 8.44073
226 4 3.41404 6.24778 15.0804
42 1 2.29261 1.15883 11.9873
57 3 0.714854 2.41576 10.0704
63 3 -0.370973 3.61385 13.0122
64 3 2.00401 4.19216 12.0847
65 3 -2.2092 6.34354 9.53017
66 3 -0.10008 5.52413 11.1571
73 3 3.37404 2.48109 9.88906
75 3 5.81948 3.15144 10.6017
76 3 6.97744 1.15935 11.8683
80 3 4.9798 4.1817 8.48988
29 4 3.81797 6.58477 11.1226
137 2 3.27381 0.723946 11.6296
114 2 0.565669 5.94084 13.7076
248 2 3.47163 3.81608 15.5468
124 2 3.29477 5.1377 11.8227
136 2 2.34477 1.449 13.0734
179 4 7.31761 2.34139 15.6809
183 1 5.90662 1.3585 14.9156
77 3 6.74548 3.88031 15.7397
60 3 -0.673475 3.72149 8.16749
196 2 5.17767 2.20451 14.5594
117 2 5.30763 1.57171 8.38465
227 3 4.77679 5.82962 15.7835
195 2 6.32742 0.655431 14.1382
245 1 2.85939 2.98616 14.9482
246 2 2.37586 3.37006 14.0085
247 2 3.44817 2.07403 14.7719
262 3 0.312991 2.12978 15.2303
228 2 2.31067 4.88401 14.8973
197 2 5.53727 0.781846 15.8296
6 4 -0.704242 2.53272 9.26434
149 2 2.12498 9.23273 7.8831
3 3 -5.97448 11.6386 0.915075
134 2 -7.72173 12.7302 5.12592
16 4 -3.26254 8.19076 6.60753
17 4 -4.58725 9.88959 4.59317
154 2 0.963775 9.62011 7.26771
161 2 -1.03305 9.92566 0.18669
31 4 -1.99122 10.1251 2.85795
33 4 0.111201 10.9448 5.33269
48 1 -1.15581 8.7267 1.82854
49 1 0.175717 9.49689 6.52036
67 3 -3.80128 6.94911 7.49045
68 3 -2.04192 7.68463 5.73056
28 4 4.08387 6.65778 4.97422
70 3 -4.41098 8.82478 5.77786
79 3 0.260841 7.03048 4.75976
87 3 1.55738 7.56627 2.48922
30 4 2.14383 8.12139 1.12617
89 3 -1.94997 11.5616 2.06143
90 3 -3.46494 9.71102 3.47447
93 3 -0.853674 10.4941 3.98548
94 3 -0.487825 12.0928 6.30278
115 2 -4.21784 11.4347 5.31017
147 2 2.0312 7.67225 6.7249
151 2 -0.164475 9.21799 1.49814
152 2 -1.8534 8.36994 1.01381
153 2 -0.946094 7.92294 2.58449
272 2 0.599669 10.1662 0.25632
155 2 0.41285 8.5748 5.8421
156 2 -0.879071 9.42327 7.05281
46 1 2.50402 8.13539 7.59411
148 2 3.61271 7.98619 7.69344
271 2 1.51588 10.2488 2.00097
19 4 -1.10118 12.7258 7.72413
1 4 -6.5986 12.6609 1.94669
69 3 -6.08057 10.0075 4.04784
91 3 -2.55363 9.49912 7.77366
268 2 -4.31742 7.99322 0.194734
47 1 1.61003 9.93028 0.912679
252 2 -4.466 9.26788 1.70274
251 1 -5.02316 8.72532 0.82267
267 2 -4.1305 6.63548 0.361231
2 3 -7.52562 11.9422 3.0529
122 2 3.63008 8.02559 5.91339
270 2 0.433161 12.2714 1.85075
244 2 -5.30772 12.9217 3.97984
265 2 -4.30561 12.8818 2.26019
159 2 1.18017 10.6774 13.3414
18 4 -2.09241 8.21515 12.825
22 4 -0.57966 12.7237 12.0103
32 4 -2.28332 10.4468 9.02012
35 4 -1.38666 10.6962 14.241
43 1 -5.57805 10.8492 14.0673
15 4 -4.08419 10.8707 15.9008
157 2 0.919837 9.12404 12.0723
51 1 0.149109 11.1356 15.3506
162 2 0.11296 12.1643 15.7158
72 3 -1.36471 7.94212 11.4598
83 3 0.167844 7.52603 9.44506
158 2 1.95166 10.7174 11.3276
92 3 -0.931205 11.3389 9.07702
95 3 3.67699 7.96306 11.9473
96 3 -1.14853 9.16971 13.8735
97 3 -1.33459 11.7116 12.9441
98 3 -2.75357 11.099 15.168
116 2 -3.61967 8.95999 12.5883
120 2 -0.451764 11.9829 10.4703
126 2 -2.53188 9.59805 10.4395
127 2 -3.62554 11.3439 9.40309
128 2 2.3728 9.47652 14.0978
140 2 -5.94505 11.8557 14.5631
50 1 1.59441 10.0107 12.397
139 2 -4.5325 10.9997 13.538
160 2 1.10039 10.9693 14.6761
88 3 2.80902 7.55897 15.7756
187 3 0.865375 13.0569 12.5889
27 4 1.75161 6.78135 8.84815
71 3 -2.51396 6.87336 13.5947
14 4 -0.905061 6.80874 10.3594
86 3 2.94291 6.71041 9.84538
235 2 11.8192 1.70177 3.08905
37 4 13.1905 2.04076 5.83676
230 4 13.7594 0.125821 2.47589
39 4 11.356 3.9517 7.46691
45 1 7.35369 5.05182 6.98493
54 1 10.5982 5.49047 6.6567
101 3 14.2245 2.95199 5.0236
102 3 13.9142 1.13049 6.84903
221 1 8.72308 0.486406 2.31693
4 4 15.1818 2.69049 3.6963
106 3 11.8613 2.88174 6.35213
232 3 14.4026 1.5698 2.79648
129 2 12.379 1.01677 4.69264
130 2 7.59707 5.64484 3.60873
169 2 11.0858 6.39838 7.21162
250 2 11.6334 5.10783 0.362409
146 2 7.91192 4.27053 6.38789
231 1 11.8127 0.579069 2.85508
145 2 7.4283 6.10083 6.48668
170 2 9.37507 5.37753 6.75903
171 2 10.9973 5.24901 5.55152
225 2 8.94174 0.414634 3.46877
224 2 9.24943 1.33658 1.83828
273 2 9.26076 0.335257 0.327401
103 3 5.70387 5.75477 1.60688
207 4 14.882 0.30214 7.87979
234 2 11.5065 0.234323 1.78321
11 4 13.3311 6.14079 8.94798
36 4 9.18198 2.17382 9.22419
52 1 10.5109 1.10774 10.0335
188 3 8.58953 2.09119 14.678
100 3 8.38417 2.92532 10.4265
107 3 12.8137 4.59802 8.61787
110 2 14.9452 2.95232 10.2775
204 2 8.09049 5.97849 10.6111
202 2 14.1856 3.48699 11.7213
163 2 11.495 1.59617 10.0124
266 2 15.0396 5.05627 15.9751
165 2 10.1272 0.922121 11.1016
172 4 16.3341 2.41351 13.9613
173 1 14.4577 1.59863 13.677
174 2 14.5624 2.71069 14.8858
175 2 15.9852 0.862931 13.0616
176 2 13.9773 2.19066 12.787
123 2 5.41434 6.29027 10.8188
178 4 13.913 5.65981 14.3237
180 4 9.91955 1.52089 13.9489
181 4 11.9564 3.74474 12.5768
205 2 9.2948 5.38649 9.36431
185 1 13.2068 3.16956 11.2029
186 1 9.05712 6.28923 10.0437
189 3 10.9718 2.58748 13.2826
190 3 13.0953 4.37447 13.7601
192 3 11.1298 5.03681 11.7709
263 3 15.8549 1.16646 8.65445
199 2 11.8919 1.29208 15.1444
200 2 12.9568 3.66081 10.1233
201 2 12.8794 2.05053 11.3097
182 4 10.8749 6.15127 10.7547
105 3 10.1211 3.39938 8.24899
177 2 13.6827 0.788781 14.0014
249 1 13.7756 6.04554 15.9687
184 1 10.8768 0.686582 15.2581
121 2 7.36848 3.6786 12.776
144 2 7.54738 5.02062 8.11631
191 3 12.1222 6.64446 9.95149
237 1 7.78193 10.2728 0.00771901
256 2 1.80103 11.1627 3.78863
167 2 8.87479 6.69433 2.34235
53 1 8.14321 7.33116 2.94723
104 3 5.22259 7.14972 3.91532
233 2 2.95012 12.7108 3.65383
125 2 3.88864 8.22613 1.14843
150 2 2.53458 10.2845 0.387863
166 2 7.42611 8.25626 2.00655
168 2 8.52941 7.80854 3.7968
206 4 9.41899 10.4852 3.78644
215 2 6.37248 8.81618 7.65821
208 4 7.79723 10.5217 6.63028
209 1 6.33175 9.19883 6.57633
255 2 2.3307 12.3591 5.1428
211 3 8.66699 10.5517 5.10903
212 3 7.11232 11.9171 7.1523
213 2 8.65286 9.27879 2.87175
254 1 1.99944 11.3204 4.90179
216 2 6.44457 8.37208 5.85613
217 2 5.47735 9.86622 6.33304
219 2 10.1069 9.83113 7.63432
253 2 10.9635 8.24687 1.05934
210 1 9.10352 10.0372 7.99149
238 3 5.63974 12.0589 1.05503
240 2 8.04183 10.3935 1.15506
38 4 6.3223 6.61324 2.85631
257 2 2.56615 10.4787 5.40766
258 1 6.0779 11.7791 3.78459
259 2 6.36002 10.8383 3.27853
260 2 5.10228 11.7494 4.48689
261 2 6.92305 12.3188 4.24479
198 2 2.46085 12.4683 14.8365
40 4 5.78691 11.524 13.0702
108 3 4.53744 10.5595 12.7341
109 3 6.53175 11.6014 14.4174
214 2 5.44938 12.4489 9.01239
132 2 6.82374 11.0479 11.9556
236 4 7.43339 11.7076 15.7351
203 2 9.01289 7.23658 9.3808
131 2 5.4822 13.0929 12.3486
193 2 11.5839 9.58791 15.0632
218 2 9.04243 10.7926 8.75353
194 2 9.85819 7.39627 11.4356
241 2 9.9298 10.7933 15.3906
34 4 3.38438 9.54218 12.6176
264 2 8.92982 12.4411 15.2067
274 2 8.47347 9.01483 8.21555
269 2 10.6921 10.5586 13.3358
164 2 1.94715 13.0116 9.31625
239 2 8.41855 9.65728 15.8272
ITEM: TIMESTEP
300
ITEM: NUMBER OF ATOMS
274
ITEM: BOX BOUNDS xy xz yz pp pp pp
-8.4635979999999993e+00 1.8194039000000000e+01 -8.4635979999999993e+00
0.0000000000000000e+00 1.3273200000000001e+01 1.2069500000000000e+00
0.0000000000000000e+00 1.6075500000000002e+01 4.3120000000000003e-01
ITEM: ATOMS id type x y z
119 2 7.45224 1.42676 5.19607
12 4 -1.0559 6.45939 5.19938
7 4 0.851634 2.3939 5.03023
9 4 -0.357146 4.59763 1.87069
10 4 0.330743 4.54295 7.15473
242 1 3.18136 0.624208 3.19061
21 4 5.79418 1.48804 5.61938
26 4 5.53973 4.49917 6.83573
41 1 1.07191 0.805611 6.01033
44 1 3.78838 3.5424 1.99547
55 3 1.05234 1.01011 1.08947
56 3 -0.413666 2.38118 4.18379
58 3 -1.78004 4.43107 2.80632
59 3 -0.0809411 3.44974 0.845199
243 2 3.48515 1.74259 3.3978
61 3 1.04699 3.57947 6.0497
62 3 -0.702889 5.56841 6.4007
74 3 5.76689 0.453932 7.3156
78 3 0.919927 5.06473 2.71553
81 3 5.53691 3.04967 5.77954
84 3 2.86839 6.1186 4.39898
85 3 4.86746 5.75272 6.06734
113 2 -1.89036 5.46481 4.0542
111 2 2.32109 2.11522 4.13575
112 2 -0.706201 5.93609 0.93355
24 4 4.69711 4.51524 0.701458
118 2 4.55455 0.81313 4.67149
5 4 0.313424 2.08927 0.0695893
222 3 6.32575 1.35215 1.13756
223 2 6.35407 0.880954 3.81593
141 2 3.98086 2.46058 1.71335
142 2 2.69181 3.79953 1.94954
143 2 4.32835 3.99963 2.95816
220 4 6.93333 0.33134 2.1849
25 4 1.51193 6.37189 3.48134
135 2 0.75035 0.924996 7.07125
133 2 2.11364 0.458249 5.95905
6 4 -0.688627 2.51788 9.24029
8 4 2.04507 2.70121 10.9009
13 4 0.451053 4.77604 12.4065
229 2 3.51769 6.56031 13.3948
20 4 4.83476 3.02011 9.36709
23 4 7.12964 2.68882 11.4078
99 3 8.21209 1.15813 8.21956
226 4 3.4106 6.2925 15.1182
42 1 2.30642 1.08718 11.876
57 3 0.634728 2.6078 10.1767
63 3 -0.497737 3.67128 13.1079
64 3 2.07429 4.18173 12.2104
65 3 -2.23253 6.08347 9.68226
66 3 -0.213227 5.55423 11.2463
73 3 3.39972 2.90223 10.0076
75 3 5.80722 3.16656 10.6553
76 3 7.04645 1.20993 11.9719
80 3 5.09743 4.20873 8.38874
82 3 1.52001 5.34348 8.05378
137 2 3.40845 0.831863 11.7612
114 2 0.908659 5.96987 13.4294
248 2 3.44011 3.82824 15.6045
124 2 3.14456 5.34707 12.1109
136 2 1.97568 1.17589 12.9635
179 4 7.30122 2.45411 15.646
183 1 5.81465 1.50182 14.9467
77 3 6.9169 3.99642 15.8096
60 3 -0.593243 3.64192 8.14854
196 2 5.26514 2.21178 14.2326
117 2 5.18218 1.61653 8.43034
227 3 4.81906 5.79508 15.8171
195 2 6.17135 0.625688 14.3437
245 1 2.92697 3.10174 14.9575
246 2 2.69823 3.49825 13.9286
247 2 3.49094 2.04293 14.9867
262 3 0.219401 1.84519 15.1872
228 2 2.32657 5.00822 15.1132
197 2 5.23669 1.25619 15.8627
138 2 1.63815 0.393725 11.2663
123 2 5.17612 6.49222 10.6085
14 4 -0.892106 6.67555 10.3439
149 2 2.17885 9.01323 7.59503
3 3 -5.96888 11.5894 0.907114
244 2 -5.5531 12.9449 4.14062
16 4 -3.22067 8.21331 6.68547
17 4 -4.48867 9.92817 4.64386
154 2 0.939742 9.49318 7.32938
161 2 -1.08544 9.9604 0.290055
31 4 -2.00709 10.165 2.95789
33 4 0.0226304 10.9049 5.5175
48 1 -1.26078 8.77306 1.87393
49 1 0.0800117 9.34696 6.5574
67 3 -3.76179 6.91673 7.47892
68 3 -2.08559 7.61259 5.58318
28 4 4.13508 6.78503 5.03221
70 3 -4.38747 8.87825 5.88246
79 3 0.254079 6.9854 4.51486
87 3 1.76109 7.55601 2.34311
30 4 2.34552 8.02386 1.00244
89 3 -2.00332 11.6682 1.99825
90 3 -3.40907 9.66796 3.36263
93 3 -0.955563 10.4537 4.2405
94 3 -0.422895 12.2014 6.26863
115 2 -4.16068 11.4539 5.32998
147 2 2.06899 7.5078 6.40996
151 2 -0.123751 9.12983 1.49242
152 2 -1.99808 8.64722 1.03048
153 2 -1.18268 7.85638 2.50864
272 2 0.776919 10.0361 0.1827
155 2 0.306421 8.5173 5.77367
156 2 -0.943629 9.27809 7.10415
46 1 2.48065 7.96983 7.37677
148 2 3.51959 7.76562 7.65635
271 2 1.44549 9.94684 1.99672
19 4 -1.15951 12.8125 7.62953
1 4 -6.70431 12.6932 2.07688
69 3 -5.97006 9.99501 4.02337
91 3 -2.68116 9.51314 7.81445
268 2 -4.75963 8.07576 0.346145
47 1 1.69937 9.80907 0.886998
252 2 -4.52284 9.2438 1.79333
251 1 -5.20865 8.88928 0.955328
256 2 1.3222 11.2738 3.75369
267 2 -4.24711 6.53049 0.344624
265 2 -4.43988 12.8773 2.53604
159 2 1.52495 11.0748 13.3629
18 4 -2.07935 8.17231 12.8594
22 4 -0.493056 12.7359 12.0301
32 4 -2.22405 10.3473 9.02668
35 4 -1.31932 10.7381 14.2485
43 1 -5.56122 10.7822 14.1623
15 4 -4.16014 10.9655 15.9931
157 2 0.805323 9.40049 12.7155
51 1 0.2041 11.1328 15.2783
162 2 0.198752 12.2579 15.4918
72 3 -1.45455 8.13542 11.3783
83 3 0.260004 7.35251 9.1745
158 2 1.89784 10.5483 11.4091
92 3 -1.18877 11.5152 9.00988
95 3 3.74002 8.16947 11.9295
96 3 -1.10711 9.01341 13.881
97 3 -1.25385 11.6101 12.9608
98 3 -2.74603 10.9405 15.2473
116 2 -3.49863 9.07345 12.5094