ITEM: TIMESTEP
0
ITEM: NUMBER OF ATOMS
274
ITEM: BOX BOUNDS xy xz yz pp pp pp
-8.3797999999999995e+00 1.8174654999999998e+01 -8.3797999999999995e+00
0.0000000000000000e+00 1.3273200000000001e+01 1.3557550000000000e+00
0.0000000000000000e+00 1.6075500000000002e+01 4.3120000000000003e-01
ITEM: ATOMS id type x y z
223 2 6.44413 1.00496 3.78139
12 4 -0.744367 6.43552 5.30302
7 4 1.07842 1.92755 5.28213
9 4 -0.814195 4.40217 2.02455
10 4 0.604645 4.31574 7.31742
220 4 6.79962 0.426568 2.13509
21 4 6.04354 1.65936 5.5439
26 4 5.296 4.70295 6.63179
41 1 0.61849 0.601404 6.58517
44 1 3.87811 3.74796 1.70449
55 3 1.29092 0.509008 1.16043
56 3 -0.160221 2.12237 4.3114
58 3 -1.94801 4.20245 3.22125
59 3 -0.188276 3.06633 1.32361
243 2 3.0745 1.09527 2.84235
61 3 1.48656 3.19474 6.221
62 3 -0.128548 5.44115 6.3761
74 3 5.63506 0.630203 7.12846
78 3 0.245455 5.51772 2.42261
81 3 5.63923 3.23565 5.69212
84 3 2.81559 5.85503 3.78635
85 3 4.34628 5.79584 5.80911
222 3 6.22453 1.41133 1.02163
111 2 2.50072 1.34039 4.56469
112 2 -1.66089 5.10087 0.69718
24 4 5.01514 4.86381 0.648687
118 2 4.71081 1.03354 4.3998
113 2 -1.40607 5.32031 4.21266
143 2 3.44466 4.4792 2.4756
135 2 0.915928 0.702774 7.66113
141 2 4.5732 2.95341 2.17509
142 2 3.01402 3.23508 0.892912
119 2 7.62985 1.54069 5.0191
5 4 0.512396 1.83136 0.506887
242 1 3.47105 0.14063 3.33565
60 3 -0.507945 3.43641 8.00714
138 2 2.78191 1.74289 12.9052
8 4 2.05055 2.74907 10.8403
13 4 0.669456 4.75146 12.6911
267 2 -0.745478 5.95286 15.0815
20 4 4.7322 3.16659 9.07563
23 4 7.10743 2.99947 11.1336
117 2 5.26001 1.88724 8.04284
29 4 3.79689 6.59081 11.1401
42 1 2.55361 1.25521 11.889
57 3 0.538247 2.38848 10.2479
63 3 -0.0508233 3.4593 13.393
64 3 2.07452 4.16973 12.1296
65 3 -2.14489 5.52073 9.68517
66 3 -0.231565 5.4572 11.6231
73 3 3.3104 2.75754 9.75421
75 3 5.7987 3.35524 10.2598
76 3 6.93802 1.53884 11.694
80 3 4.69141 4.43935 8.10809
262 3 0.63177 1.78716 15.5033
82 3 1.60225 5.13405 8.38653
114 2 1.08261 5.884 13.8687
99 3 8.16713 1.30468 8.2632
124 2 3.35295 5.24271 12.0728
136 2 3.51416 0.914612 11.3559
179 4 7.50831 2.56621 15.678
183 1 6.04542 1.75146 14.786
249 1 -1.64489 5.26832 15.3362
195 2 6.48348 0.752715 14.0995
196 2 5.57262 2.54501 14.0621
137 2 1.75975 0.460311 11.9174
227 3 5.3847 6.2737 15.915
228 2 2.9074 6.40102 15.0755
245 1 3.1397 3.1513 15.4707
246 2 2.51734 3.08868 14.5072
247 2 4.17965 2.60968 15.2966
27 4 1.73071 6.62557 8.90984
248 2 3.24033 4.20856 15.9096
197 2 5.35277 1.38227 15.6109
14 4 -0.881667 6.43572 10.5532
123 2 5.29418 6.10929 10.6065
1 4 -6.54919 12.1614 1.98658
3 3 -5.79338 10.9852 0.937098
25 4 1.27034 6.53885 3.11233
16 4 -2.97371 8.0171 6.57441
17 4 -4.66259 9.87799 4.98777
265 2 -4.27634 12.3425 2.5921
30 4 2.56282 8.82126 1.19957
31 4 -2.20127 10.424 2.93201
33 4 0.0513573 11.1199 5.33665
48 1 -1.19783 9.01659 2.14615
49 1 0.214437 9.55934 6.46518
47 1 1.54952 10.433 1.23307
68 3 -1.8798 7.50474 5.54503
253 2 -5.13515 8.50082 1.81719
70 3 -4.35852 8.4772 5.81587
79 3 0.485386 7.19717 4.50662
87 3 1.73096 7.68807 2.06043
252 2 -4.37562 7.51264 0.392655
89 3 -2.1989 11.7035 1.9965
90 3 -3.63697 10.0709 3.71329
93 3 -0.998383 10.7695 4.17808
94 3 -0.429816 12.3276 6.32922
115 2 -4.33511 11.1727 6.01806
147 2 1.64114 7.46546 6.65613
151 2 -0.165697 9.50359 1.74537
152 2 -1.87715 8.5992 1.32597
153 2 -1.02531 8.28177 3.03449
149 2 2.12969 8.8808 7.71974
155 2 0.349561 8.68298 5.71638
156 2 -0.849341 9.54686 6.94998
271 2 0.626581 10.4103 0.449601
244 2 -5.58203 12.4519 4.12618
91 3 -2.39888 9.52017 7.56412
67 3 -3.22939 6.84019 7.62605
133 2 -7.22516 12.5057 6.08724
122 2 2.89805 7.92962 5.5019
46 1 2.35276 7.82083 7.41377
154 2 1.08358 9.64454 7.2234
148 2 3.49567 7.67321 7.24714
161 2 -1.08889 9.8774 0.317389
28 4 3.82196 6.76798 4.63575
150 2 1.32708 10.6515 2.36391
19 4 -1.17301 12.8965 7.68464
86 3 2.86664 6.72753 9.95305
18 4 -1.92727 8.37472 12.6085
159 2 1.70802 11.6062 12.6113
32 4 -2.35286 10.4964 8.7936
35 4 -1.21391 10.7224 14.3068
71 3 -2.44711 7.17857 13.5263
160 2 1.0462 10.3084 14.6175
50 1 2.21831 10.5804 12.6105
51 1 0.367329 10.8807 15.2866
15 4 -3.98525 10.2442 15.9975
72 3 -1.3925 7.69742 11.2937
83 3 0.292898 7.06395 9.45172
88 3 4.14107 8.64299 15.7573
92 3 -1.23342 11.5415 9.03865
95 3 3.93963 7.85634 11.9874
96 3 -0.960319 9.37486 13.4054
97 3 -1.29927 12.2967 13.1788
98 3 -2.45694 10.4612 15.2267
116 2 -3.31298 9.18879 12.1424
120 2 -0.608264 12.1447 10.6363
126 2 -2.2714 9.47947 10.1546
127 2 -3.88114 11.1741 8.79773
128 2 2.82491 10.3078 13.9157
226 4 4.37826 7.23334 15.1396
162 2 0.513376 11.9726 15.2961
157 2 1.42434 9.77033 12.407
140 2 -4.86681 10.2139 13.5636
229 2 4.66165 7.4469 13.4951
22 4 -0.545659 13.0926 12.0411
235 2 11.8231 1.95583 2.0021
37 4 12.9966 1.72255 6.01379
234 2 11.8829 0.487364 0.719547
39 4 11.2731 3.99081 7.1772
45 1 6.93236 5.6355 6.65572
54 1 10.9038 5.39456 5.9015
101 3 14.2381 2.58135 5.47324
102 3 13.2964 0.980009 7.38051
103 3 5.8051 5.73952 1.71645
233 2 11.4071 0.190662 2.64891
106 3 11.6249 2.7253 6.15298
232 3 14.5168 1.2722 3.1139
129 2 12.6071 0.447158 4.96323
130 2 7.44049 5.58453 3.861
4 4 15.1485 2.43944 4.06515
145 2 7.64596 5.21358 5.94347
225 2 8.87407 0.68081 3.08638
231 1 12.012 0.888863 1.81603
169 2 11.4317 6.30082 6.27489
170 2 9.79519 5.53738 5.93362
171 2 11.2809 4.99831 4.92284
221 1 8.70265 0.434295 1.95738
224 2 8.95814 1.29267 1.2323
105 3 9.82485 3.7816 7.83807
146 2 7.23984 5.41482 7.75761
250 2 13.4469 4.96749 0.338752
134 2 16.3094 0.410516 6.42035
230 4 13.6386 0.11126 2.36948
273 2 9.44884 0.298181 0.0381044
11 4 13.3836 5.83651 8.78477
36 4 9.10424 2.40271 8.9637
52 1 10.6093 1.41674 9.5252
182 4 10.9038 6.21812 10.5746
100 3 8.42758 3.17522 10.1986
107 3 12.5149 4.51874 8.21879
110 2 14.7025 3.16556 10.186
6 4 15.9914 2.56273 9.2459
177 2 13.8197 0.469731 13.9073
163 2 11.4944 2.01146 9.05374
121 2 7.22827 4.06078 12.5181
165 2 10.6361 1.50397 10.6792
172 4 16.3288 2.14688 14.165
173 1 14.5586 1.3112 13.6509
174 2 14.4883 2.25626 14.9955
202 2 14.0977 3.65323 11.8357
176 2 14.0496 1.91546 12.8128
187 3 9.4065 0.447437 12.4951
178 4 13.6652 6.04182 14.4955
180 4 10.0234 1.52812 13.7954
181 4 11.8614 3.99119 12.5298
188 3 8.79758 2.07482 14.6512
185 1 13.1606 3.08001 11.4077
263 3 15.5087 1.11808 8.84373
189 3 10.9943 2.83625 13.112
190 3 12.8132 4.85478 13.7358
192 3 10.929 5.1697 11.6913
203 2 9.40931 5.37743 9.03888
199 2 12.157 0.960314 14.6627
200 2 12.7017 3.51841 10.4204
201 2 13.079 1.90684 11.3733
175 2 16.1305 0.742575 12.9444
184 1 11.1831 0.591894 14.9905
186 1 9.19521 6.32594 9.64826
266 2 15.2497 4.09443 15.1282
164 2 10.4432 0.362696 9.10703
205 2 8.48637 6.093 10.5585
191 3 12.2416 6.59976 9.7556
77 3 7.33815 4.19839 15.8496
144 2 6.67226 6.86703 6.49509
2 3 9.18564 11.5918 3.07462
219 2 9.43634 9.10851 7.72854
53 1 8.27828 7.05941 3.32794
104 3 5.06211 7.47846 3.89912
261 2 5.44364 12.0426 4.80207
125 2 4.06457 9.13061 1.95129
257 2 2.21186 10.7582 4.83373
166 2 7.50234 8.08918 2.39353
168 2 8.44467 7.57746 4.25147
206 4 9.19796 10.4003 4.18913
272 2 2.40824 11.0891 0.74243
208 4 7.45888 10.2809 6.95928
209 1 6.25677 8.85138 6.48304
254 1 1.62179 11.7204 4.42345
211 3 8.25521 10.5592 5.34366
212 3 6.52564 11.7128 7.60235
213 2 8.58792 9.02987 3.40468
215 2 6.39943 8.36935 7.54699
216 2 6.45284 8.20944 5.59055
217 2 5.35298 9.50117 6.29035
38 4 6.32413 6.77517 2.90799
268 2 10.6478 7.34242 0.781734
237 1 7.43739 9.75191 0.339851
238 3 5.83914 12.0901 1.18486
251 1 11.5271 8.03568 0.805724
241 2 7.71173 9.8491 1.42852
256 2 1.40664 11.6399 3.31091
258 1 4.80868 11.7217 3.92185
259 2 5.20924 10.7708 3.46762
260 2 3.6712 11.7237 4.09628
255 2 2.13313 12.7071 4.70881
167 2 9.23737 6.74286 2.75594
270 2 0.784 12.2213 1.65833
69 3 10.671 10.035 4.54979
240 2 6.53224 8.97317 0.163477
34 4 3.96036 9.79835 12.401
40 4 6.53676 11.2745 13.0877
108 3 5.24854 10.5605 12.7453
109 3 7.08216 11.5007 14.5642
131 2 6.26691 12.7732 12.2847
132 2 7.72537 10.7142 12.0867
207 4 5.93792 13.0422 8.28451
239 2 9.7892 10.025 15.7583
139 2 11.2182 9.02352 14.9185
218 2 9.14198 10.6612 8.69854
214 2 5.11003 12.4171 9.57235
194 2 9.97111 7.62818 10.9565
204 2 8.91562 7.25733 9.01423
264 2 9.47236 11.905 15.7771
269 2 10.5865 10.8921 14.5874
210 1 8.69934 9.68458 8.35407
198 2 2.55701 12.394 14.5727
236 4 7.76336 11.6808 16.0291
274 2 8.16187 9.01987 9.13492
193 2 12.6864 7.08482 15.4155
158 2 3.153 10.7822 11.0732
43 1 11.4499 10.2094 14.5719
ITEM: TIMESTEP
100
ITEM: NUMBER OF ATOMS
274
ITEM: BOX BOUNDS xy xz yz pp pp pp
-8.3797999999999995e+00 1.8174654999999998e+01 -8.3797999999999995e+00
0.0000000000000000e+00 1.3273200000000001e+01 1.3557550000000000e+00
0.0000000000000000e+00 1.6075500000000002e+01 4.3120000000000003e-01
ITEM: ATOMS id type x y z
223 2 6.26939 1.04625 3.83466
12 4 -0.667851 6.54924 5.31867
7 4 1.07398 1.95663 5.29292
9 4 -0.692013 4.43647 1.98476
10 4 0.546044 4.37197 7.25926
220 4 6.72639 0.500141 2.12721
21 4 5.85961 1.61181 5.60523
26 4 5.31174 4.61907 6.52173
41 1 0.494788 0.548084 6.40567
44 1 3.80447 3.87204 1.52373
55 3 1.28797 0.734467 1.19433
56 3 -0.188366 2.32469 4.42345
58 3 -1.82725 4.29015 3.20927
59 3 -0.166296 3.13356 1.26816
243 2 3.16743 1.20979 2.71968
61 3 1.43707 3.29973 6.2407
62 3 -0.0086444 5.71519 6.49619
74 3 5.83722 0.614882 7.31042
78 3 0.358971 5.45567 2.59668
81 3 5.61593 3.21092 5.7043
84 3 2.74595 5.78304 3.57843
85 3 4.4612 5.67101 5.64118
222 3 6.16299 1.6079 1.13104
111 2 2.40986 1.49869 4.24387
112 2 -1.42176 5.3317 0.722267
24 4 5.11557 4.81418 0.607344
118 2 4.52557 0.684936 4.84022
113 2 -1.35157 5.42271 4.24521
143 2 3.34738 4.56645 2.31314
135 2 0.406211 0.808369 7.46991
141 2 4.39771 3.02831 1.95361
142 2 3.0081 3.4904 0.659885
119 2 7.51117 1.71207 5.23711
5 4 0.502702 1.87773 0.351467
242 1 3.47226 0.17668 3.27133
60 3 -0.692581 3.50752 7.9693
138 2 2.27485 1.6492 12.9828
8 4 1.94596 2.72701 10.8015
13 4 0.579781 4.68672 12.5848
267 2 -0.978208 6.16215 15.2527
20 4 4.68677 3.06868 9.21208
23 4 7.05955 2.87276 11.1134
117 2 5.25864 1.72934 8.34149
29 4 3.88163 6.46491 11.213
42 1 2.29031 1.19731 11.9318
57 3 0.608755 2.5247 10.0026
63 3 -0.182339 3.55356 13.345
64 3 2.00363 4.2266 12.0112
65 3 -2.11707 5.66093 9.67517
66 3 -0.323464 5.53968 11.4564
73 3 3.29134 2.758 9.83956
75 3 5.67141 3.35734 10.3486
76 3 6.97156 1.42582 11.8074
80 3 4.72636 4.1402 8.04603
262 3 0.678051 1.79017 15.2914
82 3 1.5081 4.91917 8.38644
114 2 0.99037 5.7915 13.7452
99 3 8.23816 1.27124 8.24666
124 2 3.43006 5.08433 12.1262
136 2 3.30501 0.865684 11.5214
179 4 7.4598 2.66697 15.5667
183 1 5.89681 1.85411 14.7443
249 1 -1.73911 5.37597 15.683
195 2 6.32925 0.981152 14.1256
196 2 5.34513 2.61364 14.0842
137 2 1.50661 0.377332 11.8406
227 3 5.41218 6.41702 15.7108
228 2 2.81573 6.49773 15.1047
245 1 3.01758 3.35987 15.3566
246 2 2.47111 3.33798 14.3421
247 2 4.16676 2.91836 15.2358
27 4 1.74697 6.5539 9.00901
248 2 2.99433 4.38103 15.8398
197 2 5.3703 1.49639 15.7009
14 4 -1.03807 6.51236 10.4219
77 3 7.21536 4.21049 15.6554
86 3 2.9879 6.68198 9.96781
123 2 5.37375 6.02426 10.7333
1 4 -6.48951 12.2702 2.0285
3 3 -5.96601 10.9135 1.08201
25 4 1.40199 6.53291 3.07998
16 4 -2.92411 8.03069 6.63448
17 4 -4.63256 9.88359 4.92913
265 2 -4.28821 12.3128 2.57524
30 4 2.59719 8.77853 1.24992
31 4 -2.22509 10.4678 3.10258
33 4 0.0553156 11.1642 5.24609
48 1 -1.35844 9.04246 2.16379
49 1 0.260354 9.66449 6.36365
47 1 1.38207 10.3193 1.24152
68 3 -1.75587 7.56928 5.70076
253 2 -4.88029 8.49826 1.88971
70 3 -4.29028 8.55132 5.74921
79 3 0.595935 7.23906 4.61406
87 3 1.76289 7.88688 2.17016
252 2 -4.30329 7.60236 0.281092
89 3 -2.11109 11.8866 1.87794
90 3 -3.61731 10.0109 3.69464
93 3 -1.10729 10.8539 4.22306
94 3 -0.322494 12.3032 6.35677
115 2 -4.41156 11.1735 5.98741
147 2 1.76114 7.0184 6.56927
151 2 -0.311865 9.43935 1.82424
152 2 -1.99311 8.70445 1.29987
153 2 -1.27074 8.24694 3.001
149 2 2.0269 8.6396 7.61893
155 2 0.388399 8.7528 5.59654
156 2 -0.81853 9.60092 6.86391
271 2 0.510247 10.3642 0.437651
244 2 -5.44207 12.5532 4.09025
91 3 -2.3377 9.55225 7.67023
67 3 -3.32537 6.83181 7.53516
133 2 -6.98367 12.5992 6.16748
122 2 2.91455 7.76566 5.57478
46 1 2.30086 7.53513 7.42753
154 2 1.07606 9.72192 7.1646
148 2 3.39872 7.30453 7.36761
161 2 -1.28048 9.91638 0.332141
28 4 3.85738 6.62837 4.59268
150 2 1.05871 10.4486 2.35045
19 4 -1.06769 12.9884 7.68725
15 4 -5.38653 9.77336 0.0547647
270 2 0.639549 12.0966 1.71063
22 4 -0.594877 12.9448 12.057
18 4 -2.15765 8.29197 12.593
159 2 1.82661 11.5671 12.5619
32 4 -2.3328 10.6247 8.82514
35 4 -1.30158 10.7764 14.1288
71 3 -2.60874 7.09518 13.588
160 2 0.965063 10.2899 14.7203
50 1 2.29115 10.5076 12.6514
51 1 0.211308 10.8568 15.3232
229 2 4.54496 7.30961 13.4334
72 3 -1.75664 7.79814 11.1538
83 3 0.263094 7.12799 9.44046
88 3 4.19795 8.65856 15.7005
92 3 -1.21451 11.6353 9.06107
95 3 3.89486 7.74274 12.0848
96 3 -0.998196 9.32603 13.2038
97 3 -1.34616 12.0679 13.1529
98 3 -2.6747 10.5742 15.1481
116 2 -3.48567 9.22949 12.3081
120 2 -0.689454 12.0638 10.612
126 2 -2.53046 9.7662 10.2637
127 2 -3.85417 11.1859 9.23801
128 2 2.99468 10.3295 14.1022
226 4 4.31279 7.24538 15.1151
162 2 0.344771 11.9766 15.2955
157 2 1.42954 9.71255 12.5807
140 2 -4.88631 9.86612 13.771
187 3 0.942215 13.097 12.4557
235 2 12.2386 2.21901 1.89583
37 4 13.1332 1.65032 6.12505
234 2 12.1414 0.808461 0.66848
39 4 11.3696 4.02119 7.15646
45 1 6.94193 5.58109 6.85729
54 1 11.1771 5.45148 5.90048
101 3 14.3013 2.37493 5.34077
102 3 13.3616 0.850746 7.4474
103 3 6.10327 5.65118 1.6708
233 2 11.2784 0.60458 2.36298
106 3 11.9128 2.74858 6.32491
232 3 14.4779 1.36388 2.99355
129 2 12.5052 0.560216 4.93502
130 2 7.55864 5.80625 4.19095
4 4 15.1781 2.5339 4.00957
145 2 7.7122 5.22342 6.14339
225 2 8.70914 0.597632 3.23739
231 1 12.1132 1.10199 1.75448
169 2 11.3077 6.44421 6.45038
170 2 10.1535 5.28298 5.45694
171 2 11.99 5.28198 5.1615
221 1 8.58982 0.391231 2.03777
224 2 8.99847 1.20721 1.49704
105 3 9.83151 3.54824 7.92782
146 2 7.17577 5.25187 7.98867
250 2 13.3308 5.22408 0.682175
134 2 16.2513 0.36257 5.92946
230 4 13.5784 0.107884 2.44314
273 2 9.21471 0.202209 0.103327
11 4 13.2164 5.95809 8.75806
36 4 9.21634 2.38613 8.92153
52 1 10.7556 1.44114 9.60371
182 4 10.7886 6.19475 10.6158
100 3 8.36936 3.01326 10.231
107 3 12.511 4.50972 8.34494
110 2 14.8428 3.29566 10.2571
6 4 15.9557 2.61084 9.22879
205 2 8.39228 6.2077 10.4185
163 2 11.607 2.0186 9.10376
164 2 10.5855 0.410302 9.14151
165 2 10.7204 1.41924 10.7231
172 4 16.4247 2.20316 14.222
173 1 14.6628 1.34961 13.6608
174 2 14.5458 2.20166 14.9976
202 2 14.1531 3.57616 11.83
176 2 14.1615 1.9975 12.8026
121 2 7.25611 4.13685 12.3309
178 4 13.66 6.00497 14.5283
180 4 9.9637 1.57025 13.8562
181 4 11.9428 3.93026 12.6429
188 3 8.74121 2.14493 14.694
185 1 13.1892 3.11593 11.3776
263 3 15.4712 1.13022 8.9607
189 3 11.0011 2.63964 13.1958
190 3 12.9362 4.79124 13.6931
192 3 11.0667 5.0717 11.7074
203 2 9.3677 5.63583 8.89791
199 2 12.1144 0.787762 14.878
200 2 12.8574 3.66783 10.4832
201 2 13.1361 1.98757 11.3773
175 2 16.1975 0.755522 12.9987
184 1 10.9676 0.549808 15.015
186 1 9.17203 6.44068 9.63229
266 2 15.2778 4.36402 15.451
177 2 14.0326 0.425036 13.9066
144 2 6.74086 6.73001 6.74976
2 3 9.18509 11.6571 3.1413
219 2 9.36234 8.87159 7.74578
53 1 8.25596 7.21152 3.43658
104 3 4.96818 7.37207 3.69382
261 2 5.42127 12.059 4.99435
125 2 4.08131 9.12463 1.93345
257 2 2.27271 10.9071 5.06326
166 2 7.4561 8.13556 2.33104
168 2 8.37361 7.83843 4.42543
206 4 9.21655 10.4457 4.11082
272 2 2.26488 11.0398 0.984549
208 4 7.56966 10.3554 6.94303
209 1 6.43539 8.78573 6.6317
254 1 1.67555 11.6164 4.43546
211 3 8.46534 10.6181 5.63084
212 3 6.71842 11.5839 7.69087
213 2 8.37881 9.17704 3.27397
215 2 6.34134 8.28133 7.62933
216 2 6.8479 8.11074 5.81972
217 2 5.4669 9.40829 6.42802
38 4 6.39953 6.69853 2.92645
268 2 10.6343 7.40353 0.860709
237 1 7.56883 9.975 0.557698
238 3 5.76573 12.0691 1.07145
251 1 11.6095 8.02258 0.804547
241 2 7.97511 10.3295 1.5767
256 2 1.64129 11.3192 3.29969
258 1 4.89012 11.7993 4.05587
259 2 5.3164 10.9023 3.46661
260 2 3.72974 11.676 4.21802
255 2 1.9124 12.7059 4.66053
167 2 9.20141 7.06069 2.90795
240 2 6.58362 9.16007 0.696689
69 3 10.7159 10.0422 4.42354
34 4 3.96428 9.73438 12.4189
40 4 6.61035 11.2727 12.9808
108 3 5.28979 10.4951 12.6973
109 3 7.18304 11.4256 14.3955
131 2 6.46538 12.7917 12.2873
132 2 7.83618 10.766 11.9511
207 4 6.06628 12.8874 8.31863
239 2 9.76978 10.0806 15.9207
139 2 10.9404 8.79745 15.1347
218 2 9.11064 10.2832 8.9744
214 2 5.11234 12.4199 9.64198
194 2 9.8293 7.47452 11.201
204 2 8.91192 7.49707 9.10423
43 1 11.413 9.87759 14.8287
269 2 10.653 10.7776 15.0182
210 1 8.6312 9.47703 8.30058
198 2 2.25864 12.3464 14.4866
236 4 7.75501 11.6652 15.8785
274 2 7.96751 8.87285 8.95284
264 2 9.50217 12.0092 15.6646
158 2 3.06295 10.5726 11.0088
193 2 12.6785 6.85775 15.697
191 3 12.0636 6.686 9.73487
ITEM: TIMESTEP
200
ITEM: NUMBER OF ATOMS
274
ITEM: BOX BOUNDS xy xz yz pp pp pp
-8.3797999999999995e+00 1.8174654999999998e+01 -8.3797999999999995e+00
0.0000000000000000e+00 1.3273200000000001e+01 1.3557550000000000e+00
0.0000000000000000e+00 1.6075500000000002e+01 4.3120000000000003e-01
ITEM: ATOMS id type x y z
223 2 6.20679 1.00629 3.86702
60 3 -0.735655 3.32656 7.9976
7 4 1.13763 2.12528 5.2528
9 4 -0.709582 4.52195 1.94932
10 4 0.334388 4.27218 7.2528
220 4 6.62143 0.484383 2.17934
21 4 5.92018 1.51565 5.58038
26 4 5.32382 4.6027 6.69719
41 1 0.916551 0.511056 6.31509
44 1 3.8897 3.83423 1.38637
55 3 1.23649 0.748973 1.22417
56 3 -0.0639241 2.1986 4.19896
58 3 -1.72498 4.23594 3.2409
59 3 -0.044631 3.22653 1.21185
243 2 2.98159 1.31901 2.71043
61 3 1.34807 3.31626 6.30445
62 3 -0.259187 5.44695 6.28056
74 3 5.86855 0.497594 7.27955
78 3 0.394691 5.55192 2.27219
81 3 5.72154 3.03245 5.93164
84 3 2.88469 5.80221 3.63425
85 3 4.61131 5.57684 5.69552
222 3 6.2876 1.53665 1.04002
111 2 2.71565 1.76994 4.47334
112 2 -1.79324 5.2478 0.811193
24 4 5.14461 4.93601 0.372784
118 2 4.64784 0.864139 4.48641
113 2 -1.61442 5.57263 4.12761
143 2 3.40131 4.50879 2.22507
135 2 0.832356 0.832057 7.40695
141 2 4.53029 2.99675 1.77831
142 2 3.09415 3.48693 0.593344
119 2 7.51653 1.37611 4.98219
5 4 0.432892 2.10393 0.292547
242 1 3.26402 0.343984 3.29601
28 4 3.9006 6.48732 4.61653
12 4 -0.728563 6.49538 5.24325
138 2 1.96047 1.32284 12.8483
8 4 1.92825 2.68348 10.7955
13 4 0.526103 4.9368 12.5325
267 2 -1.09029 5.74851 15.1319
20 4 4.79216 2.98042 9.24481
23 4 7.09591 2.93785 11.2012
117 2 5.34673 1.62088 8.31472
29 4 3.83435 6.44861 11.1801
42 1 1.85463 1.04285 11.7471
57 3 0.601854 2.57969 10.0604
63 3 -0.277407 3.89383 13.3964
64 3 1.8906 4.22614 11.963
65 3 -2.15867 5.78774 9.4581
66 3 -0.453905 5.53591 11.4306
73 3 3.39728 2.602 9.88429
75 3 5.82835 3.24815 10.3467
76 3 7.00984 1.46121 11.935
123 2 5.316 5.7689 10.7787
262 3 0.715862 1.8923 15.0883
82 3 1.40954 5.021 8.31408
114 2 1.0171 6.10369 13.5679
99 3 8.24028 1.22977 8.34325
124 2 3.23617 5.12452 12.0708
136 2 2.82578 0.602804 11.3361
179 4 7.50541 2.62632 15.4919
183 1 5.98932 1.68291 14.8245
187 3 9.38592 0.415551 12.4868
195 2 6.37614 0.761533 14.2488
196 2 5.20631 2.22209 14.1787
137 2 0.917972 0.47283 11.4545
227 3 5.45632 6.33045 15.7968
228 2 2.85856 6.58861 15.063
245 1 3.15884 3.21525 15.2467
246 2 2.59022 3.25178 14.1955
247 2 4.24286 2.66739 15.2288
27 4 1.74913 6.55555 8.91522
248 2 3.13855 4.29998 15.6716
197 2 5.56333 1.42489 15.909
14 4 -1.06807 6.58103 10.3058
86 3 2.98885 6.66474 9.89252
80 3 4.75384 4.23311 8.30756
1 4 -6.61351 12.3069 2.06657
3 3 -6.02948 11.0012 1.04998
25 4 1.40346 6.52316 3.09955
16 4 -2.86289 8.12667 6.68641
17 4 -4.51942 9.95426 4.83543
265 2 -4.41328 12.4163 2.6981
30 4 2.46604 8.89557 1.18815
31 4 -2.10177 10.4592 3.01955
33 4 0.084729 11.1988 5.34303
48 1 -1.38519 8.9212 2.02125
49 1 0.372015 9.64997 6.53715
47 1 1.3519 10.457 1.18124
68 3 -1.59391 7.66071 5.84045
253 2 -4.84789 8.69571 2.08336
70 3 -4.12465 8.67931 5.68883
79 3 0.561113 7.21731 4.48842
87 3 1.81764 7.81338 2.14017
252 2 -4.13526 7.5842 0.714804
89 3 -2.20356 11.7868 2.02386
90 3 -3.57393 10.1136 3.4971
93 3 -1.00211 10.8258 4.24008
94 3 -0.181421 12.3956 6.38948
115 2 -4.20423 11.3114 5.7451
147 2 1.6559 7.17473 6.51469
151 2 -0.314295 9.44511 1.6163
152 2 -2.22025 8.71005 1.2764
153 2 -1.2039 8.05739 2.74252
149 2 2.18673 8.78807 7.45237
155 2 0.475613 8.75418 5.7915
156 2 -0.669246 9.58034 7.06254
271 2 0.451552 10.5427 0.399312
244 2 -5.71427 12.7064 4.18845
91 3 -2.44944 9.55437 7.77657
67 3 -3.45182 7.02982 7.59489
133 2 -6.66261 12.6734 6.09721
122 2 3.09455 7.73547 5.62144
46 1 2.30756 7.63727 7.41377
154 2 1.26339 9.88578 7.19849
148 2 3.4124 7.36442 7.48703
161 2 -1.33366 9.89196 0.222127
251 1 -5.08926 8.14798 1.06228
150 2 1.03238 10.7463 2.22106
19 4 -1.04709 12.8855 7.72717
15 4 -5.38398 9.72205 0.0365883
22 4 -0.668359 12.9375 12.0704
18 4 -2.31601 8.33682 12.4792
159 2 1.73965 11.5644 12.4628
32 4 -2.31588 10.6351 8.86081
35 4 -1.46656 10.642 14.2011
71 3 -2.84535 7.20338 13.5107
160 2 0.85616 10.5145 14.5363
50 1 2.17969 10.4998 12.5126
51 1 0.089935 10.9301 15.2821
229 2 4.76643 7.39729 13.5301
72 3 -1.9127 7.87287 11.0368
83 3 0.30775 7.22204 9.5408
88 3 4.07779 8.71631 15.7362
92 3 -0.970465 11.4728 9.06431
95 3 4.00312 7.66966 12.1235
96 3 -1.12192 9.20494 13.1429
97 3 -1.44833 11.9851 13.1653
98 3 -2.76253 10.4131 15.2573
116 2 -3.68764 9.31905 12.1785
120 2 -0.701523 12.1935 10.5854
126 2 -2.37171 9.92683 10.3989
127 2 -3.7539 11.4833 9.20895
128 2 2.90368 10.1371 14.0059
226 4 4.3411 7.30854 15.1678
162 2 0.0387931 12.0785 15.3645
157 2 1.39087 9.69406 12.4877
235 2 11.7245 2.15186 1.99013
37 4 13.1845 1.53 5.97134
234 2 11.398 0.616657 0.927346
39 4 11.5829 3.93979 7.22437
45 1 6.86963 5.62724 7.12909
54 1 11.1845 5.39929 6.03178
101 3 14.3403 2.41587 5.32856
102 3 13.6974 0.673236 7.2092
103 3 6.0793 5.72616 1.5572
233 2 11.3696 0.509673 2.86519
106 3 12.0709 2.62918 6.47351
232 3 14.5241 1.42947 2.92197
129 2 12.4054 0.537599 4.76766
130 2 7.75777 5.56519 3.98148
4 4 15.1957 2.38712 3.94814
145 2 7.66211 5.13102 6.47536
225 2 8.73751 0.58138 3.06679
231 1 11.8004 1.0549 1.89166
169 2 11.4167 6.43583 6.41228
170 2 10.0909 5.30109 5.83405
171 2 11.819 5.13229 5.14899
221 1 8.5161 0.436186 1.9304
224 2 8.73396 1.39522 1.28104
105 3 9.96115 3.52384 7.84764
230 4 13.5589 0.30986 2.23594
250 2 13.1443 5.67124 0.583468
11 4 13.1069 6.09619 8.83561
36 4 9.27954 2.46722 8.94666
52 1 10.6905 1.57532 9.80782
182 4 10.784 6.16114 10.7021
100 3 8.42131 3.08743 10.3492
107 3 12.4864 4.52755 8.40821
110 2 14.7586 3.42817 10.1877
6 4 15.9371 2.52167 9.3325
205 2 8.25679 6.63088 10.9109
163 2 11.5631 1.90046 9.18531
164 2 10.3353 0.481868 9.59613
165 2 10.7587 1.88442 10.8653
172 4 16.4877 2.37088 14.0332
173 1 14.7934 1.38822 13.7824
174 2 14.682 2.25536 14.9877
202 2 14.2015 3.45413 12.1539
176 2 14.2085 2.00859 12.8914
121 2 7.13763 3.98988 12.4962
178 4 13.499 6.13783 14.5667
180 4 9.84552 1.46725 13.6949
181 4 11.9143 3.94166 12.7268
188 3 8.65309 2.03472 14.6027
185 1 13.2649 3.18061 11.5247
263 3 15.4673 0.980157 9.12202
189 3 11.0911 2.68831 13.1336
190 3 12.6943 4.85341 14.0134
192 3 11.157 4.90499 11.5691
203 2 8.90856 5.51515 9.49269
199 2 11.8787 0.709484 14.6091
200 2 13.1171 3.79676 10.6085
201 2 13.0344 2.05667 11.5287
175 2 16.2665 0.972481 12.8094
273 2 10.5451 0.747667 16.0497
186 1 9.00674 6.5828 10.0773
266 2 14.9366 4.29136 15.9455
146 2 6.99673 5.32718 8.26982
77 3 7.1905 4.40637 15.3942
249 1 14.8381 5.37722 15.7447
144 2 6.75976 6.83853 6.93192
2 3 9.17004 11.7579 3.33384
219 2 9.66242 8.69129 7.72776
53 1 8.17976 7.20869 3.66368
104 3 5.17943 7.28907 3.80303
261 2 5.52394 11.9619 4.6641
125 2 3.90309 9.34815 2.01678
257 2 2.20352 10.523 5.07421
166 2 7.68797 7.95243 2.31991
168 2 7.80368 7.73648 4.58829
206 4 9.26463 10.3851 4.17325
272 2 2.26956 11.1443 0.827402
208 4 7.67845 10.2196 7.01337
209 1 6.29607 8.73978 6.59521
254 1 1.72287 11.496 4.49918
211 3 8.43453 10.4999 5.64673
212 3 7.02504 11.5958 7.71752
213 2 8.53416 9.11086 3.32386
215 2 6.19113 8.26108 7.63111
216 2 6.68072 8.0406 5.84405
217 2 5.44069 9.32995 6.16057
38 4 6.37153 6.55749 3.00406
268 2 10.7789 7.55773 1.17237
237 1 7.69448 10.1381 0.602514
238 3 5.58721 12.2207 0.980004
69 3 10.7234 9.93931 4.53847
241 2 8.05207 10.6382 1.55386
256 2 1.61712 11.3033 3.40067
258 1 4.81267 11.8954 3.74065
259 2 5.14383 11.0201 3.12193
260 2 3.67317 11.7443 4.03967
255 2 2.25816 12.4503 4.75045
167 2 9.27682 7.34237 3.66164
240 2 6.67749 9.23998 0.720269
270 2 0.559279 12.343 1.51998
134 2 8.39549 12.9132 5.85933
34 4 3.90489 9.61799 12.4442
40 4 6.60601 11.235 12.9481
108 3 5.32091 10.3999 12.6254
109 3 7.17919 11.3708 14.3653
131 2 6.2808 12.7834 12.3401
132 2 7.82802 10.6978 11.9704
207 4 6.23595 12.8428 8.29971
193 2 12.9373 7.00035 15.9341
139 2 10.7539 8.84833 15.2551
218 2 9.28947 10.1946 8.7419
214 2 5.20811 12.0043 9.40385
194 2 9.91428 7.23549 11.6897
204 2 9.04771 7.51946 9.43418
43 1 11.4936 9.54397 14.7505
269 2 11.1182 10.7245 14.7341
210 1 8.81201 9.38299 8.21024
198 2 2.16757 12.1533 14.7842
236 4 7.77019 11.6818 15.9692
274 2 8.10764 8.71129 8.86863
264 2 9.4493 12.2866 15.9316
158 2 3.01061 10.4685 11.0404
191 3 12.0248 6.93747 9.99596
239 2 9.98423 10.1307 15.9555
140 2 11.6786 9.23389 13.6483
184 1 2.41438 13.236 14.9429
177 2 5.96568 13.1932 14.0605
ITEM: TIMESTEP
300
ITEM: NUMBER OF ATOMS
274
ITEM: BOX BOUNDS xy xz yz pp pp pp
-8.3797999999999995e+00 1.8174654999999998e+01 -8.3797999999999995e+00
0.0000000000000000e+00 1.3273200000000001e+01 1.3557550000000000e+00
0.0000000000000000e+00 1.6075500000000002e+01 4.3120000000000003e-01
ITEM: ATOMS id type x y z
223 2 6.45531 0.9135 3.78308
60 3 -0.790429 3.30391 7.9102
7 4 1.32522 1.9864 5.21232
9 4 -0.783563 4.57818 1.8165
10 4 0.322123 4.25571 7.17155
220 4 6.81873 0.500237 2.05247
21 4 5.97662 1.48882 5.76911
26 4 5.38894 4.65517 6.91218
41 1 1.39864 0.452438 6.27645
44 1 3.98454 3.87296 1.57259
55 3 1.1149 0.637772 1.17422
56 3 -0.00895112 1.94442 4.14812
58 3 -1.67569 4.23825 3.1451
59 3 -0.0853056 3.32827 1.04277
243 2 3.03389 1.18231 2.88962
61 3 1.29642 3.31333 6.26051
62 3 -0.447589 5.20915 6.16872
74 3 5.77883 0.509267 7.25309
78 3 0.367676 5.6594 2.18011
81 3 5.83103 3.01554 6.10849
84 3 2.80461 5.68334 3.65148
85 3 4.36721 5.51687 5.96392
222 3 6.11942 1.56347 0.955125
111 2 2.88747 1.76551 4.41872
112 2 -1.81623 5.22071 0.63195
24 4 5.12335 4.97098 0.586216
118 2 4.80796 0.743518 4.52545
113 2 -1.9602 5.72679 4.15872
143 2 3.49859 4.62889 2.30164
135 2 0.948616 0.84327 7.29039
141 2 4.71789 3.11899 2.06646
142 2 3.23505 3.31565 0.876272
119 2 7.5393 1.19038 5.2785
5 4 0.50296 1.9129 0.215853
242 1 3.45061 0.255978 3.37664
28 4 3.83981 6.36622 4.68738
12 4 -0.857315 6.3809 5.2462
250 2 -3.5405 5.67982 0.562668
138 2 2.25413 1.34959 12.9456
8 4 1.98531 2.60477 10.7951
13 4 0.484713 4.96449 12.5132
267 2 -1.18876 5.89317 14.9981
20 4 4.70296 2.93599 9.28541
23 4 7.12637 3.05332 11.2666
117 2 5.20821 1.59016 8.33289
29 4 3.7529 6.42962 11.0772
42 1 2.05928 1.06025 11.8669
57 3 0.537079 2.47853 10.0686
63 3 -0.345347 3.94742 13.4035
64 3 1.86132 4.09257 12.0161
65 3 -2.15811 5.89027 9.43966
66 3 -0.365706 5.60782 11.4449
73 3 3.30086 2.59867 9.91253
75 3 5.87067 3.19983 10.3847
76 3 7.05719 1.5686 11.8769
123 2 5.33145 5.93674 10.627
262 3 0.776051 2.07808 15.1585
82 3 1.19398 5.20732 8.18864
114 2 0.964253 6.26823 13.4306
99 3 8.28181 1.25919 8.4379
124 2 3.25462 5.11532 11.9405
80 3 4.61976 4.19976 8.30962
179 4 7.49032 2.57187 15.4767
183 1 6.00621 1.61348 14.687
14 4 -0.992533 6.64657 10.3908
195 2 6.27712 0.638758 14.0522
196 2 5.4638 2.43368 14.1033
137 2 1.01347 0.618973 11.7652
227 3 5.39277 6.36496 15.8352
228 2 2.97866 6.36919 14.9386
245 1 3.33115 3.18524 15.4474
246 2 2.8254 3.27895 14.3642
247 2 4.31695 2.6756 15.2567
77 3 7.19038 4.16471 15.5363
248 2 3.34629 4.17608 16.0545
197 2 5.51219 1.33746 15.7385
86 3 2.79855 6.54081 9.86023
136 2 2.87803 0.440228 11.385
1 4 -6.65884 12.2908 2.0839
3 3 -6.04774 11.0873 1.10603
25 4 1.40453 6.57025 3.2227
16 4 -2.91214 8.16272 6.69517
17 4 -4.46293 10.0619 4.83877
265 2 -4.45831 12.2347 2.60722
30 4 2.56512 8.9274 1.13585
31 4 -2.06582 10.4087 3.00399
33 4 0.187187 11.0345 5.35158
48 1 -1.22796 9.01776 2.03984
49 1 0.265512 9.49025 6.51728
47 1 1.42158 10.4937 0.991557
68 3 -1.66781 7.55181 5.93882
253 2 -5.08853 8.77796 2.21909
70 3 -4.0275 8.79588 5.65182
79 3 0.511353 7.07573 4.4981
87 3 1.83677 8.04256 2.14827
252 2 -4.26683 7.71996 0.832138
89 3 -1.98646 11.8777 1.77585
90 3 -3.54601 10.0998 3.43305
93 3 -1.05368 10.679 4.251
94 3 -0.191231 12.2786 6.32984
115 2 -4.13865 11.3892 5.80637
147 2 1.69576 7.39184 6.43025
151 2 -0.21253 9.46413 1.64669
152 2 -1.97312 8.8495 1.1764
153 2 -1.08784 8.10894 2.67874
149 2 2.32085 8.91677 7.31126
155 2 0.446213 8.64395 5.82034
156 2 -0.800194 9.45003 6.99667
271 2 0.570835 10.5291 0.264581
244 2 -5.75729 12.6144 4.16471
91 3 -2.39608 9.63729 7.78238
67 3 -3.6997 7.18026 7.5833
69 3 -5.96105 10.1393 4.49444
122 2 3.01406 7.74164 5.3365
46 1 2.32431 7.79161 7.28435
154 2 1.15452 9.69213 7.26486
148 2 3.35735 7.3428 7.22151
161 2 -1.24362 9.93678 0.243198
15 4 -5.44364 9.75694 0.139471
150 2 1.1376 10.5742 2.10117
19 4 -0.887796 12.9092 7.72125
133 2 -5.8572 13.004 6.35993
22 4 -0.696725 12.9704 12.0422
18 4 -2.34677 8.32556 12.5435
159 2 1.66778 11.439 12.2536
32 4 -2.205 10.6177 8.96807
35 4 -1.38943 10.7259 14.1711
71 3 -2.87391 7.17057 13.5287
160 2 0.837537 10.1452 14.559
50 1 2.22833 10.4251 12.2213
51 1 0.186875 10.779 15.2115
229 2 4.62153 7.41058 13.4341
72 3 -1.7411 7.94321 11.1506
83 3 0.355692 7.41775 9.2704
88 3 3.98261 8.78071 15.6829
92 3 -0.929825 11.5237 9.07526
95 3 3.81209 7.77962 11.9565
96 3 -1.32453 9.32137 13.3438
97 3 -1.48501 12.0125 13.133
98 3 -2.90261 10.4545 15.2684
116 2 -3.69156 9.3324 12.125
120 2 -0.786514 12.3006 10.5514
126 2 -2.06434 9.38596 10.118