ITEM: TIMESTEP
0
ITEM: NUMBER OF ATOMS
350
ITEM: BOX BOUNDS xy xz yz pp pp pp
-6.7108999999999996e+00 1.5238200000000001e+01 -6.2626999999999997e+00
-6.4200000000000002e-01 1.4502800000000001e+01 -4.4819999999999999e-01
0.0000000000000000e+00 1.7008500000000002e+01 -6.4200000000000002e-01
ITEM: ATOMS id type x y z
7 4 -0.573066 2.44369 3.76494
16 4 -0.465928 7.03763 0.113503
14 4 0.30056 4.79703 2.02007
17 4 -0.577693 6.42462 6.48909
26 4 4.30473 1.15284 3.64995
201 3 3.84711 6.83587 7.06852
33 4 1.51203 6.4888 4.20396
322 2 -1.46799 3.47444 7.21587
36 4 4.3205 6.33566 5.58969
57 1 1.16326 0.407664 6.48418
62 1 3.13327 2.59475 4.01584
77 2 1.17864 2.52577 4.03309
320 2 0.096919 3.07566 8.25654
79 2 -0.372481 5.25723 7.69775
82 2 4.29067 2.47363 2.43127
104 2 1.27844 -0.120406 5.49779
319 1 -1.04035 3.41793 8.26503
105 2 1.4444 1.51899 6.44572
117 2 2.55211 1.65747 4.80662
118 2 2.46467 2.93804 3.07472
119 2 3.60322 3.44531 4.69285
164 3 -1.02554 3.73363 2.90033
165 3 1.04175 3.92253 0.822056
166 3 -0.537628 6.07445 1.33083
167 3 -2.0191 6.11177 5.83998
182 3 5.74372 1.26931 4.53447
269 2 5.87132 3.07803 1.81602
189 3 1.40843 5.29075 3.09582
190 3 0.704039 6.32776 5.52077
191 3 4.86057 2.65762 7.60625
194 3 3.00248 6.91658 4.49349
195 3 4.42861 4.66445 5.5381
318 2 1.80137 1.32787 0.969431
271 2 4.73356 5.02422 1.72189
34 4 5.6698 3.74973 6.64717
103 2 0.173402 0.234295 6.98896
180 3 3.45535 -0.0781196 3.13763
8 4 0.856909 2.42861 16.4995
11 4 2.5849 -0.0914075 12.704
13 4 0.944887 1.99576 11.1445
18 4 -0.487053 4.09199 12.9038
19 4 -1.71767 6.37389 11.0866
28 4 4.5541 1.71618 8.94226
31 4 3.62229 2.30057 14.6815
35 4 1.10148 6.37596 9.99496
198 3 2.03245 6.59268 11.2836
63 1 3.8292 3.07262 10.1104
64 1 4.66789 3.52593 13.6996
67 1 2.16625 5.77181 14.3424
83 2 1.88302 2.73784 9.86193
84 2 1.20313 4.72239 9.66508
85 2 0.391669 4.97511 14.0949
324 2 0.363882 -0.155964 14.7472
321 2 -1.28969 4.25824 9.0125
120 2 3.2924 2.60852 10.9805
121 2 3.24999 3.82419 9.46849
122 2 4.76656 3.56861 10.4352
123 2 3.64631 4.07127 13.2277
124 2 5.16577 2.75483 12.9627
181 3 3.43686 0.670163 8.66714
132 2 2.08061 4.65672 14.7186
133 2 3.24768 6.03292 14.2945
134 2 1.63163 5.93258 13.4072
161 3 -0.422307 2.17911 15.6337
162 3 -0.326087 1.57494 10.311
163 3 1.85636 0.886451 11.741
168 3 -1.61266 3.1164 13.5926
169 3 0.50344 3.0923 12.186
170 3 -1.1857 5.08846 11.9371
336 2 -2.32313 5.85207 16.3179
184 3 3.20255 0.863321 13.8363
185 3 4.61046 2.06319 16.0262
186 3 2.19567 3.03473 15.236
187 3 5.83383 1.52076 9.83209
110 2 -2.61227 5.97151 8.92306
197 3 0.15918 6.36923 15.9298
317 2 0.906665 -0.147199 16.3302
316 2 2.71448 0.660916 16.5963
315 1 1.52129 0.718306 16.8229
1 4 -3.72111 13.273 2.42527
2 1 -5.1004 12.1621 3.43224
3 2 -3.5425 11.5117 3.24752
5 2 -5.20559 12.1482 4.55307
6 3 -3.49715 13.0448 0.865209
337 2 -3.23615 8.3462 4.68543
20 4 -1.66681 9.80066 1.20142
22 4 -1.29255 9.39794 7.7305
334 2 -5.53742 13.6033 2.8392
39 4 -0.55937 11.4263 4.00479
40 4 2.70326 7.75501 7.69041
42 4 1.9465 11.2138 5.80292
60 1 -3.36901 9.01594 0.960279
61 1 -3.01874 9.98893 7.11198
69 1 0.313249 12.7786 2.94495
70 1 -1.95457 12.2713 5.11324
87 2 0.666389 7.81577 3.56445
88 2 1.60512 8.21309 6.42052
100 2 1.92455 10.1895 7.11467
285 2 2.08661 8.30119 2.19889
112 2 -2.95538 7.90602 0.794646
287 2 2.03572 9.15196 3.85555
115 2 -2.51979 9.97531 5.94691
116 2 -3.32395 11.0351 7.33213
138 2 0.2456 12.6121 1.77031
139 2 1.3863 12.6074 3.38299
140 2 -0.223733 13.7074 3.33064
141 2 -1.65067 11.8274 6.14812
142 2 -2.9827 11.9313 4.91693
143 2 -1.81509 13.3785 5.09496
171 3 -0.601104 8.52651 0.671824
78 2 -2.65698 13.7551 6.15715
173 3 -0.745142 7.94772 7.18674
172 3 -1.85711 10.994 0.168342
286 2 0.731456 9.58759 2.53472
199 3 -1.24424 10.1641 2.77675
202 3 -0.479446 10.6741 7.93367
203 3 0.498558 13.1478 8.29474
205 3 0.632233 10.9742 4.98715
114 2 -3.92234 9.27193 7.22581
278 1 1.79494 9.26436 2.75446
174 3 -4.4613 12.8662 8.08517
9 4 -3.71618 14.1223 7.44279
113 2 -3.8891 9.49366 0.115184
111 2 -3.98295 9.11048 1.95609
21 4 -3.04307 11.8494 16.652
23 4 -4.94714 11.9144 9.27184
24 4 -3.00748 9.11281 12.3019
25 4 -2.48221 11.9561 11.1425
38 4 3.54183 7.25114 11.6109
37 4 1.62718 7.1411 15.6575
41 4 0.0403722 11.8488 9.14649
80 2 -2.63241 9.21478 8.83792
44 4 -0.287556 12.2964 15.4482
45 4 1.84246 11.3172 11.4508
72 1 -3.32633 8.99704 14.1894
73 1 -0.692244 10.8178 14.3594
196 3 2.63916 6.96812 16.8888
339 2 -4.97852 13.5514 13.3806
208 3 3.49944 8.13412 12.9537
147 2 -2.47072 8.43122 14.6616
214 3 1.61155 12.648 12.2395
149 2 -3.51617 10.0548 14.5884
150 2 0.13293 10.115 14.6676
151 2 -0.449794 11.3359 13.3159
152 2 -1.70518 10.2658 14.3652
175 3 -2.33174 7.70172 11.8303
176 3 -4.12195 11.739 15.2452
177 3 -3.78726 11.6794 10.3019
178 3 -2.38155 10.5895 12.1067
179 3 -2.72787 13.3687 12.0375
193 3 -0.412189 6.91992 10.0771
43 4 2.66837 9.31263 13.7166
213 3 1.62676 10.112 12.3784
204 3 -1.18188 11.9203 10.2313
207 3 1.71274 8.69512 14.9256
209 3 0.988715 11.741 16.6151
210 3 0.355668 13.4484 14.4106
211 3 -1.73094 12.6847 16.1768
212 3 1.36417 11.2686 9.98937
200 3 1.92087 7.08199 8.88078
252 2 -4.38281 9.54466 9.83001
15 4 11.8531 6.70108 5.32172
46 4 9.73616 2.19767 3.50833
49 4 12.0967 1.85706 5.40279
50 4 11.143 4.86747 2.90845
51 4 7.26879 6.65281 5.11204
52 4 10.0237 6.60357 0.814518
53 4 10.5821 3.5361 7.52188
54 4 9.46517 6.30776 7.15159
66 1 6.35613 4.95328 7.94229
91 2 9.57625 1.45592 1.96375
94 2 12.5772 4.00803 2.72783
95 2 7.30472 5.03314 4.56466
296 3 14.4297 1.17802 2.73814
346 2 9.3666 0.769851 0.7351
270 2 6.58802 5.33885 1.78914
129 2 6.13312 5.98268 7.5973
192 3 6.96988 3.11664 5.86039
215 3 8.35708 1.7223 4.27844
219 3 13.7533 2.34781 5.08181
220 3 11.1917 1.64798 4.05064
221 3 12.2496 0.353936 6.09691
222 3 9.88904 3.70926 3.1475
223 3 11.3263 5.76883 4.17253
280 2 5.29868 6.831 1.2199
225 3 11.0117 5.74894 1.58777
224 3 5.73906 7.01123 5.34021
227 3 11.4845 3.01052 6.28544
229 3 8.07303 6.69999 6.56865
130 2 7.47257 4.65908 8.01011
230 3 9.59638 4.69387 7.23624
29 4 7.1938 1.53072 5.27391
294 4 13.229 0.534306 1.78249
340 2 12.0108 3.97015 0.245808
347 2 7.62283 0.0291393 0.979885
297 3 12.3232 1.35237 0.771263
183 3 7.50962 0.417742 6.42848
267 4 6.20731 3.35521 0.118977
268 1 5.73331 4.93063 1.1825
226 3 9.92019 2.35985 8.28575
10 4 13.6629 1.96491 9.39448
342 2 11.109 6.27014 10.1198
32 4 7.03613 1.62187 10.9484
48 4 9.58528 1.09279 9.14285
58 1 12.2192 2.45074 10.7516
65 1 7.07905 3.40153 11.8104
68 1 5.02229 6.0712 11.7305
93 2 11.1315 1.04451 9.88658
30 4 7.51231 -0.475173 13.0936
106 2 12.1468 1.51165 11.4137
107 2 11.1871 2.67343 10.3102
108 2 12.5207 3.32999 11.4091
126 2 8.11106 3.67228 11.3591
127 2 7.04781 3.19663 12.9309
128 2 6.17115 3.97264 11.4947
335 2 14.1009 0.431422 13.7662
131 2 5.74404 4.57661 8.83382
135 2 4.92664 5.73886 10.571
109 2 12.0694 4.43892 10.2253
125 2 5.42685 4.14004 14.2765
216 3 13.0435 0.751201 8.51594
218 3 8.60275 1.46958 10.3027
243 1 8.23284 6.35095 11.1327
349 2 8.84377 0.226752 15.0445
308 2 11.5401 6.28628 14.4481
256 2 9.42785 6.45542 11.0035
257 2 7.83621 5.4658 10.6089
258 2 7.78314 6.50961 12.1879
298 4 11.3114 1.8005 16.5962
299 4 8.48699 2.43476 15.8777
300 4 10.0559 4.62834 13.9081
301 1 10.4094 3.26049 12.7676
302 1 11.5223 5.26931 15.0143
303 2 7.9133 1.67049 14.4638
304 2 9.29014 5.63337 12.5958
305 2 9.75134 2.36631 12.5278
306 2 11.4587 2.93781 13.3808
307 2 10.594 3.95923 11.8024
188 3 6.88497 0.769057 12.2891
248 2 7.23711 5.75007 14.7247
310 2 11.2623 5.47081 16.0785
311 3 12.1991 1.6055 15.3075
312 3 9.78669 1.51112 16.3843
313 3 7.3073 2.4961 16.8762
314 3 8.81013 3.96969 15.2705
328 1 9.12043 0.196885 13.875
329 2 9.56088 1.20988 13.5098
96 2 8.94689 4.88153 16.5772
12 4 13.6623 1.88199 14.6166
59 1 12.0774 5.66995 9.90056
272 2 5.18526 4.85257 16.9819
309 2 12.4262 4.58833 14.9198
137 2 5.98869 6.6771 11.9483
136 2 4.9084 5.10406 12.4661
97 2 11.7711 4.32482 8.55178
4 2 9.39272 11.3776 2.97603
254 2 6.68047 8.42366 8.0951
55 4 8.72484 8.39447 2.88152
279 1 2.48205 14.3915 1.15558
74 1 7.87956 10.0491 2.30865
75 1 10.4071 9.03862 3.80614
332 2 5.85912 12.8542 1.04817
92 2 4.66529 13.6835 7.98316
330 1 6.76493 13.0167 1.65956
144 2 3.65573 9.9079 7.6519
153 2 6.90818 9.48392 1.97396
154 2 8.39774 10.526 1.39046
155 2 7.64519 10.7797 3.09318
326 2 9.91614 11.7314 0.523815
157 2 10.2551 8.74625 4.92028
333 2 5.92062 14.07 2.94969
47 4 6.18679 14.1359 7.46311
231 3 7.97245 7.56632 4.06067
232 3 9.03417 7.53302 1.54485
206 3 2.42004 12.6223 6.3016
273 4 4.53306 8.15821 0.359604
274 4 3.39142 10.2757 2.26792
288 2 2.77959 14.0905 2.24424
276 4 5.69618 11.555 4.56234
277 4 7.32923 11.2612 6.9513
331 2 7.13588 11.9592 1.94462
275 4 2.71981 12.6156 0.499405
281 2 6.71026 12.505 3.54384
282 2 4.99149 12.9175 5.23468
283 2 8.95076 11.0785 6.56248
284 2 7.09531 10.1358 8.266
89 2 3.26672 10.6635 4.87681
289 3 4.33066 9.38125 1.29962
290 3 2.71914 11.654 1.77662
291 3 4.47357 10.7783 3.80061
292 3 6.4273 10.781 5.73273
293 3 7.03593 12.7116 7.50895
295 2 7.73935 13.4938 0.726484
27 4 1.73517 13.749 7.29633
158 2 10.4002 10.1514 3.65905
156 2 11.2759 8.55237 3.27937
228 3 10.7671 7.03846 6.46555
102 2 9.0068 12.5726 10.0893
56 4 4.44186 11.3541 15.2432
76 1 5.46626 12.8362 14.5674
86 2 3.85751 8.33581 10.2878
90 2 3.56611 11.3733 11.1312
101 2 6.173 11.1492 15.2361
345 2 8.54908 9.74905 16.525
249 2 7.41973 6.77492 16.4802
159 2 5.04421 12.8756 13.5267
160 2 6.70109 13.0532 14.6031
327 2 7.71574 11.3674 16.975
233 3 3.61509 10.4633 14.2164
234 3 3.88604 11.8948 16.5444
99 2 10.4096 7.08085 16.8537
236 4 6.09398 7.70456 14.817
237 4 8.10104 8.24134 10.505
238 4 7.674 10.0561 13.136
239 4 6.441 12.3246 11.3567
348 2 3.53872 13.7995 13.5912
241 1 10.0503 8.65457 9.70369
242 1 6.64703 8.47305 9.22773
244 1 5.20768 11.3191 10.109
246 2 6.93424 11.5251 9.70452
247 2 8.47458 7.17391 14.9479
81 2 10.7078 9.07758 11.464
251 2 10.7336 7.69111 9.71716
341 2 7.27532 13.7811 11.2177
253 2 6.1238 7.49553 9.7383
235 4 9.56827 11.4744 15.123
255 2 5.99772 9.61673 9.60856
259 2 4.57182 11.2766 9.12426
260 2 4.70009 12.731 11.2135
261 2 4.98528 10.3922 10.6412
262 3 5.04979 7.81843 16.1026
263 3 6.77634 9.13766 14.2165
264 3 7.97718 9.1626 11.699
265 3 9.0579 10.5681 13.9385
266 3 6.94354 11.4232 12.6338
323 1 8.68002 13.3714 14.6606
250 2 9.38752 8.69771 8.7003
71 1 3.72803 9.22794 8.52427
343 2 8.05435 13.1474 15.6666
344 2 8.08077 13.3383 13.7255
338 2 9.6324 10.4182 8.81096
325 1 8.67968 10.8845 16.7197
145 2 4.75475 8.95828 8.78972
240 1 7.56035 6.6881 15.3147
350 2 4.92558 13.635 15.2092
148 2 10.9321 8.3442 14.0314
217 3 3.15999 14.0879 8.56982
98 2 9.46356 6.95793 8.70827
146 2 3.08655 9.57219 9.38364
245 2 5.3969 6.77954 13.5111
ITEM: TIMESTEP
100
ITEM: NUMBER OF ATOMS
350
ITEM: BOX BOUNDS xy xz yz pp pp pp
-6.7075445500000006e+00 1.5230580900000001e+01 -6.2595686500000003e+00
-6.4200000000000002e-01 1.4502800000000001e+01 -4.4797589999999998e-01
0.0000000000000000e+00 1.7008500000000002e+01 -6.4200000000000002e-01
ITEM: ATOMS id type x y z
7 4 -0.545955 2.42824 3.64828
16 4 -0.487883 7.09654 0.149189
14 4 0.423297 4.79338 1.94443
17 4 -0.605047 6.52986 6.64185
26 4 4.13341 1.28476 3.72221
201 3 3.69936 6.77062 7.07185
33 4 1.41322 6.44817 4.21168
322 2 -1.60412 3.40976 7.21838
36 4 4.21328 6.43707 5.53888
57 1 1.36336 0.597489 6.65077
62 1 3.02576 2.80707 4.19333
77 2 1.07509 2.372 4.23714
320 2 -0.0425153 3.67862 8.32173
79 2 -0.484959 5.33886 7.9019
82 2 3.95502 2.50731 2.49439
104 2 1.45624 0.26199 5.55998
319 1 -1.18228 3.53457 8.28363
105 2 1.61594 1.67159 6.8003
117 2 2.49612 1.99045 5.09727
118 2 2.41484 3.10743 3.36655
119 2 3.78833 3.56497 4.6846
164 3 -0.887603 3.72229 2.76801
165 3 0.983234 3.8479 0.80457
166 3 -0.398267 6.04384 1.26432
167 3 -1.86223 6.23956 5.7235
182 3 5.61475 1.20151 4.30664
269 2 5.60606 3.31843 1.6171
189 3 1.38727 5.26376 3.08822
190 3 0.628399 6.24259 5.63556
191 3 4.77658 2.62622 7.55016
194 3 2.87082 6.8782 4.34307
195 3 4.52334 4.88741 5.50576
318 2 1.5191 1.34111 1.13925
271 2 4.79697 5.09134 1.4327
34 4 5.5946 3.74703 6.67615
103 2 0.421866 0.230907 7.27241
180 3 3.53397 -0.0538342 3.17418
315 1 1.92135 1.35643 0.0820166
316 2 3.01457 1.39225 0.0854768
8 4 0.848964 2.37377 16.4903
11 4 2.5848 -0.102664 12.6586
13 4 0.931368 1.98262 11.1098
18 4 -0.519623 4.12968 12.9993
19 4 -1.81387 6.52385 11.0106
28 4 4.60164 1.92121 8.90934
31 4 3.57855 2.27476 14.7807
35 4 1.06996 6.34077 10.0328
198 3 2.17996 6.40892 11.2788
63 1 3.98056 3.32895 10.0822
64 1 4.49614 3.59042 13.7314
67 1 2.15767 5.74954 14.2874
83 2 2.02888 2.7777 10.0874
84 2 1.04523 4.73157 9.54699
85 2 0.339807 4.94329 14.2901
324 2 0.231239 -0.0380691 14.4123
321 2 -1.89704 4.29338 8.98282
120 2 3.61098 2.78077 10.9825
121 2 3.13844 4.02323 9.69815
122 2 4.96137 3.84965 10.3236
123 2 3.68276 4.1356 13.2097
124 2 5.03451 2.954 12.9609
181 3 3.42891 0.456213 8.54823
132 2 2.17344 4.65936 14.7681
133 2 3.17639 6.18019 14.0807
134 2 1.5768 5.78259 13.3201
161 3 -0.525654 1.85882 15.6321
162 3 -0.326246 1.73045 10.1914
163 3 1.67738 0.69412 11.6321
168 3 -1.65419 3.18073 13.747
169 3 0.454641 3.10678 12.1274
170 3 -1.25012 5.21822 12.0245
336 2 -2.37101 6.10431 16.2634
184 3 3.29315 0.907436 13.6696
185 3 4.54366 2.22998 15.9722
186 3 2.22572 3.04763 15.353
187 3 5.84182 1.61804 9.8751
110 2 -2.62967 5.9875 8.92254
197 3 0.0814002 6.63538 16.0097
317 2 1.02997 -0.104085 16.4292
193 3 -0.463079 6.78593 10.1481
1 4 -3.67717 13.1902 2.41821
2 1 -5.03796 12.2319 3.35536
3 2 -3.52019 11.4667 3.26335
5 2 -5.12347 12.3823 4.48073
6 3 -3.33646 12.8197 0.907041
337 2 -3.34788 8.33747 4.76806
20 4 -1.49227 9.7896 1.10965
22 4 -1.3185 9.32927 7.67001
334 2 -5.58541 13.7321 2.67671
39 4 -0.437217 11.3871 3.87451
40 4 2.61911 7.81871 7.66686
42 4 1.85346 11.3516 5.83461
60 1 -3.2691 8.9698 0.9762
61 1 -3.12818 9.78332 7.01278
69 1 0.30989 12.7296 2.87327
70 1 -1.78288 12.1921 5.19955
87 2 0.723468 7.80567 3.50565
88 2 1.62958 8.46854 6.49808
100 2 1.86284 10.2219 7.09355
285 2 2.17428 8.05315 2.11352
112 2 -2.93538 7.90297 1.07945
287 2 2.05533 9.04206 3.82839
115 2 -2.62307 9.84075 5.88841
116 2 -3.39998 10.8246 7.33065
138 2 0.360997 12.4485 1.74787
139 2 1.33206 12.9521 3.33351
140 2 -0.596721 13.5252 3.12039
141 2 -1.20992 12.3178 6.20194
142 2 -2.66657 11.4947 5.31356
143 2 -2.1081 13.2041 4.73016
171 3 -0.645367 8.53309 0.732641
78 2 -2.86936 13.5744 6.08471
173 3 -0.757825 7.98073 7.17655
172 3 -1.66215 10.9785 0.0477443
286 2 0.98098 9.62487 2.31778
199 3 -1.30671 10.2557 2.63763
202 3 -0.422795 10.5115 8.10828
203 3 0.398598 13.2315 8.29791
205 3 0.76435 11.0569 4.81454
114 2 -3.98316 9.14426 6.92638
278 1 1.98228 9.08093 2.61644
174 3 -4.36364 12.5228 7.9953
9 4 -3.68774 13.9419 7.57579
111 2 -3.95598 9.2298 1.9983
21 4 -2.84325 11.6831 16.7052
23 4 -4.91092 11.7764 9.32628
24 4 -3.22004 9.10365 12.2603
25 4 -2.51864 11.9198 11.2325
38 4 3.50086 7.23089 11.5907
37 4 1.55952 7.1203 15.6281
41 4 0.130293 11.8307 9.14134
80 2 -2.73329 9.10083 8.7402
44 4 -0.212011 12.2575 15.4056
45 4 2.06558 11.3522 11.3712
72 1 -3.19624 8.99012 14.166
73 1 -0.518746 10.6721 14.4071
196 3 2.61712 6.95575 16.8537
339 2 -4.78152 13.4391 13.6231
208 3 3.51083 8.21665 12.8133
147 2 -2.32995 8.46411 14.6196
113 2 -4.17268 8.5894 16.9781
149 2 -3.48006 10.0897 14.6946
150 2 0.344769 9.95191 14.6302
151 2 -0.294816 11.1008 13.3582
152 2 -1.5403 10.0318 14.405
175 3 -2.56181 7.80398 11.6541
176 3 -3.95591 11.4845 15.4139
177 3 -3.85537 11.6753 10.3906
178 3 -2.44311 10.4083 12.0548
179 3 -2.76417 13.2736 12.1176
146 2 2.96218 9.78698 9.28485
43 4 2.67687 9.31762 13.5103
213 3 1.5926 10.1178 12.362
204 3 -1.17905 12.0457 10.2727
207 3 1.57738 8.51097 14.8409
209 3 1.05204 11.9461 16.4296
210 3 0.272929 13.3407 14.3269
211 3 -1.69278 12.7812 16.1341
212 3 1.48253 11.3812 9.91115
200 3 1.87453 7.14131 8.86358
148 2 -4.12143 8.32903 14.246
252 2 -4.47902 9.43778 9.9068
15 4 11.8799 6.71692 5.30407
46 4 9.76712 2.17537 3.55011
49 4 12.0867 1.72261 5.33662
50 4 11.1414 4.82916 3.00018
51 4 7.1866 6.64073 5.14684
52 4 10.0927 6.61858 0.748172
53 4 10.5641 3.41625 7.45996
54 4 9.5238 6.16796 7.13856
66 1 6.3031 4.86389 8.04124
91 2 9.63076 1.505 1.96729
94 2 12.6647 4.05961 2.88599
95 2 7.10392 5.11276 4.42698
296 3 14.4606 1.13892 2.78188
346 2 9.59971 0.519145 0.40949
270 2 6.62658 5.52862 1.72568
129 2 5.93188 5.89316 7.6887
192 3 6.84484 3.10935 5.83011
215 3 8.47892 1.79835 4.40388
219 3 13.761 2.20417 4.89695
220 3 11.1754 1.43656 3.91587
221 3 12.3178 0.147752 5.99418
222 3 9.97278 3.69568 3.23361
223 3 11.2815 5.80121 4.20475
280 2 5.05266 6.9312 1.38152
225 3 10.9176 5.63163 1.62786
216 3 13.1589 0.740802 8.44797
227 3 11.4406 2.86965 6.28287
229 3 8.15611 6.69168 6.38986
130 2 7.42849 4.60922 7.88023
230 3 9.52105 4.58601 7.19333
29 4 7.13376 1.61081 5.30658
294 4 13.1933 0.542663 1.80106
340 2 12.2441 4.0235 0.141685
347 2 7.75315 0.105921 0.881283
297 3 12.4523 1.40981 0.812616
183 3 7.48086 0.614753 6.5827
217 3 9.41378 -0.263663 8.42609
268 1 5.7929 5.13729 0.992727
226 3 10.07 2.23015 8.2912
228 3 10.9005 6.80381 6.50987
47 4 12.5444 -0.280222 7.48957
97 2 11.507 4.3968 8.45917
10 4 13.6209 1.98505 9.34197
342 2 11.0536 6.30422 10.136
32 4 7.1294 1.57814 10.9895
48 4 9.75562 1.04699 9.23904
58 1 12.1609 2.50889 10.6892
65 1 7.21996 3.36415 11.8498
68 1 5.06629 6.1445 11.7717
93 2 11.1728 0.913521 10.0921
98 2 9.44554 6.84926 8.6923
106 2 12.0342 1.6371 11.3726
107 2 11.2592 2.86188 10.1518
108 2 12.7089 3.2964 11.2718
126 2 8.12826 3.65658 11.2964
127 2 7.3239 3.15915 12.9656
128 2 6.36158 4.01521 11.5838
335 2 13.7674 0.242763 13.7496
131 2 5.98723 4.54405 9.08806
135 2 5.18965 5.77 10.6872
109 2 12.0073 4.49804 10.2627
136 2 4.89665 5.20592 12.5424
125 2 5.13977 4.34036 14.2848
218 3 8.55623 1.3781 10.2621
243 1 8.30897 6.42313 11.3616
349 2 9.26194 -0.194092 14.7393
308 2 11.5515 6.18573 14.7818
256 2 9.53699 6.62713 11.5094
257 2 8.00254 5.56999 10.6377
258 2 7.67379 6.44639 12.2903
298 4 11.4117 1.84247 16.6552
299 4 8.52941 2.46615 15.9621
300 4 10.0162 4.68598 14.0577
301 1 10.2364 3.41696 12.6607
302 1 11.6017 5.0665 15.0958
303 2 8.18758 1.59106 14.5423
304 2 8.9882 5.72934 13.0968
305 2 9.65301 2.49964 12.8809
306 2 11.4204 3.35463 12.9006
307 2 10.0463 3.77893 11.5832
188 3 6.93275 0.570497 12.2158
248 2 7.44482 6.01714 14.6062
310 2 11.4875 4.84494 16.1966
311 3 12.0526 1.6351 15.2372
312 3 9.83358 1.82311 16.5243
313 3 7.21025 2.45519 16.7965
314 3 8.95588 3.89611 15.3342
328 1 9.21104 0.0956766 13.6908
329 2 9.37974 1.17039 13.4288
96 2 8.77209 5.13587 16.5955
12 4 13.5524 1.81471 14.5772
59 1 12.0541 5.67099 9.93329
272 2 5.31439 5.04101 16.7921
309 2 12.4169 4.50473 14.5251
267 4 5.70201 2.88471 16.9727
137 2 5.94132 6.74248 12.0435
4 2 9.33085 11.4645 2.946
254 2 6.84169 8.3255 8.23313
55 4 8.68335 8.37634 2.90854
288 2 2.86233 14.2344 2.09423
74 1 7.91763 10.0612 2.44737
75 1 10.3452 9.08507 3.75243
332 2 5.83994 12.7998 0.673057
92 2 4.7743 13.852 8.09422
330 1 6.66451 12.9178 1.47524
144 2 3.54888 9.94574 7.46812
153 2 6.87136 9.65121 2.23552
154 2 8.40047 10.5979 1.48614
155 2 7.89088 10.6357 3.38913
326 2 9.57418 12.245 0.459774
157 2 10.2555 8.77486 4.85526
333 2 5.86988 13.9359 2.78738
71 1 3.56623 9.31254 8.46866
231 3 7.89228 7.54494 3.97724
232 3 9.05632 7.5328 1.52643
206 3 2.20357 12.7402 6.33448
273 4 4.48955 8.14582 0.325761
274 4 3.44084 10.2514 2.38518
156 2 11.2301 8.52209 3.24348
276 4 5.57986 11.6716 4.62153
277 4 7.28325 11.3914 6.95185
331 2 7.10123 11.8949 1.80127
275 4 2.78772 12.5262 0.452506
281 2 6.5426 12.4154 3.38308
282 2 4.81861 13.0095 5.23249
283 2 8.96167 10.9916 6.90784
284 2 6.98937 10.0607 8.05844
89 2 3.28634 10.799 5.0796
289 3 4.40648 9.41773 1.27044
290 3 2.78306 11.5828 1.8045
291 3 4.49076 10.6573 4.06452
292 3 6.52689 10.9959 5.65464
293 3 7.08214 12.8191 7.58406
295 2 7.71497 13.5394 0.852175
27 4 1.61261 13.8208 7.39314
158 2 10.3694 10.239 3.6256
224 3 5.70404 7.19013 5.33232
279 1 2.60018 14.433 1.00493
102 2 8.94514 12.4617 9.97146
56 4 4.49177 11.3649 15.3831
76 1 5.53158 12.7887 14.6579
86 2 3.75867 8.17502 10.0984
90 2 3.80123 11.1773 11.2696
101 2 6.25653 11.2141 15.5461
345 2 9.20438 9.76821 16.9217
245 2 5.21726 6.90914 13.5727
159 2 5.15502 12.6256 13.5113
160 2 6.72293 13.135 14.6726
327 2 7.56281 10.6849 16.8176
233 3 3.63436 10.5564 14.2366
234 3 3.76287 11.8735 16.7122
99 2 10.6688 6.95666 16.782
236 4 5.98643 7.78439 14.8747
237 4 8.22802 8.23655 10.6535
238 4 7.6223 10.108 13.1456
239 4 6.72369 12.1838 11.1694
348 2 3.63159 13.8958 13.1174
241 1 10.1315 8.48307 9.6851
242 1 6.61025 8.55941 9.29525
244 1 5.29921 11.3991 10.0173
246 2 7.17046 11.1286 9.77801
247 2 8.5602 7.54592 15.005
81 2 10.514 9.22088 11.4958
251 2 10.842 7.53053 9.56832
341 2 7.60006 13.6253 10.9398
253 2 6.12979 7.68782 9.85434
235 4 9.36831 11.4225 15.157
255 2 6.16862 9.57796 9.58608
259 2 5.01759 11.3828 8.95812
260 2 4.76432 12.6476 10.8238
261 2 5.11578 10.444 10.6108
262 3 5.11629 7.61977 16.0965
263 3 6.6265 9.25231 14.2296
264 3 7.95064 9.25562 11.7723
265 3 9.09076 10.4211 13.9894
266 3 7.02146 11.5295 12.5875
323 1 8.73019 13.3986 14.4414
250 2 9.35296 8.63412 8.72819
30 4 1.23743 13.8716 13.0866
343 2 8.2173 13.3323 15.5702
344 2 7.969 13.142 13.5983
338 2 9.62153 10.2673 9.01846
325 1 8.69359 10.7866 16.7656
145 2 4.72939 9.03979 8.79489
214 3 1.78184 12.6528 12.1126
350 2 4.86649 13.6627 15.161
249 2 7.33331 6.73501 16.4348
240 1 7.62499 6.93321 15.2508
ITEM: TIMESTEP
200
ITEM: NUMBER OF ATOMS
350
ITEM: BOX BOUNDS xy xz yz pp pp pp
-6.7041890999999998e+00 1.5222961800000000e+01 -6.2564373000000000e+00
-6.4200000000000002e-01 1.4502800000000001e+01 -4.4775179999999998e-01
0.0000000000000000e+00 1.7008500000000002e+01 -6.4200000000000002e-01
ITEM: ATOMS id type x y z
7 4 -0.62288 2.39744 3.53867
16 4 -0.512027 7.05344 0.062254
14 4 0.375646 4.72096 1.96695
17 4 -0.500396 6.53598 6.53016
26 4 4.08791 1.34337 3.72725
201 3 3.73373 6.93601 7.01331
33 4 1.51604 6.42968 4.16605
317 2 1.36927 0.361766 0.350465
36 4 4.15874 6.54049 5.50612
57 1 1.30528 0.528472 6.76255
62 1 3.00828 2.85727 4.09334
77 2 1.03238 2.59139 4.08582
315 1 2.01776 1.25414 0.359846
79 2 -0.441723 5.37136 7.7895
82 2 4.07727 2.6074 2.50117
104 2 1.47404 0.214014 5.63746
319 1 -1.27287 3.59158 8.29396
105 2 1.26002 1.66061 6.95821
117 2 2.33575 1.72742 4.90875
118 2 2.60284 3.12715 3.01844
119 2 3.63483 3.66457 4.64233
164 3 -1.03318 3.61378 2.63323
165 3 1.10605 3.87327 0.771355
166 3 -0.208787 5.93538 1.17315
167 3 -1.88847 6.3866 5.82926
182 3 5.75157 1.28747 4.50276
269 2 5.8192 3.3686 1.63529
189 3 1.32233 5.05808 3.18249
190 3 0.703729 6.26581 5.55236
191 3 4.65857 2.66096 7.61485
194 3 2.97717 6.96905 4.41904
195 3 4.51305 4.83235 5.57958
318 2 2.21547 1.60685 1.41054
271 2 4.83517 5.02998 1.29361
34 4 5.54158 3.8213 6.80419
103 2 0.448711 -0.133409 7.26384
180 3 3.42555 -0.010718 3.13127
320 2 -0.147259 3.6175 8.25671
322 2 -1.69848 3.37968 7.31034
8 4 0.819179 2.12925 16.5524
11 4 2.57697 -0.158158 12.7702
13 4 0.829828 1.86905 11.2242
18 4 -0.54152 3.96251 12.9608
19 4 -1.65799 6.36053 11.0729
28 4 4.42389 1.79399 8.98569
31 4 3.46637 2.44777 14.6701
35 4 1.08786 6.35744 9.95756
198 3 2.13179 6.53037 11.2847
63 1 3.73992 3.23051 10.0685
64 1 4.30116 3.67938 13.5875
67 1 2.12636 5.65293 14.3735
83 2 1.95817 2.33394 10.0263
84 2 0.987089 4.71048 9.49679
85 2 0.29079 4.77962 14.2928
324 2 0.52472 -0.248595 14.7146
321 2 -1.81558 4.40864 8.89338
120 2 3.43064 2.88237 11.0738
121 2 2.94589 3.82936 9.52632
122 2 4.70278 3.84451 10.1446
123 2 3.34243 3.96315 12.9275
124 2 5.34269 3.50995 12.9889
181 3 3.37709 0.654212 8.67274
132 2 1.97611 4.50381 14.7672
133 2 3.27165 5.88938 14.2316
134 2 1.59587 5.86382 13.4178
161 3 -0.546745 1.84136 15.7836
162 3 -0.335647 1.56854 10.2188
163 3 1.52551 0.599488 11.9155
168 3 -1.67747 2.98896 13.6139
169 3 0.542345 3.16306 12.2187
170 3 -1.22447 5.1707 12.0923
336 2 -2.4306 5.9607 16.29
184 3 3.1001 0.996293 13.7315
185 3 4.73965 2.16409 15.964
186 3 2.01184 2.8483 15.2812
187 3 5.70226 1.52347 9.85412
110 2 -2.61418 5.91786 8.97916
197 3 0.0544876 6.56607 15.8664
316 2 2.48359 0.467857 16.7432
125 2 4.52192 4.52391 14.4279
193 3 -0.41623 6.79551 10.1732
136 2 4.73182 5.28791 12.3486
1 4 -3.71151 13.245 2.36063
2 1 -5.14992 12.2852 3.22224
3 2 -3.69707 11.5505 3.35916
5 2 -5.27254 12.6067 4.28717
6 3 -3.13357 12.8451 0.845411
337 2 -3.39128 8.21401 4.53972
20 4 -1.62755 9.72617 1.04916
22 4 -1.15766 9.26756 7.81438
334 2 -5.5421 13.6445 2.13541
39 4 -0.446045 11.4298 3.80456
40 4 2.62847 7.89176 7.6346
42 4 1.87781 11.3478 5.82411
60 1 -3.48713 9.18165 0.952053
61 1 -2.899 9.65928 7.10439
69 1 0.160043 12.7905 2.64318
70 1 -1.83644 12.2377 5.0479
87 2 0.731736 7.72489 3.35666
88 2 1.39221 8.45362 6.52844
100 2 1.94833 10.2529 7.11212
285 2 2.38366 8.05942 2.43964
112 2 -3.28738 8.14797 1.40686
287 2 1.85794 9.28577 3.79054
115 2 -2.4304 9.64397 5.95996
116 2 -3.2807 10.6777 7.50855
138 2 0.302731 12.3514 1.58381
139 2 1.15791 13.1454 3.09413
140 2 -0.646552 13.6556 2.72988
141 2 -1.2879 12.5515 5.99062
142 2 -2.75351 11.6461 5.24622
143 2 -2.08228 13.159 4.44156
171 3 -0.753106 8.47948 0.789326
78 2 -2.52216 13.7982 6.07868
173 3 -0.695418 8.01842 7.03878
111 2 -4.1256 9.94677 1.54691
286 2 1.11648 9.45328 2.09768
199 3 -1.25434 10.5169 2.77802
202 3 -0.47494 10.701 8.06399
203 3 0.388311 13.235 8.23016
205 3 0.789022 10.9832 4.76125
114 2 -3.6037 8.80047 7.2675
278 1 2.011 9.12036 2.70269
174 3 -4.2808 12.7205 7.99212
9 4 -3.51326 14.0594 7.50264
21 4 -2.88291 11.6915 16.5732
23 4 -4.80785 11.7978 9.27105
24 4 -3.09264 9.10039 12.2644
25 4 -2.47841 11.9867 11.1844
38 4 3.4713 7.38287 11.4203
37 4 1.6526 7.10003 15.5566
41 4 0.0314916 11.9161 9.22496
80 2 -2.45078 9.04297 8.95019
44 4 -0.122311 12.2711 15.3581
45 4 2.046 11.3834 11.3071
72 1 -3.2033 8.86236 14.089
73 1 -0.378642 10.6523 14.3954
196 3 2.63619 7.21351 16.8069
339 2 -4.65115 13.322 13.6473
113 2 -4.07715 8.61362 16.8186
147 2 -2.2818 8.32924 14.5047
172 3 -2.15071 10.2282 16.9823
149 2 -3.2659 9.91735 14.5495
150 2 0.432818 9.8534 14.6538
151 2 -0.279092 11.0756 13.3345
152 2 -1.42365 10.2349 14.5371
175 3 -2.4585 7.726 11.6456
176 3 -4.11488 11.5545 15.2988
177 3 -3.79274 11.4503 10.4051
178 3 -2.34499 10.5799 12.3044
179 3 -2.73258 13.4186 11.9983
200 3 1.86903 7.12702 8.76469
43 4 2.69537 9.38592 13.518
213 3 1.82298 10.0109 12.1882
204 3 -1.24493 12.0939 10.2469
207 3 1.72607 8.67055 14.7373
209 3 1.04006 11.8244 16.5506
210 3 0.470702 13.3218 14.3759
211 3 -1.69469 12.6083 16.1862
212 3 1.34292 11.2713 9.91623
252 2 -4.45664 9.38837 9.80464
15 4 11.8484 6.69732 5.3629
46 4 9.69653 2.21605 3.57518
49 4 12.1434 1.60555 5.26555
50 4 11.1368 4.82208 3.01944
51 4 7.19405 6.75173 4.98132
52 4 9.98107 6.51159 0.82372
53 4 10.6225 3.40937 7.45298
54 4 9.44153 6.25114 7.00015
66 1 6.20929 5.11931 8.00013
91 2 9.44434 1.67256 1.91101
94 2 12.6378 4.08599 2.59624
95 2 7.16714 5.09702 4.58825
296 3 14.4788 0.973825 2.61177
346 2 10.0996 0.242612 0.971841
270 2 6.65314 5.71585 1.59707
129 2 5.88115 6.14533 7.79198
192 3 6.7174 3.13409 6.01243
215 3 8.4191 1.8412 4.34909
219 3 13.5667 2.23308 4.91047
220 3 10.9536 1.42329 4.08853
221 3 12.465 0.0200724 5.9807
222 3 10.0281 3.75194 3.45484
223 3 11.537 5.85486 4.0897
280 2 4.9739 6.94684 1.2916
225 3 10.8034 5.46511 1.55657
216 3 13.0474 0.715661 8.4401
227 3 11.5028 2.72777 6.36903
229 3 8.07449 6.76371 6.33654
130 2 7.32865 4.92906 7.75625
230 3 9.58198 4.45483 6.92316
29 4 7.1387 1.73225 5.34293
294 4 13.1526 0.464966 1.78713
228 3 10.8427 6.78382 6.5239
347 2 8.30238 0.477204 0.569264
297 3 12.4321 1.51469 0.795462
183 3 7.41974 0.645664 6.63812
267 4 6.21068 3.47139 0.00720594
268 1 5.85274 5.17234 0.841743
226 3 9.94113 2.29743 8.33431
10 4 13.5828 2.01252 9.39029
342 2 11.182 6.18991 10.199
32 4 7.0195 1.49776 10.9549
48 4 9.57414 1.07557 9.23799
58 1 12.194 2.42444 10.7679
65 1 7.06217 3.255 11.86
68 1 5.01496 6.15927 11.6553
93 2 11.0491 0.87962 10.1626
309 2 12.4036 4.43665 14.7583
106 2 12.1353 1.47678 11.4066
107 2 11.259 2.77658 10.2865
108 2 12.7597 3.27426 11.3355
126 2 8.1011 3.51817 11.5813
127 2 6.93913 2.96487 12.9264
128 2 6.22668 3.91227 11.403
335 2 14.2486 0.373388 13.9026
131 2 5.91083 4.76645 9.05121
135 2 4.94313 5.86059 10.5214
109 2 12.1402 4.4017 10.3409
272 2 5.27421 5.05109 16.7933
97 2 11.6129 4.25444 8.52441
218 3 8.4409 1.38951 10.2673
243 1 8.1246 6.39498 11.4312
349 2 9.40537 -0.0102712 14.9045
308 2 11.6087 6.14273 14.7626
256 2 9.40754 6.50404 11.3078
257 2 7.69446 5.61692 10.7529
258 2 7.67907 6.46446 12.4744
298 4 11.3578 1.93164 16.6528
299 4 8.56401 2.55096 15.9503
300 4 9.92611 4.74775 13.9346
301 1 10.1962 3.33448 12.7207
302 1 11.5181 5.06394 15.0592
303 2 8.22093 1.501 14.6091
304 2 9.28489 6.08499 13
305 2 9.47073 2.46717 12.8471
306 2 11.3097 3.10562 13.0754
307 2 10.1423 3.8541 11.7558
188 3 6.8854 0.553564 12.2593
248 2 7.35441 6.00389 14.8216
310 2 11.2677 4.90139 16.1347
311 3 12.1198 1.41247 15.2242
312 3 9.82728 1.96705 16.8044
313 3 7.34123 2.51749 16.9016
314 3 8.73355 4.0244 15.3242
328 1 9.3343 0.0959234 13.7566
329 2 9.63707 1.17826 13.5014
96 2 8.7468 5.13435 16.5171
12 4 13.5856 1.72953 14.6601
59 1 12.0989 5.57954 9.94606
98 2 9.54715 6.90095 8.63368
340 2 11.9462 3.49217 16.8638
137 2 5.97722 6.76777 11.8886
217 3 9.36463 -0.295392 8.52875
4 2 9.26459 11.498 2.80316
254 2 7.05269 8.33659 8.04663
55 4 8.66173 8.43009 2.77771
47 4 6.20935 14.1032 7.4965
74 1 7.7463 10.1055 2.31579
75 1 10.3115 9.12656 3.66611
332 2 5.80965 12.8361 0.690703
92 2 4.57358 13.929 7.8242
330 1 6.58658 13.0431 1.43499
144 2 3.73396 9.99346 7.4077
153 2 6.72225 9.69253 2.13795
154 2 8.22654 10.5476 1.33899
155 2 7.78424 10.8147 3.21301
326 2 9.24323 12.2948 0.51046
157 2 10.161 8.74434 4.7196
333 2 5.62923 13.9318 2.70957
71 1 3.66585 9.32889 8.35667
231 3 7.90401 7.63277 3.89689
232 3 8.92915 7.46966 1.43736