ITEM: TIMESTEP
0
ITEM: NUMBER OF ATOMS
350
ITEM: BOX BOUNDS xy xz yz pp pp pp
-6.7108999999999996e+00 1.5238200000000001e+01 -6.2626999999999997e+00
-6.4200000000000002e-01 1.4502800000000001e+01 -4.4819999999999999e-01
0.0000000000000000e+00 1.7008500000000002e+01 -6.4200000000000002e-01
ITEM: ATOMS id type q x y z
103 2 0.19658 0.943466 0.0506694 6.36783
185 3 -0.761477 5.51301 2.42037 0.203044
14 4 1.46606 0.129037 4.65272 1.75343
320 2 0.147337 -1.58229 3.2114 8.4614
26 4 1.03909 4.22889 1.53377 3.22867
183 3 -0.857185 6.80993 0.449542 6.15124
33 4 1.31442 1.49415 6.53968 3.70354
34 4 1.32584 5.29414 3.88806 7.06727
36 4 1.45506 4.11647 6.03531 5.3138
57 1 -0.674796 1.99219 0.548111 6.40751
62 1 -0.650273 2.92578 2.53905 4.10293
77 2 0.0116832 0.927136 2.86456 4.07504
191 3 -0.855374 4.62671 3.16063 8.22707
79 2 0.0773658 0.572425 6.36443 7.39831
82 2 0.0755445 4.8116 2.10405 1.66442
318 2 0.160753 1.22669 0.593776 1.07506
104 2 0.155717 2.66742 0.300078 5.4763
105 2 0.184783 1.93049 1.62511 6.66552
117 2 0.170473 2.14552 1.77964 4.36596
118 2 0.153648 2.69159 3.15564 3.01201
119 2 0.275374 3.23781 3.31383 4.99873
164 3 -0.811079 -1.29258 3.76285 2.76056
165 3 -0.862263 1.09837 3.66037 0.979093
166 3 -0.885402 -0.417891 5.84351 0.852348
167 3 -0.781947 -1.73978 5.92314 6.06156
182 3 -0.820431 5.52869 1.58093 4.10416
180 3 -0.834459 3.50655 0.10312 2.93906
189 3 -0.845047 1.08045 5.31158 2.84548
272 2 0.173356 4.93393 5.39593 0.392979
7 4 1.21964 -0.69009 2.50618 3.63915
194 3 -0.816888 3.05546 6.38892 4.02813
195 3 -0.753696 3.71199 4.56063 6.07332
16 4 1.29724 -0.176383 7.14381 0.0356868
316 2 0.190385 2.79614 0.794784 0.146647
190 3 -0.873885 0.504888 6.9232 4.87
315 1 -0.675467 1.64322 0.886072 0.0904871
17 4 1.23646 -0.446586 6.87425 6.15875
8 4 1.35279 1.0921 2.15517 16.6857
11 4 1.33308 2.81191 -0.296176 13.5935
13 4 1.25211 1.10632 1.17045 11.6532
18 4 1.23528 -0.233834 3.69364 12.7973
19 4 1.23195 -1.38375 6.33264 11.0246
28 4 1.41225 4.69676 1.97831 9.26235
31 4 1.21971 4.03914 1.9509 15.5061
35 4 1.137 1.22234 5.93815 9.787
317 2 0.16371 0.695642 -0.364966 16.1625
63 1 -0.653096 3.75574 2.76602 10.7813
64 1 -0.669649 4.77693 3.2363 14.3914
67 1 -0.700831 2.38655 5.48536 14.2329
83 2 0.0104714 2.29913 1.44114 10.4606
84 2 -0.00625686 0.759892 4.33466 9.27774
85 2 0.0109293 0.711032 4.40603 14.0122
200 3 -0.764222 1.79691 6.68243 8.52565
321 2 0.146704 0.26444 2.61641 8.87139
120 2 0.173036 3.52431 2.07309 11.664
121 2 0.1696 2.88591 3.17021 10.1469
122 2 0.171857 4.38647 3.68569 11.1379
123 2 0.200013 4.99309 2.6088 13.4807
188 3 -0.822557 6.82548 0.55609 12.3306
309 2 0.172661 -2.59931 6.00229 14.2156
132 2 0.198551 1.77616 5.5969 13.3047
133 2 0.190242 2.38535 4.51527 14.8226
134 2 0.147198 3.45115 5.83626 14.0459
161 3 -0.877975 -0.0501189 2.11002 15.6086
162 3 -0.801595 -0.0264087 0.396681 10.9146
163 3 -0.891068 1.65443 0.427511 12.9216
38 4 1.09439 3.63584 6.58637 11.5366
169 3 -0.84365 0.563483 2.70177 11.9322
170 3 -0.812349 -0.787391 5.04491 11.9571
181 3 -0.824482 3.76449 0.711902 8.63796
184 3 -0.78789 3.76398 0.708941 14.4232
322 2 0.19642 -0.689773 3.88473 9.96418
186 3 -0.813869 2.58358 2.46015 16.0011
187 3 -0.81892 5.99151 1.75239 10.0519
125 2 0.159936 3.82647 4.07342 14.3076
168 3 -0.798619 -1.5348 2.89612 13.421
198 3 -0.810815 2.39712 5.8077 11.0318
319 1 -0.68321 -0.750835 3.06553 9.27954
12 4 1.23576 -1.37642 1.93937 14.7807
324 2 0.181659 0.293358 -0.131484 14.73
110 2 0.18677 -2.12881 5.75892 8.7867
336 2 0.0186125 -1.68019 6.32953 15.744
59 1 -0.671898 -2.67653 5.75994 9.75926
135 2 0.161265 5.05469 4.61793 10.4018
197 3 -0.838274 0.811 6.59363 16.3124
1 4 1.05092 -3.66184 13.3804 2.44594
2 1 -0.665111 -4.50141 12.2646 3.70462
3 2 0.123028 -3.47527 11.3452 3.3051
143 2 0.187461 -1.22708 13.5794 4.90621
6 3 -0.826687 -3.58455 12.7943 0.961312
5 2 0.166894 -4.51214 12.4519 4.77808
20 4 1.23725 -1.61428 9.77407 1.30035
22 4 1.03379 -1.88663 9.56367 7.35149
334 2 0.043174 -5.30427 13.8964 2.97234
39 4 1.10515 -0.250182 11.8677 3.73463
40 4 0.934814 2.95547 7.92013 7.44658
42 4 1.00531 1.72862 11.376 6.08096
60 1 -0.677883 -2.98776 8.87822 2.24486
61 1 -0.692939 -2.96216 10.1635 5.95013
69 1 -0.667848 0.374196 13.3696 2.77942
70 1 -0.690178 -1.63594 12.4519 5.04352
87 2 0.02218 1.40395 7.8936 2.62303
88 2 0.023581 1.9449 8.87809 6.32289
100 2 0.0624003 0.854291 10.2259 7.1457
287 2 0.173108 3.29855 8.2787 2.51899
337 2 0.016256 -2.9736 8.25027 5.2498
114 2 0.172769 -3.91395 9.72862 5.45451
115 2 0.155437 -2.03622 10.0499 5.15029
116 2 0.16489 -3.10468 11.2292 6.29129
201 3 -0.840822 3.93351 7.21141 6.46945
172 3 -0.82076 -2.2926 10.6048 0.078433
285 2 0.214426 1.81995 9.5317 2.56052
141 2 0.182296 -1.44613 11.99 6.00521
142 2 0.173183 -2.73009 12.3611 4.68235
286 2 0.187686 2.91169 9.35869 4.11315
171 3 -0.813077 -0.659915 8.54697 0.561052
174 3 -0.841672 -4.17701 13.0964 8.33303
173 3 -0.82535 -1.04192 8.23247 6.72901
71 1 -0.71197 2.71354 9.94085 7.70043
78 2 0.0324245 -1.93855 13.4624 6.71276
199 3 -0.768793 -0.86636 10.8966 2.5679
202 3 -0.803165 -1.17807 10.7011 8.23701
9 4 1.11399 -3.22054 14.2065 7.73782
205 3 -0.805427 1.01051 11.2085 4.66641
140 2 0.2099 -0.143001 13.1002 1.78667
278 1 -0.661219 2.82029 9.22578 2.99623
113 2 0.157273 -3.09433 9.39413 3.23305
138 2 0.187027 1.52164 13.3792 2.66226
112 2 0.184124 -3.83076 9.12651 1.51136
111 2 0.192578 -2.76426 7.76688 2.30687
80 2 0.0262748 -3.42601 9.12478 8.01844
139 2 0.207535 -0.0529657 14.3773 3.19667
203 3 -0.79681 0.2272 13.2105 8.35758
290 3 -0.776262 2.62985 11.3793 1.1538
339 2 0.0541101 -4.40457 13.317 14.7437
23 4 0.984155 -4.81682 12.4091 9.56779
24 4 1.04789 -3.21446 8.9607 12.169
25 4 1.52431 -2.48753 12.0267 11.4929
208 3 -0.832734 3.42095 7.87508 12.3395
37 4 1.35477 2.03291 7.04669 15.4462
41 4 1.50693 -0.347608 11.9156 9.28918
43 4 1.42098 2.52798 9.06917 13.1346
44 4 1.356 -0.585181 12.0828 15.4028
45 4 1.29171 1.69142 11.1297 11.267
72 1 -0.686595 -4.04971 8.5667 13.7812
73 1 -0.648504 -0.686537 10.336 14.7145
252 2 0.173219 -4.43549 10.0744 9.4495
144 2 0.242157 2.16802 10.3833 8.57788
30 4 1.41022 0.970653 13.6456 13.0756
213 3 -0.77606 1.35946 9.81031 12.1648
21 4 1.43191 -3.37439 11.4113 16.6721
149 2 0.223498 -3.69355 9.36789 14.4589
150 2 0.286958 0.37776 9.75913 14.5294
151 2 0.278922 -1.36938 10.4317 13.7297
152 2 0.218456 -1.25854 9.71038 15.4764
175 3 -0.744414 -2.39083 7.72038 11.7509
176 3 -0.782224 -4.65562 11.1575 15.5282
177 3 -0.869805 -3.80616 11.8731 10.6361
178 3 -0.755386 -2.21228 10.3246 12.1739
179 3 -0.828336 -2.68594 13.2533 12.5177
196 3 -0.828445 3.33063 7.34988 16.2596
193 3 -0.735593 -0.241264 6.91865 10.0972
102 2 0.0841496 -5.73141 13.52 10.4306
204 3 -0.820263 -1.28887 12.4446 10.4691
207 3 -0.790675 1.73039 8.47294 14.4424
209 3 -0.810751 0.669736 12.1795 16.4756
210 3 -0.781298 -0.0258579 12.8075 14.0182
211 3 -0.803122 -2.15791 12.3962 15.9298
212 3 -0.860541 0.984359 11.175 9.88078
81 2 0.0247352 -4.37866 9.2665 10.9181
323 1 -0.664216 -6.36552 13.3418 14.5482
15 4 1.20617 11.9368 6.58858 5.42909
46 4 1.27559 9.61238 2.26837 3.77943
49 4 1.55372 12.1171 1.71748 5.52759
50 4 1.26876 10.9131 4.84059 3.07504
51 4 1.29707 7.11093 6.35365 4.6284
52 4 0.93523 9.34042 6.68023 0.973789
53 4 1.35227 10.6281 3.387 7.64084
54 4 1.25127 9.37197 5.98912 6.76926
66 1 -0.682196 6.17094 5.33412 7.93182
91 2 0.00390633 9.32109 1.45039 2.31795
94 2 0.101438 12.3425 3.92652 2.72646
95 2 0.0226332 7.69854 5.15106 3.59132
346 2 0.22031 9.84682 0.358109 0.355986
267 4 0.994141 6.74628 3.40984 0.591299
269 2 -0.0256885 7.23447 3.18351 2.21996
129 2 0.208046 5.86173 6.24594 7.3472
192 3 -0.804532 6.46258 3.00378 6.28367
215 3 -0.851424 8.2888 1.90083 4.63704
219 3 -0.801654 13.5794 2.35854 4.99236
220 3 -0.842768 11.0213 1.62421 4.29824
221 3 -0.820597 12.1346 0.193362 6.19203
222 3 -0.853429 9.75802 3.82403 3.56123
223 3 -0.835339 11.3601 6.04935 3.96785
224 3 -0.872401 5.66425 5.80834 4.90227
225 3 -0.798538 10.353 5.49892 1.71315
97 2 -0.00168472 11.7221 4.50124 8.46378
227 3 -0.877257 11.4368 2.6504 6.58795
96 2 -0.00179351 7.91986 5.82443 0.578014
229 3 -0.854609 8.13289 6.30781 5.85299
230 3 -0.819485 9.54445 4.42156 7.07399
271 2 0.0957785 6.53267 5.44302 1.5789
294 4 1.03433 13.6986 0.589641 1.49536
296 3 -0.838523 14.5648 1.1297 2.7443
347 2 0.170449 8.13207 0.385744 1.28706
297 3 -0.821383 12.4145 1.37975 1.00593
280 2 0.00697593 5.46855 6.99844 1.07491
268 1 -0.673331 6.04066 5.21016 0.429518
130 2 0.207285 7.26677 5.08635 7.85504
217 3 -0.82785 8.72939 0.325089 8.19955
98 2 -0.0167518 8.97347 6.68606 8.28549
340 2 -0.00306571 12.19 4.00622 0.733657
228 3 -0.870693 10.7887 6.77825 6.41381
295 2 -0.0172808 14.9155 0.531539 0.252648
29 4 1.55703 6.8665 1.7521 5.31974
10 4 1.00961 13.758 1.30696 9.74068
124 2 0.150294 5.6303 3.65965 15.041
32 4 1.37655 7.22593 1.59438 11.1985
48 4 1.29553 9.56574 1.13226 9.31235
58 1 -0.643391 12.1916 1.25008 11.0139
65 1 -0.65615 7.16943 3.29082 12.1844
68 1 -0.664194 5.30655 5.65418 11.0199
93 2 -0.00748926 11.1353 0.385175 9.6019
349 2 0.172105 7.92744 0.127343 15.2249
106 2 0.150502 11.0676 1.00549 11.2596
107 2 0.123381 12.3026 2.58533 10.753
108 2 0.17387 12.7393 0.974889 11.9674
126 2 0.178802 6.46566 4.1112 11.6873
127 2 0.179041 8.30839 3.62719 12.2608
128 2 0.174551 6.73186 2.91807 13.1748
136 2 0.0790289 5.28151 5.53 12.451
131 2 0.180357 5.8806 5.42268 9.02284
243 1 -0.661466 8.31905 6.45252 10.1395
245 2 -0.0159326 7.54541 6.27116 14.4144
335 2 -0.00426523 13.8895 0.306736 14.1454
329 2 0.147836 9.27084 0.30148 13.8913
218 3 -0.838999 8.71858 1.27652 10.6883
257 2 0.1573 7.90667 6.31869 11.1808
216 3 -0.847102 13.3422 0.343962 8.59739
248 2 0.0233043 8.37353 5.87692 16.1669
256 2 0.145292 7.55099 5.96211 9.2881
270 2 0.141549 6.13635 4.83707 16.4462
258 2 0.129921 9.40899 6.13986 10.0027
342 2 0.15686 11.6204 6.38644 9.78924
299 4 1.21125 8.9018 2.51451 15.6718
300 4 0.816363 10.1996 4.95395 14.1187
301 1 -0.666258 10.2718 4.14668 12.3818
302 1 -0.683357 11.8546 5.63158 14.9771
303 2 0.00371155 8.31014 1.59486 14.3988
304 2 -0.0117321 9.29822 6.44642 14.0221
305 2 0.186882 10.1766 3.03433 12.5897
306 2 0.153706 11.4696 4.54567 12.3062
307 2 0.168766 9.70317 4.49835 11.5276
298 4 1.22128 11.5312 1.95401 16.9421
137 2 0.161747 6.39166 6.01689 10.7091
226 3 -0.852597 9.97964 2.55075 8.77117
311 3 -0.841591 12.6469 2.14005 15.758
312 3 -0.839975 10.0525 1.77808 16.4489
313 3 -0.81908 7.56498 2.69383 16.6862
314 3 -0.812655 9.47012 3.84677 15.0421
109 2 0.134421 12.3866 4.68449 10.1984
328 1 -0.687685 8.51153 -0.370379 14.4384
310 2 0.197028 12.1523 4.62858 15.4509
308 2 0.141179 11.6549 6.33343 15.8394
275 4 1.28139 2.52954 12.6798 0.192066
47 4 1.22168 6.53343 13.8479 7.42478
55 4 1.06592 8.29225 8.736 3.10852
254 2 0.113257 7.97962 9.7242 8.03331
74 1 -0.650149 7.52615 10.5975 2.69936
75 1 -0.664684 9.67007 8.95705 4.40565
330 1 -0.674277 6.97733 13.3198 1.89771
92 2 0.000840033 5.27811 12.9441 8.2849
332 2 0.156654 7.40811 12.6393 0.999935
288 2 0.142326 3.32912 13.8953 2.01852
153 2 0.199583 6.57784 10.5173 3.32349
154 2 0.203595 7.38903 10.5856 1.56689
155 2 0.123237 8.34679 11.4314 2.97606
156 2 0.197894 10.6263 8.52459 4.02325
157 2 0.188104 9.18452 8.4527 5.377
158 2 0.135129 9.65907 10.1451 4.42776
206 3 -0.840518 2.0583 12.8075 6.66759
231 3 -0.811868 7.16032 7.75317 3.84026
232 3 -0.807881 8.90203 7.9329 1.74737
250 2 0.132445 9.83193 9.30345 7.92108
89 2 0.0473642 3.30201 10.6781 5.97186
274 4 1.29089 3.84173 10.557 1.94572
146 2 0.00888442 4.09489 8.82112 8.48011
276 4 0.972344 4.84389 12.6194 4.20309
277 4 0.836735 6.86084 11.4392 5.91754
333 2 0.174892 5.81387 13.1529 1.93125
331 2 0.155081 7.60671 13.1756 2.86588
281 2 0.0212854 6.00556 13.7622 3.60349
282 2 0.0309838 3.57579 13.5873 4.72931
283 2 -0.0214358 7.92181 11.0751 4.57565
284 2 -0.00107437 6.66256 10.0519 6.97061
145 2 0.146059 3.77897 10.3563 7.66576
289 3 -0.804361 4.9368 9.62036 1.01512
4 2 0.125856 9.64952 11.8848 3.27812
291 3 -0.819849 4.40387 11.6533 3.01829
292 3 -0.810925 5.36515 11.7215 5.42787
293 3 -0.785938 7.50876 12.8132 6.75793
326 2 0.151043 8.91072 11.6926 0.206549
279 1 -0.694517 2.85687 14.3715 1.08519
27 4 1.53567 1.3227 14.0451 7.32646
253 2 0.149614 6.51697 8.3632 8.35159
273 4 1.26857 5.13138 8.33617 0.0552333
242 1 -0.655305 7.08112 9.24667 8.73834
56 4 1.11109 4.3589 11.3941 14.7508
76 1 -0.682655 5.19135 12.9101 13.983
350 2 0.153497 5.08715 13.8575 14.7141
90 2 0.0149047 3.28653 10.9613 10.5036
101 2 0.026175 5.91433 10.8871 15.394
345 2 0.179555 7.12785 9.99095 16.3787
343 2 0.0908848 7.81806 13.2357 15.2897
159 2 0.161646 4.46464 12.9367 13.0863
160 2 0.17465 6.26818 12.7253 13.6981
348 2 0.272445 2.67259 13.1989 14.9463
233 3 -0.754542 3.7163 10.3354 13.7315
234 3 -0.800609 3.35215 11.8828 15.8253
235 4 1.08305 8.98342 11.3461 14.9432
236 4 1.08227 6.8264 7.80014 14.8055
237 4 0.8941 8.34515 8.54888 9.94716
238 4 1.38963 7.39748 9.8954 12.6841
239 4 0.69327 6.04396 12.3062 10.97
327 2 0.118428 6.90311 11.9663 16.4039
241 1 -0.643746 10.0987 9.26923 9.07355
240 1 -0.663313 8.57508 7.57232 15.4939
244 1 -0.637414 4.86115 11.4578 9.4664
246 2 0.00393902 6.68299 11.8979 9.34457
344 2 0.178491 8.64863 13.1752 13.3868
249 2 0.16802 8.45707 8.29357 16.4335
251 2 0.0906474 10.4434 7.98899 9.48542
148 2 0.179321 10.1348 8.80512 13.4377
341 2 -0.0105154 6.49075 13.9071 11.414
214 3 -0.826647 1.72326 12.57 12.1433
255 2 0.176179 6.29788 10.087 9.09301
99 2 0.0194891 9.87435 6.68853 16.587
260 2 0.0245482 4.18912 12.4996 10.7638
261 2 0.153586 4.82688 10.4004 9.985
262 3 -0.848426 5.82247 7.79597 15.9987
263 3 -0.821156 6.65254 8.7608 13.5829
264 3 -0.787405 8.16274 9.22562 11.324
265 3 -0.820981 8.59773 10.6219 13.5935
266 3 -0.763275 6.35852 11.2009 12.0337
338 2 -0.00894578 9.41056 11.1697 9.00782
325 1 -0.683994 7.6267 11.0338 16.3807
247 2 0.178231 9.46199 7.90662 14.8697
86 2 0.031652 4.67451 7.22706 10.1744
147 2 0.164424 11.3904 7.41158 14.1874
259 2 0.169593 4.16936 11.4359 8.57925
ITEM: TIMESTEP
100
ITEM: NUMBER OF ATOMS
350
ITEM: BOX BOUNDS xy xz yz pp pp pp
-6.7108999999999996e+00 1.5238200000000001e+01 -6.2626999999999997e+00
-6.7247640000000075e-01 1.4502800000000001e+01 -4.4819999999999999e-01
0.0000000000000000e+00 1.7008500000000002e+01 -6.7247640000000075e-01
ITEM: ATOMS id type q x y z
103 2 0.197444 0.892694 -0.0234594 6.45734
185 3 -0.77054 5.41868 2.45051 0.0700324
14 4 1.44932 0.22703 4.71636 1.76461
17 4 1.22099 -0.4147 6.99575 6.16249
26 4 0.972536 4.28328 1.49538 3.02361
183 3 -0.873073 6.91926 0.347817 6.19621
33 4 1.33033 1.5012 6.60345 3.79912
34 4 1.30657 5.3224 3.86376 7.09503
36 4 1.49842 4.16865 6.04231 5.26956
57 1 -0.66913 1.95013 0.440615 6.24746
62 1 -0.647608 2.95021 2.62371 3.78688
77 2 0.0344668 1.00679 2.90792 4.04415
191 3 -0.821955 4.61243 3.18184 8.34735
79 2 0.0446511 0.436884 6.1183 7.27779
82 2 0.0689576 4.7858 1.9609 1.44073
318 2 0.154689 1.36476 0.895674 1.20829
104 2 0.160424 2.46157 0.0385307 5.26887
105 2 0.188407 2.01889 1.54225 6.33841
117 2 0.162004 2.25093 1.73311 4.1194
118 2 0.158147 2.80469 3.20306 2.68096
119 2 0.282623 3.37067 3.31039 4.67912
164 3 -0.785179 -1.23389 3.83038 2.74308
165 3 -0.880968 1.07766 3.67606 0.947799
166 3 -0.865059 -0.538016 5.73849 0.746656
167 3 -0.778212 -1.66953 6.00769 5.8654
182 3 -0.779702 5.62406 1.52561 4.00752
180 3 -0.793569 3.59311 -0.00118212 3.00922
189 3 -0.846739 1.03247 5.25281 3.06247
320 2 0.187308 -1.27354 3.15868 8.15934
7 4 1.25654 -0.666437 2.62398 3.69457
194 3 -0.851601 2.98178 6.49087 4.26445
195 3 -0.788974 4.01607 4.54927 5.74297
200 3 -0.834183 1.84802 6.49003 8.39034
316 2 0.183384 2.89347 0.956093 0.135979
190 3 -0.867714 0.509724 7.04547 4.90108
315 1 -0.690713 1.76015 0.990541 0.158574
295 2 -0.0199113 -0.173767 0.526072 0.256857
8 4 1.33947 1.01521 2.21369 16.6336
11 4 1.35106 2.77819 -0.285523 13.5852
13 4 1.20614 0.984045 1.24407 11.6311
18 4 1.30375 -0.233464 3.79231 12.8291
19 4 1.23112 -1.46925 6.40459 11.2339
28 4 1.33126 4.51738 1.95344 9.31209
31 4 1.24086 3.85658 1.91158 15.4062
35 4 1.20586 1.17012 5.98044 9.71791
317 2 0.163624 0.766378 -0.329 16.326
63 1 -0.665393 3.52988 2.67947 10.7622
64 1 -0.662832 4.61564 3.2129 14.3402
67 1 -0.679634 2.3997 5.58803 14.2732
83 2 0.00480181 2.12854 1.26848 10.4061
84 2 0.00808004 0.328393 4.50429 9.38284
85 2 0.014256 0.746647 4.43171 14.059
197 3 -0.86039 0.769942 6.48986 16.395
321 2 0.1423 0.32021 2.83729 9.23196
120 2 0.180869 3.37503 1.96151 11.6276
121 2 0.169641 2.53171 2.91561 10.2535
122 2 0.176915 4.09738 3.70883 11.045
123 2 0.193501 4.92466 2.6663 13.4132
188 3 -0.781432 6.80576 0.574616 12.5385
309 2 0.176918 -2.70179 6.06382 14.1862
132 2 0.196594 1.77257 5.69387 13.3247
133 2 0.197847 2.30615 4.60052 14.88
134 2 0.166644 3.52837 5.92812 14.125
161 3 -0.875165 -0.183331 2.1152 15.5673
162 3 -0.82366 -0.300759 0.451872 10.9224
163 3 -0.891913 1.67167 0.505068 12.7835
38 4 1.11455 3.55136 6.74762 11.3687
169 3 -0.833832 0.729803 2.89167 11.9901
170 3 -0.818938 -0.960287 4.96751 12.0552
181 3 -0.760379 3.63315 0.669642 8.57598
184 3 -0.823313 3.7116 0.603152 14.4774
322 2 0.173015 -1.28219 3.69593 10.0443
186 3 -0.827458 2.46576 2.61924 15.9093
187 3 -0.761424 6.0178 1.71647 10.0068
125 2 0.174399 3.84233 4.12946 14.1815
168 3 -0.840698 -1.35509 2.92948 13.4722
198 3 -0.80195 2.38742 5.861 10.9219
319 1 -0.686974 -0.840911 2.97354 9.20138
16 4 1.28974 -0.694117 6.39352 16.9322
324 2 0.169244 0.512932 -0.0222654 14.7183
110 2 0.159846 -1.88095 5.44896 8.77937
336 2 -0.00240426 -1.68962 6.2741 15.5456
59 1 -0.667006 -2.45978 5.64567 9.77077
135 2 0.165757 5.01643 4.6653 10.5424
193 3 -0.76496 -0.00468349 6.83524 10.3097
272 2 0.163657 4.63862 4.25287 16.9125
342 2 0.139404 -3.21612 6.49595 9.67629
1 4 1.04472 -3.65122 13.2937 2.42574
2 1 -0.672263 -4.5535 12.2816 3.85311
3 2 0.113066 -3.65128 11.3281 3.30349
143 2 0.206682 -1.30992 13.6078 5.05775
6 3 -0.821964 -3.36776 12.8247 1.00354
5 2 0.1681 -4.39555 12.3206 4.95658
20 4 1.21841 -1.66272 9.7094 1.3146
22 4 1.00994 -1.96889 9.49031 7.52372
334 2 0.0160286 -5.36949 13.5992 2.7467
39 4 1.10228 -0.246733 11.8447 3.59084
40 4 0.97736 2.87543 7.6957 7.55609
42 4 0.990683 1.88184 11.2887 5.9914
60 1 -0.661655 -3.08483 8.72879 2.1016
61 1 -0.671188 -2.97734 10.1235 6.03473
69 1 -0.684216 0.381058 13.4664 2.85456
70 1 -0.667237 -1.57583 12.533 4.92642
87 2 0.0253724 1.42562 7.90525 2.58736
88 2 0.0338481 1.73383 8.69137 6.58703
100 2 0.0635393 0.866877 10.3153 7.14892
287 2 0.157838 3.12687 8.36193 2.412
337 2 -0.00650181 -2.82113 8.35494 5.11903
114 2 0.164978 -3.93949 9.79139 5.43413
115 2 0.167502 -2.06618 9.96644 5.27969
116 2 0.159839 -2.94568 11.2651 6.44496
201 3 -0.811217 3.98428 7.22741 6.6187
172 3 -0.814059 -2.40037 10.5369 0.137165
285 2 0.217089 1.63117 9.61184 2.89524
141 2 0.172542 -1.27138 11.8634 5.83463
142 2 0.172562 -2.7045 12.3834 4.59936
286 2 0.188034 3.13729 9.31402 4.05272
171 3 -0.788894 -0.568364 8.37429 0.663108
174 3 -0.804926 -4.1204 12.8316 8.20509
173 3 -0.838491 -0.989769 8.40503 6.80237
71 1 -0.700653 2.69702 9.89499 7.64781
78 2 0.0405391 -1.8429 13.2835 6.65639
199 3 -0.77755 -0.956899 10.7552 2.58234
202 3 -0.800706 -1.15892 10.7376 8.28296
9 4 1.01859 -3.21514 14.0175 7.4782
205 3 -0.788256 0.979681 11.1909 4.62172
140 2 0.221413 0.06922 13.2007 1.7547
278 1 -0.656299 2.72604 9.3029 3.01365
113 2 0.150023 -2.84896 9.02956 3.18694
138 2 0.186448 1.46636 13.3486 3.10703
203 3 -0.858044 -0.0257115 13.1578 8.21248
111 2 0.1976 -2.87346 7.63518 1.8596
112 2 0.196899 -3.96309 9.22398 1.61402
27 4 1.51503 1.17666 13.8519 7.3025
139 2 0.251074 -0.0983203 14.3775 3.29731
144 2 0.234129 2.00393 10.1499 8.43181
339 2 0.0506729 -4.29719 13.3321 14.8336
23 4 0.982696 -4.79616 12.3428 9.52167
24 4 1.06393 -3.10219 9.01671 12.2179
25 4 1.52526 -2.47607 12.1159 11.5052
208 3 -0.850261 3.45366 7.80056 12.466
37 4 1.33291 1.98381 7.00968 15.5655
41 4 1.54521 -0.357996 11.9626 9.18299
43 4 1.46306 2.67271 9.0927 13.191
44 4 1.37567 -0.626883 12.0191 15.3731
45 4 1.30586 1.79987 11.2493 11.1675
72 1 -0.677324 -4.05359 8.65325 13.7966
73 1 -0.681486 -0.76202 10.1703 14.8228
252 2 0.176208 -4.22814 10.0629 9.62341
214 3 -0.818768 1.6717 12.5475 12.1722
30 4 1.37594 0.872955 13.6325 13.1857
213 3 -0.799239 1.72984 9.93527 12.0838
21 4 1.51478 -3.39667 11.4039 16.6418
149 2 0.210667 -3.71201 9.38239 14.5525
150 2 0.270611 0.231193 9.56373 14.7167
151 2 0.261221 -1.40426 10.2243 13.7713
152 2 0.220546 -1.37571 9.6154 15.5652
175 3 -0.829413 -2.31049 7.6705 11.8234
176 3 -0.844633 -4.8761 11.3162 15.7851
177 3 -0.856373 -3.7236 11.9063 10.5392
178 3 -0.793081 -2.43499 10.4532 12.3591
179 3 -0.855469 -2.80331 13.1733 12.6233
196 3 -0.860075 3.29582 7.28648 16.3692
81 2 0.0148181 -4.41159 9.15447 11.1005
102 2 0.0518854 -5.77738 13.5365 10.288
204 3 -0.825765 -1.20371 12.4269 10.4543
207 3 -0.770532 1.66988 8.47433 14.4441
209 3 -0.798273 0.546239 12.209 16.6382
210 3 -0.807685 -0.257843 13.0173 14.2188
211 3 -0.82546 -2.15019 12.0953 16.0444
212 3 -0.860083 1.0812 11.2466 9.79217
323 1 -0.671499 -6.23748 13.4518 14.5846
80 2 -0.00832868 -3.08828 8.7785 8.66335
15 4 1.23564 12.0557 6.67424 5.32918
46 4 1.25674 9.68649 2.2504 3.7765
49 4 1.54699 12.071 1.73069 5.5497
50 4 1.29615 11.0398 4.83915 3.00993
51 4 1.28076 7.20847 6.36275 4.58782
52 4 0.921379 9.49842 6.59561 0.978905
53 4 1.319 10.6082 3.50834 7.64966
54 4 1.23602 9.36389 6.05764 6.80093
66 1 -0.672231 6.21776 5.25084 7.97622
91 2 0.00516156 9.50836 1.40095 2.26961
94 2 0.104264 12.4091 3.91504 2.53298
95 2 -0.00958327 7.86633 5.24212 3.48725
346 2 0.207068 10.0157 0.119696 0.485865
267 4 0.982604 6.65916 3.33087 0.564068
269 2 -0.0296504 7.14543 2.8628 2.09699
129 2 0.20635 5.98631 6.1497 7.31645
192 3 -0.819358 6.33301 2.87958 6.31165
215 3 -0.815878 8.31891 2.01483 4.62866
219 3 -0.769475 13.7265 2.24953 5.02587
220 3 -0.851693 11.0463 1.4902 4.29978
221 3 -0.837155 12.1965 0.283687 6.23337
222 3 -0.865325 10.0097 3.77993 3.59568
223 3 -0.821959 11.5877 5.91634 3.9808
224 3 -0.846262 5.6787 6.05368 4.7087
225 3 -0.850009 10.4935 5.56834 1.66357
29 4 1.52434 6.85654 1.68351 5.39802
227 3 -0.854076 11.5758 2.76375 6.64765
96 2 0.0132964 8.09497 5.58228 0.45819
229 3 -0.846184 8.09755 6.42553 5.92069
230 3 -0.819058 9.55706 4.50175 7.00971
271 2 0.090597 6.17567 5.27607 1.60337
294 4 1.05455 13.824 0.683407 1.47965
296 3 -0.832992 14.5084 1.30101 2.7373
347 2 0.175661 8.29015 0.317818 1.30142
297 3 -0.819021 12.4997 1.3512 0.882826
280 2 0.00207801 5.48848 6.95002 1.03572
268 1 -0.656212 6.17254 5.23692 0.32677
130 2 0.207092 7.29608 4.94972 7.90043
217 3 -0.76143 8.63127 0.117412 8.36531
98 2 -0.0321578 9.05846 6.6254 8.36473
340 2 -0.00839079 12.1518 4.04259 0.570705
228 3 -0.853007 10.8326 6.66981 6.27946
10 4 1.03888 13.7907 1.25211 9.81102
124 2 0.160114 5.59573 3.49365 14.951
32 4 1.3102 7.21046 1.68984 11.2573
48 4 1.26506 9.50441 1.18294 9.31875
58 1 -0.661213 12.106 1.32161 11.1325
65 1 -0.65511 7.46885 3.37882 12.0812
68 1 -0.669406 5.19561 5.71341 11.0478
93 2 -0.0114723 11.0309 0.455307 9.77515
349 2 0.174732 7.83951 0.176388 15.2442
106 2 0.162157 11.0555 1.11244 11.444
107 2 0.114244 12.1212 2.51873 10.6805
108 2 0.184386 12.7906 1.27427 11.9962
126 2 0.163365 6.80797 3.99908 11.3248
127 2 0.19718 8.61969 3.68449 12.093
128 2 0.163338 7.00584 3.35771 13.1361
136 2 0.123484 5.23205 5.53191 12.2995
131 2 0.17048 5.83859 5.45429 9.1555
243 1 -0.670077 8.21065 6.63947 10.1891
245 2 0.00061949 7.53537 6.29307 14.6283
335 2 -0.00748916 13.9548 0.28902 14.0085
329 2 0.164783 9.28678 0.333532 13.9287
218 3 -0.820847 8.64791 1.40835 10.6964
257 2 0.160944 7.80365 6.60646 11.2625
216 3 -0.843514 13.3772 0.272783 8.61075
248 2 0.0227498 8.61163 5.80042 16.183
256 2 0.146287 7.47222 6.159 9.34817
270 2 0.143399 6.10331 5.56062 16.8706
258 2 0.131374 9.21439 6.15147 10.1505
12 4 1.25408 13.8033 1.86297 14.6948
299 4 1.2214 8.87666 2.58086 15.726
300 4 0.801821 10.1151 4.99748 14.0085
301 1 -0.65702 10.5701 4.21027 12.3171
302 1 -0.6898 11.7795 5.66169 14.8649
303 2 0.0371938 8.3616 1.63033 14.4219
304 2 -0.0137951 9.13545 6.43799 13.9482
305 2 0.186061 10.3634 3.26389 11.7182
306 2 0.192309 11.7384 4.28573 12.5743
307 2 0.108552 10.0619 5.15653 11.7563
298 4 1.2563 11.5317 1.89916 16.8822
137 2 0.156523 6.25649 6.12076 10.7181
226 3 -0.851994 9.8617 2.52455 8.62793
311 3 -0.84108 12.4898 1.9117 15.6542
312 3 -0.836067 10.0139 1.73468 16.443
313 3 -0.816773 7.52006 2.64905 16.6721
314 3 -0.813889 9.38259 3.84846 14.9617
109 2 0.140589 12.3635 4.67784 10.3054
328 1 -0.671273 8.4965 -0.343651 14.4304
310 2 0.1854 12.1433 4.63135 15.2978
308 2 0.141642 11.4907 6.41751 15.6016
97 2 -0.011058 11.6585 4.39911 8.73178
275 4 1.2792 2.51746 12.6788 0.117914
47 4 1.22493 6.44906 13.9305 7.46417
55 4 1.14663 8.21009 8.6765 3.10281
254 2 0.116248 7.80768 9.60337 7.8711
74 1 -0.652335 7.68676 10.5691 2.81709
75 1 -0.668694 9.66854 9.23866 4.27077
330 1 -0.688423 7.10175 13.3505 1.81266
92 2 0.0140048 5.06589 13.1957 8.26855
332 2 0.155699 7.4756 12.639 0.92253
288 2 0.15737 3.38675 13.6775 2.16964
153 2 0.183716 6.8071 11.0286 3.34081
154 2 0.174417 7.29941 10.251 1.71866
155 2 0.131805 8.61147 11.3145 2.82292
156 2 0.181553 10.4773 8.46874 4.14746
157 2 0.161861 9.16631 9.01624 5.24385
158 2 0.179536 9.97596 10.2868 4.11451
206 3 -0.811699 2.1714 12.7464 6.51864
231 3 -0.815567 7.21871 7.84139 3.89573
232 3 -0.808686 8.89974 7.88403 1.88022
250 2 0.137218 10.0591 9.3481 8.09593
89 2 0.0394138 3.34587 10.2493 5.90966
274 4 1.33571 3.75662 10.5112 1.83781
273 4 1.2874 5.05053 8.31234 0.0476026
276 4 1.00323 4.88354 12.5347 4.18118
277 4 0.905055 6.76847 11.3977 6.08222
333 2 0.180015 6.00594 13.3932 1.88397
331 2 0.154533 7.64457 13.1307 2.76515
281 2 0.0124207 6.16687 13.4625 3.56062
282 2 0.033877 3.74334 13.7377 4.51353
283 2 -0.00173135 7.80965 10.8698 4.74491
284 2 0.00536751 6.43836 9.98633 6.96774
145 2 0.147813 3.78891 10.4346 7.75278
289 3 -0.832901 4.80087 9.56101 1.04546
4 2 0.13791 9.61695 11.9924 3.57703
291 3 -0.812315 4.42034 11.5871 3.01934
292 3 -0.831632 5.34022 11.8496 5.47253
293 3 -0.786869 7.38429 12.5444 6.9376
326 2 0.151743 8.80482 11.6727 0.246007
279 1 -0.68278 2.95468 14.1898 1.21962
259 2 0.162769 4.41299 11.6035 8.36023
290 3 -0.798251 2.69894 11.3479 1.01444
242 1 -0.645316 7.04159 9.32639 8.72616
56 4 1.12643 4.37266 11.2946 14.7783
76 1 -0.681592 5.11192 12.8767 14.0859
350 2 0.191334 4.91452 13.6326 14.8827
90 2 0.0168367 3.388 11.0617 10.4366
101 2 0.0263362 5.97457 10.7736 15.2566
345 2 0.184794 6.87725 10.0665 16.6453
343 2 0.0890431 8.01076 13.3642 15.3462
159 2 0.16145 4.41395 13.0193 13.1696
160 2 0.160205 6.23815 12.6757 13.8407
348 2 0.239643 2.67159 13.235 14.9545
233 3 -0.811244 3.62244 10.3306 13.7836
234 3 -0.802892 3.47667 11.8846 15.9058
235 4 1.14699 9.02399 11.3882 15.0382
236 4 1.08919 6.8844 7.91082 14.866
237 4 0.900978 8.35414 8.65813 9.95418
238 4 1.44631 7.4531 9.9805 12.602
239 4 0.695069 5.98948 12.2857 11.0215
327 2 0.108303 7.05743 11.8498 16.1778
241 1 -0.686572 10.2911 9.22735 9.18817
240 1 -0.634073 8.6582 7.53053 15.4962
244 1 -0.64663 4.93138 11.6354 9.41194
246 2 0.0432412 6.67846 11.8158 9.32811
344 2 0.183122 8.72684 13.3594 13.5016
249 2 0.146417 8.42126 8.54791 16.3356
251 2 0.12624 10.692 8.2167 9.39984
148 2 0.177324 10.1278 8.83933 13.3736
341 2 0.000141556 6.33869 13.9433 11.3866
146 2 0.00131605 3.62524 8.67186 8.8107
255 2 0.177345 6.19469 10.1165 8.93618
99 2 0.0216494 9.96347 6.8074 16.711
260 2 0.0121127 4.21541 12.7812 10.5851
261 2 0.138833 4.84412 10.5802 9.96512
262 3 -0.859504 5.75455 7.87207 15.9889
263 3 -0.824979 6.92134 8.82075 13.6439
264 3 -0.824422 8.05352 9.27955 11.3104
265 3 -0.803008 8.63704 10.7168 13.657
266 3 -0.800887 6.41243 11.1684 12.0986
338 2 -0.0012787 9.44597 11.014 9.22809
325 1 -0.673181 7.61402 10.8546 16.3567
247 2 0.173498 9.57481 7.88312 14.8286
86 2 0.00164631 4.56985 7.25504 10.0144
253 2 0.134157 6.58852 8.19053 8.63355
147 2 0.153696 11.3354 7.4998 14.193
ITEM: TIMESTEP
200
ITEM: NUMBER OF ATOMS
350
ITEM: BOX BOUNDS xy xz yz pp pp pp
-6.7108999999999996e+00 1.5238200000000001e+01 -6.2626999999999997e+00
-7.0295280000000027e-01 1.4502800000000001e+01 -4.4819999999999999e-01
0.0000000000000000e+00 1.7008500000000002e+01 -7.0295280000000027e-01
ITEM: ATOMS id type q x y z
185 3 -0.754997 5.34686 2.51017 0.0812831
201 3 -0.789596 4.18142 6.97495 6.83667
14 4 1.44798 0.224951 4.78152 1.8285
295 2 -0.0125355 -0.169914 0.464707 0.130679
26 4 0.965741 4.35276 1.49282 3.05818
183 3 -0.853998 6.90022 0.380832 6.26432
33 4 1.30538 1.48195 6.69707 3.81304
34 4 1.30987 5.32298 3.74137 6.98102
36 4 1.43511 4.19726 5.96841 5.30739
57 1 -0.662892 2.00036 0.323481 6.20173
62 1 -0.667439 2.93322 2.52395 3.81026
77 2 0.0236928 0.982176 2.74895 4.1763
191 3 -0.823112 4.44056 3.07887 8.17089
79 2 0.0968211 0.51535 6.08286 7.3138
82 2 0.0784859 4.84716 2.05469 1.48987
318 2 0.15644 1.26803 0.735522 1.15083
104 2 0.14747 2.81667 0.0773515 5.32585
105 2 0.191519 1.72503 1.37894 6.40027
117 2 0.173311 2.27068 1.61337 4.05615
118 2 0.172122 2.70617 3.04564 2.75425
119 2 0.283116 3.2889 3.24987 4.61062
164 3 -0.795405 -1.05112 3.77383 2.77387
165 3 -0.847377 1.17326 3.61635 1.10799
166 3 -0.853071 -0.548725 5.86804 0.860103
167 3 -0.785093 -1.93463 6.17353 6.00678
182 3 -0.807698 5.67487 1.49176 4.13887
180 3 -0.810032 3.60231 -0.000955232 2.91989
189 3 -0.868011 0.975076 5.48588 3.01191
320 2 0.198407 -1.07473 3.0065 8.08032
7 4 1.24873 -0.653012 2.47786 3.67561
194 3 -0.853597 2.9604 6.51097 4.34146
195 3 -0.779022 4.0297 4.40488 5.77767
200 3 -0.797658 1.59855 6.3858 8.37296
316 2 0.180866 2.87992 1.00988 0.129554
315 1 -0.687314 1.72974 0.975254 0.160324
8 4 1.28967 1.01874 2.12902 16.7178
11 4 1.36946 2.75079 -0.25432 13.525
13 4 1.21243 0.983597 1.38358 11.6631
18 4 1.2693 -0.426165 3.87621 12.8737
19 4 1.2649 -1.43139 6.44374 11.181
28 4 1.33556 4.46057 2.00733 9.29878