ITEM: TIMESTEP
0
ITEM: NUMBER OF ATOMS
350
ITEM: BOX BOUNDS xy xz yz pp pp pp
-6.7108999999999996e+00 1.5238200000000001e+01 -6.2626999999999997e+00
-6.4200000000000002e-01 1.4502800000000001e+01 -4.4819999999999999e-01
0.0000000000000000e+00 1.7008500000000002e+01 -6.4200000000000002e-01
ITEM: ATOMS id type q x y z
7 4 1.28836 -0.613891 2.39768 3.67907
180 3 -0.807455 3.83169 0.0145978 2.87426
14 4 1.43558 0.0810631 4.69233 1.84688
17 4 1.21829 -0.941408 6.56363 6.52682
26 4 0.999927 4.37479 1.51718 3.15112
34 4 1.38349 5.4331 3.60958 7.08283
33 4 1.2745 1.26155 6.34474 4.18446
318 2 0.159595 1.33296 0.727361 1.13839
36 4 1.42797 4.24562 5.95514 5.27223
57 1 -0.638988 1.21653 0.738919 7.06136
62 1 -0.647003 3.06138 2.50557 4.07068
77 2 0.0126519 1.05706 2.59349 4.16042
195 3 -0.83982 4.548 4.41164 5.98334
79 2 0.0512412 -0.323948 5.78579 7.90515
82 2 0.0853854 4.76376 2.13314 1.57529
16 4 1.29546 -0.584119 7.11592 0.0274686
103 2 0.17606 0.981519 1.7622 7.47538
321 2 0.221967 -1.32113 2.62436 7.84987
117 2 0.146594 2.49065 1.56392 4.51832
118 2 0.156988 2.55307 3.02338 3.06416
119 2 0.264685 3.65387 3.26702 4.85212
164 3 -0.813545 -1.18528 3.60392 2.78418
165 3 -0.857294 1.10947 3.75905 0.990117
166 3 -0.85537 -0.729321 5.91421 1.05445
167 3 -0.797249 -2.33934 5.8875 6.30246
182 3 -0.769818 5.69072 1.59522 4.13864
104 2 0.250801 0.292232 0.014654 7.02672
189 3 -0.823263 0.97841 5.26405 3.01486
190 3 -0.841723 0.132277 6.36524 5.33733
191 3 -0.833131 4.59387 2.73775 8.06051
194 3 -0.840883 2.78437 6.15365 4.69756
272 2 0.17203 5.00173 5.18587 0.30794
105 2 0.112389 1.84035 0.711559 5.95966
315 1 -0.632563 1.77671 1.04399 0.123383
185 3 -0.777196 5.38562 2.6676 0.244188
183 3 -0.822117 6.97323 0.237464 6.1094
200 3 -0.835447 2.36227 6.8538 8.4218
295 2 -0.0206986 -0.0544241 0.250558 0.204259
316 2 0.194114 2.9498 1.12722 0.0745094
8 4 1.32405 1.05122 2.29793 16.7247
11 4 1.34225 2.96973 -0.0775387 13.4447
13 4 1.26949 1.00893 1.5852 11.6715
18 4 1.23174 -0.489547 3.88911 13.033
19 4 1.26138 -1.13721 6.2423 10.9021
28 4 1.35073 4.25744 1.80553 9.37629
31 4 1.20549 3.90203 2.15145 15.4696
35 4 1.13915 1.6864 5.93587 9.63164
322 2 0.136234 -0.0723607 2.85052 9.19954
63 1 -0.688497 3.33334 3.17663 10.5707
64 1 -0.676781 4.78669 3.41546 14.5566
67 1 -0.671087 2.15636 5.40673 14.3989
83 2 0.0276474 1.84162 2.01122 10.2176
198 3 -0.779242 2.45391 6.17294 11.1188
85 2 0.0368556 0.320243 4.68353 14.3409
317 2 0.159241 0.838495 -0.174264 16.0466
319 1 -0.66524 -1.1859 2.88958 8.94153
120 2 0.156949 3.98169 2.78752 11.4784
121 2 0.173936 2.26356 3.50674 10.9748
122 2 0.156024 3.81814 4.04896 10.0874
59 1 -0.667256 -2.64172 5.65917 9.81984
124 2 0.163066 4.24897 3.45669 13.532
324 2 0.155284 0.517983 0.0460698 14.5504
132 2 0.251568 2.11864 4.3931 14.9441
133 2 0.178221 3.24682 5.69918 14.189
134 2 0.202293 1.59528 5.45146 13.4267
161 3 -0.849242 -0.395939 2.1138 15.8281
162 3 -0.804182 -0.202031 0.760136 10.9887
163 3 -0.87847 1.9716 0.713225 12.6004
193 3 -0.805267 0.0535653 6.23042 9.68544
169 3 -0.880545 0.519035 2.902 12.2806
170 3 -0.815392 -0.933435 5.075 12.0636
84 2 -0.0133155 2.06776 4.28468 9.44407
184 3 -0.80602 3.6878 0.883086 14.5687
110 2 0.171358 -2.0921 5.54663 8.76915
186 3 -0.82301 2.30415 2.84347 15.9371
187 3 -0.790668 5.62921 1.48063 10.1236
123 2 0.155924 4.85403 4.46248 15.0058
181 3 -0.800305 3.25437 0.627601 8.953
336 2 0.0180343 -2.48168 6.18992 16.1704
168 3 -0.800131 -1.82386 3.12129 13.6658
320 2 0.166216 -1.69964 3.96876 9.23604
197 3 -0.816729 0.0924183 6.46699 15.9251
1 4 0.992414 -3.33304 13.3029 2.13934
2 1 -0.695761 -4.79067 12.621 3.18567
3 2 0.0410417 -3.11976 11.6511 2.80148
5 2 0.161365 -4.57273 12.4547 4.26015
6 3 -0.813944 -3.53115 13.3062 0.515693
290 3 -0.797252 2.35889 11.3049 1.2405
20 4 1.21386 -1.74544 9.8252 1.24655
22 4 1.07869 -2.01765 9.38239 7.67165
138 2 0.201336 -0.310959 13.6475 3.50015
39 4 1.0991 -0.666814 11.5156 4.00281
40 4 1.05272 2.99867 7.78615 7.32229
42 4 0.959219 1.97889 11.1871 5.71221
60 1 -0.652445 -3.42083 9.07784 1.44456
61 1 -0.698385 -3.36778 9.98377 6.48606
69 1 -0.65741 0.193382 12.7808 2.87385
70 1 -0.683274 -2.14622 12.3946 5.02939
87 2 0.0217122 1.17059 7.90373 3.50044
88 2 -0.0222591 1.79072 8.4535 6.29277
100 2 -0.0318892 2.25352 10.3531 7.14954
113 2 0.170109 -4.09588 9.39099 2.48512
112 2 0.15577 -3.84134 9.3219 0.359178
111 2 0.175892 -3.10692 7.96473 1.51135
115 2 0.170288 -2.71423 10.0751 5.51689
116 2 0.187322 -3.63891 10.9641 6.95238
78 2 0.0133375 -2.50225 13.653 6.53692
139 2 0.229783 -0.0691979 12.7696 1.78445
140 2 0.20862 1.25986 12.6963 3.0283
141 2 0.19128 -1.93842 12.0074 6.08497
142 2 0.159539 -3.21659 12.1424 4.71705
143 2 0.198989 -1.81914 13.4811 4.96878
171 3 -0.782921 -0.688873 8.46 0.780055
202 3 -0.795933 -1.14371 10.5321 8.34095
173 3 -0.82055 -1.29245 8.16474 6.98545
172 3 -0.808851 -1.94747 10.8833 0.0730878
337 2 0.0104484 -3.28639 8.38056 5.32092
199 3 -0.770215 -1.20859 10.5807 2.85001
9 4 1.01215 -3.66717 14.1878 7.78266
203 3 -0.814416 0.278739 12.7866 7.91667
205 3 -0.781707 0.586317 10.8476 5.06617
334 2 0.153387 -5.31148 13.7872 3.05127
278 1 -0.678755 2.82067 9.08327 3.32943
285 2 0.170997 2.63997 8.29678 2.51641
286 2 0.172708 1.89991 9.48244 3.93437
174 3 -0.791334 -4.47969 12.758 8.37054
114 2 0.170236 -4.24204 9.26376 6.41138
80 2 0.0104244 -3.17924 8.7634 8.88758
23 4 0.992596 -4.7951 12.2938 9.80992
24 4 1.0642 -2.4481 9.2423 11.7955
25 4 1.48254 -2.1877 12.2061 11.4524
209 3 -0.827676 0.548104 12.6445 16.7796
37 4 1.34617 1.59996 6.98541 15.3374
41 4 1.58481 -0.182469 11.7977 9.10927
43 4 1.50307 2.51438 9.1309 13.3783
44 4 1.34782 -0.327909 12.31 15.4485
45 4 1.35068 1.9603 11.1951 11.1258
72 1 -0.683111 -3.51275 8.74776 13.1902
73 1 -0.662164 -0.106821 10.398 15.1232
213 3 -0.834399 1.77625 9.98799 12.04
339 2 0.0505368 -4.25087 13.5025 14.4912
21 4 1.36463 -3.18108 11.7393 16.4105
147 2 0.172818 -3.15293 7.68753 13.4339
38 4 1.03289 3.66166 7.32596 11.2664
149 2 0.218757 -3.34379 9.50266 14.0343
150 2 0.226778 0.642594 10.0043 15.7912
151 2 0.235948 0.378277 10.5858 14.0296
152 2 0.234775 -1.05729 9.85219 15.1682
175 3 -0.769373 -1.70435 7.83103 11.3296
176 3 -0.813639 -4.34823 11.3593 15.2341
177 3 -0.866197 -3.58262 11.9689 10.7125
178 3 -0.76813 -1.69467 10.6017 12.1366
179 3 -0.800193 -2.38583 13.4938 12.5213
196 3 -0.827602 2.79068 7.1562 16.4783
81 2 0.0639582 -3.90919 9.62247 10.533
323 1 -0.67801 -6.24748 13.5675 14.427
204 3 -0.79961 -1.0647 12.5183 10.183
207 3 -0.816866 1.51934 8.18262 14.2223
102 2 0.0191553 -5.71049 13.4265 10.5928
210 3 -0.785034 0.474337 13.0041 14.0147
211 3 -0.77896 -1.90863 12.6125 15.629
212 3 -0.876607 1.13272 11.2408 9.80191
146 2 0.161936 2.92987 9.82633 8.84606
208 3 -0.808144 3.54953 8.13188 12.6385
15 4 1.24115 11.5811 6.66585 5.44136
46 4 1.28938 9.72425 2.29302 3.64108
49 4 1.52852 12.229 1.86903 5.39869
50 4 1.26076 11.0281 5.04508 2.86391
51 4 1.27085 7.05295 6.39868 4.38824
52 4 0.949059 9.48489 6.81972 0.957856
53 4 1.33405 10.7239 3.45279 7.5326
54 4 1.28711 9.03282 6.04823 6.74561
66 1 -0.670348 6.19447 5.02215 8.25776
91 2 0.026636 9.52353 1.69251 2.05476
94 2 0.101379 12.575 4.31271 2.6803
95 2 -0.00895391 7.65755 5.25667 3.26657
29 4 1.50157 7.08456 1.67209 5.29016
280 2 0.019414 5.27141 7.15192 1.15457
268 1 -0.681147 6.0999 5.44741 0.573577
129 2 0.205653 6.28845 5.84526 7.46827
192 3 -0.801094 6.70097 2.87673 6.32042
215 3 -0.869289 8.48832 1.79415 4.45728
219 3 -0.815961 13.7474 2.34673 4.97509
220 3 -0.849475 11.1162 1.76439 4.09389
221 3 -0.810617 12.2272 0.276312 6.11749
222 3 -0.826336 9.97862 3.92213 3.39682
223 3 -0.846056 11.1833 6.11282 4.04416
224 3 -0.821664 5.44069 6.2321 4.13155
225 3 -0.857568 10.6341 5.7732 1.51704
346 2 0.212433 10.0662 0.201369 0.957247
227 3 -0.819496 11.803 2.95385 6.4983
228 3 -0.850802 10.2612 6.95578 6.36738
229 3 -0.850189 7.81489 6.10075 5.75805
230 3 -0.807411 9.64227 4.54959 6.97324
271 2 0.117026 6.29813 5.54974 1.82839
294 4 1.01839 13.9038 0.548615 1.40075
347 2 0.176253 8.29796 0.546366 1.61769
226 3 -0.887696 10.0376 2.24296 8.20206
297 3 -0.816839 12.5626 1.18303 0.780599
296 3 -0.84599 14.5738 1.04038 2.80475
340 2 -0.016899 12.3782 3.78907 0.832055
267 4 1.03594 6.63569 3.54387 0.608286
96 2 -0.000598042 8.0042 5.99954 0.629976
269 2 -0.0265114 6.94682 3.07182 2.15079
98 2 -0.0188545 8.44556 6.6212 8.26617
217 3 -0.878327 8.92072 -0.214318 7.96212
216 3 -0.850232 13.2758 0.295819 8.47399
270 2 0.162087 6.38014 6.34738 0.0234039
10 4 1.01311 13.6185 1.19021 9.75967
342 2 0.150318 11.8805 6.60526 9.92886
32 4 1.33314 7.03228 1.55535 11.0515
48 4 1.35978 9.27913 1.04991 8.82849
58 1 -0.677505 11.9502 1.06982 10.9525
65 1 -0.670497 7.00553 3.3511 11.7424
68 1 -0.662477 5.4009 6.42512 11.4178
93 2 0.0287574 10.6794 0.422642 9.5654
188 3 -0.817324 7.20632 0.527857 12.3254
12 4 1.196 13.62 1.89838 14.7917
107 2 0.141939 11.574 2.03394 10.39
108 2 0.168302 12.5113 1.37969 11.8992
126 2 0.161201 7.88321 3.83616 11.2431
127 2 0.162806 7.03153 3.39707 12.8831
109 2 0.149395 12.3537 4.76336 10.4511
328 1 -0.665721 9.35607 -0.171764 13.8351
131 2 0.163933 5.4368 5.20543 9.05777
135 2 0.160285 6.56462 6.39797 10.9447
106 2 0.136756 11.0472 0.487319 11.2856
128 2 0.152136 5.97233 3.69532 11.2845
313 3 -0.835267 7.47182 2.7033 16.7583
218 3 -0.840353 8.25152 1.4219 9.9485
243 1 -0.663116 8.43516 6.22729 10.1642
245 2 0.0467963 6.59882 6.29173 14.1898
248 2 0.156977 8.18597 5.7221 15.7792
256 2 0.16481 7.58274 5.74609 9.49131
257 2 0.149357 8.21622 6.13064 11.2786
258 2 0.125002 9.50607 5.84279 9.91224
97 2 -0.00162344 11.5938 4.31839 8.74346
299 4 1.25269 8.72613 2.28018 15.9142
300 4 0.826745 9.84792 4.50767 13.9669
301 1 -0.639564 10.7938 3.57905 12.6264
302 1 -0.663301 11.3335 5.54526 14.954
303 2 0.0198595 8.14105 1.12063 14.8882
304 2 -0.00124121 8.66889 5.74093 13.6225
305 2 0.19564 11.6772 4.1245 12.2581
306 2 0.110531 9.83318 3.69135 11.8715
307 2 0.202904 11.0092 2.46111 12.9691
309 2 0.217038 12.0972 4.95839 14.3396
137 2 0.176387 5.48067 6.67796 12.5528
310 2 0.163775 11.0659 5.26364 16.0824
311 3 -0.809148 12.2305 1.84181 15.5493
308 2 0.145069 11.1495 6.60584 14.7205
335 2 -0.00564728 13.799 0.311173 14.0192
314 3 -0.801713 9.19645 3.54845 15.0032
125 2 0.177218 5.82711 3.1092 14.2881
329 2 0.167911 9.33294 0.89644 13.4784
312 3 -0.851753 9.88422 1.68842 16.79
240 1 -0.656678 7.97763 6.64351 15.1922
349 2 0.212208 9.25087 -0.358331 14.9492
130 2 0.168987 7.20101 4.46983 8.58309
136 2 0.150112 4.94938 5.4026 11.222
298 4 1.24522 11.4591 1.78453 16.9809
156 2 0.158758 10.8797 8.92889 3.94758
47 4 1.20077 6.54444 13.9386 7.30148
55 4 1.1409 8.49985 8.75929 3.02244
332 2 0.150903 7.4084 12.6838 1.04273
74 1 -0.666291 7.61186 10.4271 2.60095
75 1 -0.665475 9.99786 9.60845 4.1141
158 2 0.163309 10.1497 10.6781 3.75627
71 1 -0.675318 3.69398 9.36083 8.11207
288 2 0.138722 3.1756 13.9029 2.59695
144 2 0.119469 3.90969 9.98702 7.17446
153 2 0.192065 6.6578 10.36 3.26726
154 2 0.181127 7.39016 10.1661 1.49814
155 2 0.163802 7.97681 11.4904 2.67966
4 2 0.149189 9.94183 11.7751 2.66097
157 2 0.162589 9.75785 9.55609 5.23881
273 4 1.27935 4.62552 8.32964 0.0699158
27 4 1.45871 1.44803 13.7116 7.04579
231 3 -0.820133 7.52634 7.83413 3.83904
232 3 -0.842903 9.0282 8.09387 1.66481
331 2 0.155929 7.24041 13.3149 2.94514
293 3 -0.752048 7.91784 12.8997 6.55877
274 4 1.31959 3.55352 10.4582 2.03454
275 4 1.30432 2.34565 12.796 0.451253
276 4 1.00809 4.88172 12.5222 4.05389
277 4 0.901051 7.2425 11.7239 5.69812
333 2 0.187115 5.76678 13.3935 1.63096
206 3 -0.808079 2.33378 12.6767 5.6796
281 2 0.0194314 5.61536 13.8726 3.31217
282 2 0.106341 3.51597 13.3101 4.68257
283 2 0.00235567 8.18092 11.183 4.3314
284 2 -0.0341279 7.26209 10.2802 6.5141
327 2 0.16435 9.60117 11.0548 0.204119
289 3 -0.857083 4.39014 9.58175 1.00112
330 1 -0.663468 6.84237 13.2939 1.81947
291 3 -0.858336 4.27028 11.5017 3.04842
292 3 -0.853441 5.76509 11.9365 5.16853
279 1 -0.683708 2.88707 14.3103 1.58365
92 2 0.00167655 5.30985 12.9936 8.1275
201 3 -0.773783 4.30258 7.24952 6.51631
287 2 0.183169 3.71621 8.80548 3.93747
89 2 0.00677078 3.15986 10.3112 4.80424
254 2 0.151216 6.67223 8.21466 8.31574
247 2 0.144633 8.84316 7.05472 14.6312
56 4 1.14093 3.94262 11.1296 15.4835
76 1 -0.686749 5.62389 11.9436 15.0662
145 2 0.165283 4.81303 9.07867 8.6431
90 2 0.0163898 3.63309 10.9531 10.6308
101 2 0.0359698 5.22663 10.4951 16.412
99 2 0.00142965 9.51661 6.82187 16.3895
86 2 0.00425695 3.94771 8.33942 9.79551
159 2 0.179276 5.42115 13.0272 15.2157
160 2 0.208899 5.66793 11.6154 13.9451
344 2 0.175097 8.81134 13.3955 13.3127
233 3 -0.845048 3.2735 10.2477 14.3825
234 3 -0.831606 3.06963 12.166 16.2573
348 2 0.15752 3.88272 13.7248 13.2986
236 4 1.04357 6.46881 8.0918 14.9865
237 4 0.862022 8.47643 8.3885 10.1611
238 4 1.42724 7.64334 10.0101 12.7882
239 4 0.698702 6.25874 12.439 11.1461
148 2 0.182354 10.6845 8.79158 12.7526
241 1 -0.630226 10.1804 9.10194 9.3155
242 1 -0.650039 6.6272 8.63715 9.40221
244 1 -0.645556 5.01896 11.9358 9.70603
246 2 0.00338352 6.82287 12.2697 9.36915
251 2 0.128304 10.32 8.02516 8.92784
249 2 0.0481752 7.97182 8.15574 16.0818
343 2 0.120778 8.04631 13.4909 15.1405
250 2 0.0173278 8.4559 9.70006 8.85093
253 2 0.167809 6.10346 7.83737 10.2262
235 4 1.14952 9.32047 11.4821 14.9924
255 2 0.155106 6.33631 9.72509 9.5099
259 2 0.159189 4.34408 12.2074 8.82684
260 2 0.0405657 4.41316 12.622 11.3384
261 2 0.156265 5.19799 10.8425 9.64804
262 3 -0.873828 5.32217 7.94618 16.0481
263 3 -0.796885 6.6605 9.14964 13.7922
264 3 -0.781486 8.41573 9.01693 11.587
265 3 -0.824631 8.666 10.7386 13.8187
266 3 -0.791129 6.74616 11.1883 12.0316
30 4 1.41895 1.44547 13.6346 12.9335
325 1 -0.672868 8.34805 10.9109 16.5517
326 2 0.162062 7.4863 10.2638 16.5873
350 2 0.162264 6.65314 11.5626 15.6734
338 2 -0.013274 9.40176 10.9356 9.776
345 2 0.102685 8.16626 12.08 16.8459
214 3 -0.864201 2.08619 12.6243 11.9004
341 2 -0.00953622 6.57435 14.0117 11.7914
252 2 0.144719 10.0203 9.84646 8.51417
ITEM: TIMESTEP
100
ITEM: NUMBER OF ATOMS
350
ITEM: BOX BOUNDS xy xz yz pp pp pp
-6.7108999999999996e+00 1.5238200000000001e+01 -6.2626999999999997e+00
-6.4200000000000002e-01 1.4502800000000001e+01 -4.4819999999999999e-01
0.0000000000000000e+00 1.6974483000000003e+01 -6.4200000000000002e-01
ITEM: ATOMS id type q x y z
7 4 1.29308 -0.651726 2.44713 3.53612
180 3 -0.846775 3.78101 0.0998967 2.85687
14 4 1.47175 0.0648714 4.76946 1.85192
17 4 1.23195 -0.847155 6.57679 6.56696
26 4 1.03678 4.38472 1.49082 3.19149
34 4 1.40439 5.59319 3.65007 7.05104
33 4 1.29207 1.25571 6.44994 4.27131
318 2 0.172732 1.35598 0.958419 1.19654
36 4 1.45293 4.30879 5.90873 5.24926
57 1 -0.652264 1.23177 0.464227 6.72034
62 1 -0.67863 3.00432 2.56168 4.00535
77 2 0.0275174 1.06302 2.70541 3.93017
195 3 -0.796904 4.45731 4.29412 5.90333
79 2 0.0666396 -0.446291 5.69797 7.94851
82 2 0.0667988 4.59541 2.26603 1.68236
316 2 0.200458 2.80744 1.20757 0.072241
103 2 0.185427 0.941634 1.51068 6.97946
321 2 0.183812 -1.42827 2.73662 8.0081
117 2 0.160493 2.42831 1.72647 4.4727
118 2 0.175584 2.67684 3.06065 3.0702
119 2 0.284971 3.53248 3.33778 4.77663
164 3 -0.811042 -1.28532 3.71857 2.69815
165 3 -0.871983 0.95824 3.62453 1.17621
166 3 -0.856769 -0.432941 5.80256 0.769883
167 3 -0.811852 -2.30709 6.09221 6.11771
182 3 -0.805472 5.72749 1.58587 4.11673
201 3 -0.803981 4.21622 6.93491 6.58444
189 3 -0.838578 0.762783 5.53712 3.13614
190 3 -0.855197 0.321031 6.45696 5.55513
191 3 -0.811042 4.79742 2.91755 8.15547
194 3 -0.813049 2.81258 5.96717 4.64235
272 2 0.164588 5.09344 5.17913 0.479926
105 2 0.100454 1.99289 0.485404 5.63751
315 1 -0.665489 1.70356 1.14628 0.138287
185 3 -0.73551 5.20702 2.59175 0.189719
183 3 -0.831836 6.89677 0.150757 6.05412
104 2 0.247029 0.349416 -0.191996 6.63215
295 2 -0.00279163 -0.150675 0.498031 0.369889
9 4 1.01443 2.63868 -0.278314 7.68249
8 4 1.31112 0.828202 2.36052 16.7242
11 4 1.32786 2.94087 0.0744436 13.4303
13 4 1.27261 0.870524 1.50456 11.6031
18 4 1.26586 -0.448268 3.93966 12.9766
19 4 1.25319 -1.15413 6.22495 10.8251
28 4 1.34237 4.26631 1.97878 9.42665
31 4 1.18528 3.88213 2.31797 15.4828
35 4 1.20789 1.72024 5.84711 9.61696
322 2 0.143413 -0.123165 3.05047 9.40909
63 1 -0.687555 3.21496 3.31159 10.5238
64 1 -0.680002 4.97284 3.57831 14.6733
67 1 -0.674122 2.30644 5.42504 14.2027
83 2 0.0161074 1.71053 2.09799 10.2063
198 3 -0.791914 2.55033 6.31223 10.9991
85 2 0.0152418 0.530753 4.56005 14.2467
317 2 0.181785 0.814478 -0.128788 16.2463
319 1 -0.678911 -1.2453 2.91608 9.1848
120 2 0.160961 3.87393 2.9911 11.4578
121 2 0.160834 2.20765 3.62823 10.8779
122 2 0.14519 3.76655 4.18982 9.91726
59 1 -0.67137 -2.8193 5.61115 10.0324
124 2 0.185302 5.00537 3.20475 13.5801
324 2 0.164338 0.593471 0.0761775 14.4676
132 2 0.235978 2.17749 4.48111 14.8936
133 2 0.197785 3.37168 5.61847 14.0183
134 2 0.187334 1.76496 5.33387 13.2095
161 3 -0.872207 -0.430547 2.08283 15.7452
162 3 -0.809669 -0.260819 0.558245 10.9917
163 3 -0.861419 1.87259 0.719485 12.5026
193 3 -0.822359 0.0755543 5.97402 9.59116
169 3 -0.868162 0.356928 2.78464 12.3788
170 3 -0.83262 -0.887161 5.05645 11.9323
84 2 -0.00422579 2.04698 4.1773 9.23906
184 3 -0.792223 3.73308 1.20865 14.3252
110 2 0.146137 -2.44836 5.59372 8.94136
186 3 -0.78698 2.2431 2.96248 15.9324
187 3 -0.781578 5.60247 1.59686 10.2412
123 2 0.166559 4.64812 4.61548 14.7658
181 3 -0.769781 3.29188 0.837048 8.85824
336 2 -0.0052736 -2.35574 6.05047 15.8231
168 3 -0.826169 -1.63546 3.0705 13.7234
320 2 0.180278 -1.76929 3.86544 9.53206
197 3 -0.840874 0.25757 6.50531 16.0801
16 4 1.31049 -1.04399 6.46099 16.8768
200 3 -0.854271 2.33693 6.71981 8.51192
1 4 1.02747 -3.29564 13.3354 2.20783
2 1 -0.676195 -4.90152 12.6852 3.08121
3 2 0.0379575 -3.12412 11.8267 3.04982
5 2 0.140652 -4.93312 12.2173 4.17131
6 3 -0.832104 -3.47936 13.1451 0.599992
290 3 -0.768164 2.19432 11.3071 1.39126
20 4 1.26621 -1.74551 9.87525 1.25512
22 4 1.09197 -1.86025 9.38376 7.7034
138 2 0.227475 -0.179264 13.8988 3.68488
39 4 1.1274 -0.5968 11.4564 3.95417
40 4 1.07315 2.99845 7.61559 7.40702
42 4 0.950336 1.87187 10.9576 5.68375
60 1 -0.643752 -3.47782 9.16606 1.37077
61 1 -0.700913 -3.3891 9.87132 6.70245
69 1 -0.663811 0.152957 13.05 3.07034
70 1 -0.672519 -1.76954 12.3371 5.21139
87 2 0.0098311 1.1663 8.01525 3.63335
88 2 -0.0232798 1.87052 8.29258 6.32448
100 2 -0.0174891 2.05682 9.99641 7.05262
113 2 0.20624 -4.1202 9.44088 2.3172
112 2 0.178421 -3.99236 9.49569 0.393071
111 2 0.184941 -3.15514 8.05869 1.46387
115 2 0.145719 -2.66356 10.1035 5.67368
116 2 0.175247 -3.62272 10.8536 7.24604
78 2 0.0226219 -2.38522 13.5667 6.59324
139 2 0.223311 -0.019597 13.3281 1.98978
140 2 0.168049 1.33429 12.8201 3.25547
141 2 0.223471 -1.36494 12.1167 6.31787
142 2 0.141708 -2.82439 11.9182 5.08703
143 2 0.189494 -1.70601 13.4426 4.9141
171 3 -0.810092 -0.946328 8.44597 0.601413
202 3 -0.782465 -1.05629 10.5576 8.38148
173 3 -0.827047 -1.12495 8.22071 7.01734
172 3 -0.850552 -2.05452 11.0748 0.251145
337 2 0.000697114 -3.01418 8.56035 5.28832
199 3 -0.794242 -1.30057 10.4919 2.87223
27 4 1.51806 1.3773 13.6592 7.03923
203 3 -0.844119 0.284337 12.8595 7.94464
205 3 -0.814529 0.502041 10.79 5.02036
334 2 0.159223 -5.32484 13.8583 3.18574
278 1 -0.687014 2.79317 9.04914 3.07636
285 2 0.172829 2.5342 8.18595 2.45627
286 2 0.174451 1.86078 9.66774 3.30978
174 3 -0.791342 -4.30775 12.9319 8.42526
287 2 0.15747 3.60176 8.88553 3.88728
80 2 0.0127976 -3.18225 8.77392 8.66988
23 4 0.978382 -4.74363 12.4075 9.85887
24 4 1.04821 -2.35017 9.19387 11.8913
25 4 1.47663 -2.11371 12.1471 11.3937
209 3 -0.782384 0.448243 12.5944 16.8508
37 4 1.43849 1.6506 6.89072 15.363
41 4 1.53195 -0.0711212 11.8996 9.16571
43 4 1.47149 2.47701 9.11412 13.3013
44 4 1.32762 -0.51596 12.3234 15.312
45 4 1.31151 1.97186 11.122 11.1552
72 1 -0.685324 -3.61054 8.85387 13.2336
73 1 -0.679799 -0.415081 10.4319 14.9808
213 3 -0.822903 1.61268 9.91784 12.1804
339 2 0.0363617 -4.24823 13.6592 14.5491
21 4 1.43906 -3.23117 11.6267 16.501
147 2 0.141155 -3.56891 7.68775 13.2206
38 4 1.01937 3.78555 7.34666 11.1862
149 2 0.200637 -3.22316 9.30775 14.2048
150 2 0.23157 0.314665 9.96703 15.6547
151 2 0.251504 -0.0663745 10.4863 13.8843
152 2 0.202632 -1.39999 9.97721 14.9771
175 3 -0.785694 -1.57414 7.76925 11.3868
176 3 -0.829255 -4.37657 11.1051 15.3994
177 3 -0.853021 -3.48421 12.0331 10.6674
178 3 -0.817701 -1.69313 10.6487 11.9781
179 3 -0.745631 -2.47655 13.5139 12.6149
196 3 -0.859739 2.82739 6.97897 16.3517
81 2 0.0587418 -3.88004 9.35425 10.9016
323 1 -0.676073 -6.20098 13.5857 14.5634
204 3 -0.779239 -0.885803 12.7268 10.2476
207 3 -0.801929 1.54514 8.14862 14.4404
102 2 0.0689632 -5.71523 13.598 10.5921
210 3 -0.76332 0.44508 13.0901 14.1002
211 3 -0.776933 -2.00154 12.6711 15.4481
212 3 -0.861909 1.26827 11.0932 9.74994
146 2 0.177587 2.98647 9.75813 8.81954
15 4 1.27034 11.6793 6.93064 5.49403
46 4 1.25606 9.72904 2.37535 3.72996
49 4 1.5065 12.1309 1.81787 5.45215
50 4 1.23632 11.0461 5.02848 3.09045
51 4 1.25346 7.22941 6.36273 4.39113
52 4 0.922027 9.68747 6.63923 1.12018
53 4 1.30372 10.5576 3.46826 7.53652
54 4 1.29676 9.05038 6.11292 6.71443
66 1 -0.670764 6.38558 4.95688 8.27623
91 2 0.0317999 9.48078 1.60737 2.20885
94 2 0.114534 12.3867 3.9339 3.0318
95 2 0.0315219 8.04164 5.16727 3.42811
29 4 1.518 7.02082 1.61731 5.30191
280 2 0.0125075 5.06163 6.93826 0.997152
268 1 -0.659606 6.22616 5.36563 0.654888
129 2 0.208201 6.01543 5.95442 7.85786
192 3 -0.810078 6.70825 2.74815 6.44603
215 3 -0.85439 8.39156 1.98987 4.45165
219 3 -0.774081 13.9039 2.20945 4.94839
220 3 -0.885648 11.1286 1.75586 4.14895
221 3 -0.852726 12.0535 0.496009 6.31704
222 3 -0.824948 9.68591 4.06822 3.42736
223 3 -0.825458 11.4043 6.20557 4.15092
224 3 -0.838321 5.60352 6.14108 4.29589
225 3 -0.847362 10.8311 5.60112 1.64163
270 2 0.142613 6.66446 6.32528 0.0884542
227 3 -0.817328 11.6162 3.05767 6.35293
130 2 0.20452 7.50895 4.73538 8.12464
229 3 -0.849398 7.72072 6.16665 5.89912
230 3 -0.832448 9.53893 4.62168 7.09113
271 2 0.101206 6.46345 5.41651 1.86387
294 4 1.04109 13.8139 0.486088 1.51193
347 2 0.174813 8.31149 0.607834 1.33052
226 3 -0.843203 9.83127 2.23735 8.13168
297 3 -0.80576 12.6528 1.44659 0.817332
296 3 -0.854736 14.4946 1.07615 2.77299
340 2 0.0139826 12.1364 4.06067 0.457308
267 4 0.940653 6.62883 3.45737 0.782385
96 2 -0.0107356 8.12951 5.91142 0.830864
269 2 -0.00870147 7.03138 2.86192 2.30605
98 2 -0.0108175 8.62128 6.8063 8.26958
217 3 -0.840364 8.79552 -0.0740682 7.87301
346 2 0.179149 10.0433 0.00855498 1.51977
10 4 1.00812 13.575 1.1924 9.8434
342 2 0.154807 11.7772 6.45451 10.319
32 4 1.36955 7.13562 1.61097 10.8831
48 4 1.33965 9.45546 0.93742 8.87104
58 1 -0.687081 11.9537 1.07107 11.1134
65 1 -0.665955 7.34043 3.38825 11.6005
68 1 -0.665802 5.47291 6.31896 11.3655
93 2 -0.0288593 10.8754 0.342364 9.63246
188 3 -0.805887 7.18612 0.569243 12.1351
12 4 1.25304 13.6098 1.86183 14.7431
107 2 0.140356 11.5313 2.01812 10.6962
108 2 0.169466 12.5336 1.40057 12.088
126 2 0.162958 7.96333 3.98762 10.7811
127 2 0.176668 7.81619 3.3096 12.5702
109 2 0.142986 12.2021 4.51354 10.5104
328 1 -0.670372 9.35533 -0.322081 13.7268
131 2 0.172856 5.99052 4.65598 9.30608
135 2 0.171559 6.58914 6.31247 11.0053
106 2 0.11714 11.1138 0.310919 11.35
128 2 0.148221 6.17892 3.71342 11.6426
313 3 -0.810701 7.42698 2.55502 16.8458
218 3 -0.834816 8.3792 1.375 9.89755
243 1 -0.683555 8.45605 6.4384 10.1978
245 2 0.0437563 7.04428 6.29987 14.2011
248 2 0.12972 8.40827 5.83584 15.8819
256 2 0.165872 7.62759 5.97464 9.48135
257 2 0.155837 8.22688 6.26012 11.2719
258 2 0.133732 9.47507 6.06636 9.96044
97 2 -0.0165529 11.4856 4.31955 8.78926
299 4 1.20121 8.68221 2.13387 15.922
300 4 0.820851 9.78252 4.50447 13.8817
301 1 -0.678188 10.5437 3.67642 12.3801
302 1 -0.66871 11.2903 5.52377 14.8217
303 2 0.0146829 8.21628 0.799729 15.016
304 2 -0.00345529 8.56566 5.70978 13.5695
305 2 0.193042 11.6228 3.99744 12.3121
306 2 0.133604 9.85928 4.07003 11.5523
307 2 0.191306 10.4036 2.59165 12.486
309 2 0.197114 12.0602 4.74039 14.6118
216 3 -0.832142 13.4883 0.259182 8.5462
310 2 0.154474 11.2887 5.72156 15.8731
311 3 -0.801537 12.1544 1.61909 15.4563
308 2 0.140413 11.3685 6.41055 14.0951
335 2 0.00727588 14.0033 0.431461 13.9298
314 3 -0.771728 9.26089 3.40152 14.9096
125 2 0.199934 5.94359 3.36438 15.24
329 2 0.156636 9.31744 0.841363 13.5741
312 3 -0.837534 9.84648 1.69996 16.8605
298 4 1.25627 11.4201 1.85635 16.9264
137 2 0.170953 5.46637 6.41689 12.5312
136 2 0.144807 4.92983 5.36425 10.9679
99 2 0.00586176 9.70915 6.60503 16.5561
341 2 -0.00568212 12.6852 -0.442759 12.1055
156 2 0.169741 11.0089 8.9758 4.0737
47 4 1.23911 6.64447 13.9884 7.25263
55 4 1.08649 8.5302 8.88015 3.12152
332 2 0.145816 7.50613 12.6312 1.26523
74 1 -0.689359 7.76517 10.6238 2.60488
75 1 -0.654614 10.1084 9.61578 4.06961
158 2 0.156198 10.2736 10.7335 3.70445
71 1 -0.674937 3.6871 9.27515 8.07257
288 2 0.140424 2.54946 13.9828 2.82474
144 2 0.125212 3.87968 9.9253 7.13664
153 2 0.209627 6.89289 10.9507 3.20232
154 2 0.161456 7.2472 10.1622 1.65401
155 2 0.162627 8.4527 11.4118 2.27737
4 2 0.1411 9.70267 12.0966 2.30244
157 2 0.137347 9.54338 9.56499 5.10662
114 2 0.170148 10.9059 9.28621 6.41221
228 3 -0.867338 10.2578 7.01704 6.28679
231 3 -0.816298 7.61678 7.87354 3.89263
232 3 -0.789927 9.31156 7.96435 1.91123
331 2 0.170823 7.05655 13.1905 3.07522
293 3 -0.806999 7.55355 12.905 6.54573
274 4 1.29486 3.50186 10.4736 1.85341
275 4 1.24969 2.28329 12.9121 0.46922
276 4 1.00735 4.76949 12.4903 3.95675
277 4 0.89378 7.15797 11.566 5.59572
333 2 0.172833 5.65455 13.3102 1.67375
206 3 -0.812825 2.35531 12.4619 5.9814
281 2 0.0184281 5.4068 13.9214 3.25166
282 2 0.0784702 3.30676 13.0781 4.73129
283 2 0.000153302 8.32843 11.3148 4.37832
284 2 -0.0338282 7.22766 10.1866 6.50551
327 2 0.160508 9.48039 11.3925 0.317775
289 3 -0.850005 4.34852 9.58251 0.825773
330 1 -0.670652 6.78419 13.2534 1.96247
291 3 -0.834379 4.34164 11.5571 2.84851
292 3 -0.835944 5.76424 11.8409 4.9452
279 1 -0.696343 2.73333 14.2566 1.71801
92 2 0.00147623 5.50568 13.1061 8.2131
89 2 -0.0177867 3.05588 10.1623 4.70962
254 2 0.158719 6.96511 7.97883 8.25094
247 2 0.164351 9.20437 7.0446 14.6651
56 4 1.12434 3.91914 11.162 15.3383
76 1 -0.674661 5.56182 12.0044 14.8707
145 2 0.151913 4.8912 8.90412 8.61965
90 2 -0.00704054 3.61011 10.9393 10.5889
101 2 0.0377716 5.24145 10.4265 16.0458
240 1 -0.639769 8.26248 6.77802 15.2135
86 2 -0.0142322 3.76127 8.59712 9.96853
159 2 0.176255 5.30195 13.0576 15.2844
160 2 0.188981 5.51854 11.996 13.7493
344 2 0.176968 8.74524 13.176 13.4939
233 3 -0.820928 3.27451 10.2899 14.2183
234 3 -0.817295 3.13515 12.1747 16.2955
348 2 0.151766 3.83404 13.6125 13.156
236 4 1.01971 6.46588 7.94612 14.9262
237 4 0.870033 8.58136 8.41812 10.3038
238 4 1.45244 7.55744 10.0842 12.8446
239 4 0.702401 6.13911 12.532 11.2725
208 3 -0.77913 3.61949 8.09162 12.6569
241 1 -0.620401 10.3173 9.08619 9.48586
242 1 -0.64437 6.65698 8.43813 9.24608
244 1 -0.640449 5.01983 11.9655 9.73563
246 2 0.0365385 6.65531 12.7182 9.46956
251 2 0.116289 10.5067 7.92211 9.26834
249 2 0.0421382 7.8876 8.15026 16.2269
343 2 0.130852 8.10597 13.7049 15.2392
250 2 0.0176084 8.58768 9.5792 8.88205
253 2 0.164154 6.16469 7.60383 10.032
235 4 1.15121 9.39791 11.4076 14.9611
255 2 0.156443 6.26043 9.45486 9.32929
259 2 0.154007 4.40447 12.3321 8.88197
260 2 0.0148853 4.25628 12.5759 11.1921
261 2 0.145467 5.0945 10.7513 9.84448
262 3 -0.857048 5.19559 7.70852 15.7962
263 3 -0.788853 6.61751 9.14816 13.8019
264 3 -0.768469 8.36161 9.03834 11.7171
265 3 -0.833711 8.72723 10.7763 13.6838
266 3 -0.801243 6.76061 11.2939 12.0484
30 4 1.37939 1.39656 13.6794 12.8784
325 1 -0.668034 8.27786 11.0031 16.4351
326 2 0.150852 7.486 10.2037 16.1762
350 2 0.158241 6.60202 11.556 15.4626
338 2 -0.00089575 9.62918 10.8967 9.79268
345 2 0.113484 7.79183 12.0666 16.5265
214 3 -0.855278 1.83581 12.4407 12.0146
273 4 1.28605 4.10978 7.58633 16.9187
252 2 0.152956 10.479 9.71713 8.56293
349 2 0.21249 2.9953 13.8119 14.8605
148 2 0.216049 10.6298 9.29156 12.915
ITEM: TIMESTEP
200
ITEM: NUMBER OF ATOMS
350
ITEM: BOX BOUNDS xy xz yz pp pp pp
-6.7108999999999996e+00 1.5238200000000001e+01 -6.2626999999999997e+00
-6.4200000000000002e-01 1.4502800000000001e+01 -4.4819999999999999e-01
0.0000000000000000e+00 1.6940466000000001e+01 -6.4200000000000002e-01
ITEM: ATOMS id type q x y z
7 4 1.29147 -0.74375 2.48853 3.65718
180 3 -0.833395 3.74437 -0.0266978 3.06711
14 4 1.45787 0.0114312 4.83804 1.88061
17 4 1.24384 -0.685254 6.76155 6.69116
26 4 1.04652 4.23614 1.44903 3.12556
34 4 1.28586 5.68664 3.72307 7.06081
33 4 1.28032 1.28655 6.38315 4.30116
318 2 0.162035 1.32185 0.795417 1.10487
36 4 1.43259 4.30098 5.82539 5.16745
57 1 -0.649711 1.42799 0.274706 6.42083
62 1 -0.681868 2.86663 2.52353 3.91883
77 2 0.00717084 0.917629 2.78824 4.10347
195 3 -0.754828 4.28456 4.3159 5.90043
79 2 0.0869862 -0.424943 5.86683 8.08962
82 2 0.0722723 4.547 2.07507 1.48818
316 2 0.166519 2.86841 1.35568 0.0643663
103 2 0.170803 1.37048 1.39494 6.16886
321 2 0.190281 -1.13101 2.77687 8.17641
117 2 0.166465 2.2996 1.76585 4.49017
118 2 0.191495 2.35936 2.97502 3.06201
119 2 0.276545 3.42443 3.26957 4.75385
164 3 -0.810305 -1.24772 3.70416 2.80804
165 3 -0.839138 1.24352 3.88614 1.16711
166 3 -0.861239 -0.76874 5.67475 0.789064
167 3 -0.840369 -2.17019 6.3678 6.26759
182 3 -0.798609 5.59924 1.63493 3.97455
201 3 -0.803872 4.34929 6.86878 6.61264
189 3 -0.850171 0.645365 5.67748 3.03831
190 3 -0.87052 0.474732 6.34385 5.65109
191 3 -0.782071 4.71692 2.8975 8.20461
194 3 -0.841728 2.90972 6.02068 4.44038
272 2 0.187058 5.2136 5.41255 0.572782
200 3 -0.852081 2.36669 6.66504 8.39074
315 1 -0.661148 1.63016 1.17948 0.0853357
185 3 -0.747906 5.13149 2.85369 0.158023
183 3 -0.851411 7.10498 0.0802658 5.8338
9 4 1.08953 2.69366 -0.290435 7.74479
104 2 0.244778 0.371784 -0.180839 6.60919
295 2 -0.0190484 -0.139907 0.388622 0.283417