ITEM: TIMESTEP
0
ITEM: NUMBER OF ATOMS
350
ITEM: BOX BOUNDS xy xz yz pp pp pp
-6.7108999999999996e+00 1.5238200000000001e+01 -6.2626999999999997e+00
-6.4200000000000002e-01 1.4502800000000001e+01 -4.4819999999999999e-01
0.0000000000000000e+00 1.7008500000000002e+01 -6.4200000000000002e-01
ITEM: ATOMS id type q x y z
7 4 1.28836 -0.613891 2.39768 3.67907
180 3 -0.807455 3.83169 0.0145978 2.87426
14 4 1.43558 0.0810631 4.69233 1.84688
17 4 1.21829 -0.941408 6.56363 6.52682
26 4 0.999927 4.37479 1.51718 3.15112
34 4 1.38349 5.4331 3.60958 7.08283
33 4 1.2745 1.26155 6.34474 4.18446
318 2 0.159595 1.33296 0.727361 1.13839
36 4 1.42797 4.24562 5.95514 5.27223
57 1 -0.638988 1.21653 0.738919 7.06136
62 1 -0.647003 3.06138 2.50557 4.07068
77 2 0.0126519 1.05706 2.59349 4.16042
195 3 -0.83982 4.548 4.41164 5.98334
79 2 0.0512412 -0.323948 5.78579 7.90515
82 2 0.0853854 4.76376 2.13314 1.57529
16 4 1.29546 -0.584119 7.11592 0.0274686
103 2 0.17606 0.981519 1.7622 7.47538
321 2 0.221967 -1.32113 2.62436 7.84987
117 2 0.146594 2.49065 1.56392 4.51832
118 2 0.156988 2.55307 3.02338 3.06416
119 2 0.264685 3.65387 3.26702 4.85212
164 3 -0.813545 -1.18528 3.60392 2.78418
165 3 -0.857294 1.10947 3.75905 0.990117
166 3 -0.85537 -0.729321 5.91421 1.05445
167 3 -0.797249 -2.33934 5.8875 6.30246
182 3 -0.769818 5.69072 1.59522 4.13864
104 2 0.250801 0.292232 0.014654 7.02672
189 3 -0.823263 0.97841 5.26405 3.01486
190 3 -0.841723 0.132277 6.36524 5.33733
191 3 -0.833131 4.59387 2.73775 8.06051
194 3 -0.840883 2.78437 6.15365 4.69756
272 2 0.17203 5.00173 5.18587 0.30794
105 2 0.112389 1.84035 0.711559 5.95966
315 1 -0.632563 1.77671 1.04399 0.123383
185 3 -0.777196 5.38562 2.6676 0.244188
183 3 -0.822117 6.97323 0.237464 6.1094
200 3 -0.835447 2.36227 6.8538 8.4218
295 2 -0.0206986 -0.0544241 0.250558 0.204259
316 2 0.194114 2.9498 1.12722 0.0745094
8 4 1.32405 1.05122 2.29793 16.7247
11 4 1.34225 2.96973 -0.0775387 13.4447
13 4 1.26949 1.00893 1.5852 11.6715
18 4 1.23174 -0.489547 3.88911 13.033
19 4 1.26138 -1.13721 6.2423 10.9021
28 4 1.35073 4.25744 1.80553 9.37629
31 4 1.20549 3.90203 2.15145 15.4696
35 4 1.13915 1.6864 5.93587 9.63164
322 2 0.136234 -0.0723607 2.85052 9.19954
63 1 -0.688497 3.33334 3.17663 10.5707
64 1 -0.676781 4.78669 3.41546 14.5566
67 1 -0.671087 2.15636 5.40673 14.3989
83 2 0.0276474 1.84162 2.01122 10.2176
198 3 -0.779242 2.45391 6.17294 11.1188
85 2 0.0368556 0.320243 4.68353 14.3409
317 2 0.159241 0.838495 -0.174264 16.0466
319 1 -0.66524 -1.1859 2.88958 8.94153
120 2 0.156949 3.98169 2.78752 11.4784
121 2 0.173936 2.26356 3.50674 10.9748
122 2 0.156024 3.81814 4.04896 10.0874
59 1 -0.667256 -2.64172 5.65917 9.81984
124 2 0.163066 4.24897 3.45669 13.532
324 2 0.155284 0.517983 0.0460698 14.5504
132 2 0.251568 2.11864 4.3931 14.9441
133 2 0.178221 3.24682 5.69918 14.189
134 2 0.202293 1.59528 5.45146 13.4267
161 3 -0.849242 -0.395939 2.1138 15.8281
162 3 -0.804182 -0.202031 0.760136 10.9887
163 3 -0.87847 1.9716 0.713225 12.6004
193 3 -0.805267 0.0535653 6.23042 9.68544
169 3 -0.880545 0.519035 2.902 12.2806
170 3 -0.815392 -0.933435 5.075 12.0636
84 2 -0.0133155 2.06776 4.28468 9.44407
184 3 -0.80602 3.6878 0.883086 14.5687
110 2 0.171358 -2.0921 5.54663 8.76915
186 3 -0.82301 2.30415 2.84347 15.9371
187 3 -0.790668 5.62921 1.48063 10.1236
123 2 0.155924 4.85403 4.46248 15.0058
181 3 -0.800305 3.25437 0.627601 8.953
336 2 0.0180343 -2.48168 6.18992 16.1704
168 3 -0.800131 -1.82386 3.12129 13.6658
320 2 0.166216 -1.69964 3.96876 9.23604
197 3 -0.816729 0.0924183 6.46699 15.9251
1 4 0.992414 -3.33304 13.3029 2.13934
2 1 -0.695761 -4.79067 12.621 3.18567
3 2 0.0410417 -3.11976 11.6511 2.80148
5 2 0.161365 -4.57273 12.4547 4.26015
6 3 -0.813944 -3.53115 13.3062 0.515693
290 3 -0.797252 2.35889 11.3049 1.2405
20 4 1.21386 -1.74544 9.8252 1.24655
22 4 1.07869 -2.01765 9.38239 7.67165
138 2 0.201336 -0.310959 13.6475 3.50015
39 4 1.0991 -0.666814 11.5156 4.00281
40 4 1.05272 2.99867 7.78615 7.32229
42 4 0.959219 1.97889 11.1871 5.71221
60 1 -0.652445 -3.42083 9.07784 1.44456
61 1 -0.698385 -3.36778 9.98377 6.48606
69 1 -0.65741 0.193382 12.7808 2.87385
70 1 -0.683274 -2.14622 12.3946 5.02939
87 2 0.0217122 1.17059 7.90373 3.50044
88 2 -0.0222591 1.79072 8.4535 6.29277
100 2 -0.0318892 2.25352 10.3531 7.14954
113 2 0.170109 -4.09588 9.39099 2.48512
112 2 0.15577 -3.84134 9.3219 0.359178
111 2 0.175892 -3.10692 7.96473 1.51135
115 2 0.170288 -2.71423 10.0751 5.51689
116 2 0.187322 -3.63891 10.9641 6.95238
78 2 0.0133375 -2.50225 13.653 6.53692
139 2 0.229783 -0.0691979 12.7696 1.78445
140 2 0.20862 1.25986 12.6963 3.0283
141 2 0.19128 -1.93842 12.0074 6.08497
142 2 0.159539 -3.21659 12.1424 4.71705
143 2 0.198989 -1.81914 13.4811 4.96878
171 3 -0.782921 -0.688873 8.46 0.780055
202 3 -0.795933 -1.14371 10.5321 8.34095
173 3 -0.82055 -1.29245 8.16474 6.98545
172 3 -0.808851 -1.94747 10.8833 0.0730878
337 2 0.0104484 -3.28639 8.38056 5.32092
199 3 -0.770215 -1.20859 10.5807 2.85001
9 4 1.01215 -3.66717 14.1878 7.78266
203 3 -0.814416 0.278739 12.7866 7.91667
205 3 -0.781707 0.586317 10.8476 5.06617
334 2 0.153387 -5.31148 13.7872 3.05127
278 1 -0.678755 2.82067 9.08327 3.32943
285 2 0.170997 2.63997 8.29678 2.51641
286 2 0.172708 1.89991 9.48244 3.93437
174 3 -0.791334 -4.47969 12.758 8.37054
114 2 0.170236 -4.24204 9.26376 6.41138
80 2 0.0104244 -3.17924 8.7634 8.88758
23 4 0.992596 -4.7951 12.2938 9.80992
24 4 1.0642 -2.4481 9.2423 11.7955
25 4 1.48254 -2.1877 12.2061 11.4524
209 3 -0.827676 0.548104 12.6445 16.7796
37 4 1.34617 1.59996 6.98541 15.3374
41 4 1.58481 -0.182469 11.7977 9.10927
43 4 1.50307 2.51438 9.1309 13.3783
44 4 1.34782 -0.327909 12.31 15.4485
45 4 1.35068 1.9603 11.1951 11.1258
72 1 -0.683111 -3.51275 8.74776 13.1902
73 1 -0.662164 -0.106821 10.398 15.1232
213 3 -0.834399 1.77625 9.98799 12.04
339 2 0.0505368 -4.25087 13.5025 14.4912
21 4 1.36463 -3.18108 11.7393 16.4105
147 2 0.172818 -3.15293 7.68753 13.4339
38 4 1.03289 3.66166 7.32596 11.2664
149 2 0.218757 -3.34379 9.50266 14.0343
150 2 0.226778 0.642594 10.0043 15.7912
151 2 0.235948 0.378277 10.5858 14.0296
152 2 0.234775 -1.05729 9.85219 15.1682
175 3 -0.769373 -1.70435 7.83103 11.3296
176 3 -0.813639 -4.34823 11.3593 15.2341
177 3 -0.866197 -3.58262 11.9689 10.7125
178 3 -0.76813 -1.69467 10.6017 12.1366
179 3 -0.800193 -2.38583 13.4938 12.5213
196 3 -0.827602 2.79068 7.1562 16.4783
81 2 0.0639582 -3.90919 9.62247 10.533
323 1 -0.67801 -6.24748 13.5675 14.427
204 3 -0.79961 -1.0647 12.5183 10.183
207 3 -0.816866 1.51934 8.18262 14.2223
102 2 0.0191553 -5.71049 13.4265 10.5928
210 3 -0.785034 0.474337 13.0041 14.0147
211 3 -0.77896 -1.90863 12.6125 15.629
212 3 -0.876607 1.13272 11.2408 9.80191
146 2 0.161936 2.92987 9.82633 8.84606
208 3 -0.808144 3.54953 8.13188 12.6385
15 4 1.24115 11.5811 6.66585 5.44136
46 4 1.28938 9.72425 2.29302 3.64108
49 4 1.52852 12.229 1.86903 5.39869
50 4 1.26076 11.0281 5.04508 2.86391
51 4 1.27085 7.05295 6.39868 4.38824
52 4 0.949059 9.48489 6.81972 0.957856
53 4 1.33405 10.7239 3.45279 7.5326
54 4 1.28711 9.03282 6.04823 6.74561
66 1 -0.670348 6.19447 5.02215 8.25776
91 2 0.026636 9.52353 1.69251 2.05476
94 2 0.101379 12.575 4.31271 2.6803
95 2 -0.00895391 7.65755 5.25667 3.26657
29 4 1.50157 7.08456 1.67209 5.29016
280 2 0.019414 5.27141 7.15192 1.15457
268 1 -0.681147 6.0999 5.44741 0.573577
129 2 0.205653 6.28845 5.84526 7.46827
192 3 -0.801094 6.70097 2.87673 6.32042
215 3 -0.869289 8.48832 1.79415 4.45728
219 3 -0.815961 13.7474 2.34673 4.97509
220 3 -0.849475 11.1162 1.76439 4.09389
221 3 -0.810617 12.2272 0.276312 6.11749
222 3 -0.826336 9.97862 3.92213 3.39682
223 3 -0.846056 11.1833 6.11282 4.04416
224 3 -0.821664 5.44069 6.2321 4.13155
225 3 -0.857568 10.6341 5.7732 1.51704
346 2 0.212433 10.0662 0.201369 0.957247
227 3 -0.819496 11.803 2.95385 6.4983
228 3 -0.850802 10.2612 6.95578 6.36738
229 3 -0.850189 7.81489 6.10075 5.75805
230 3 -0.807411 9.64227 4.54959 6.97324
271 2 0.117026 6.29813 5.54974 1.82839
294 4 1.01839 13.9038 0.548615 1.40075
347 2 0.176253 8.29796 0.546366 1.61769
226 3 -0.887696 10.0376 2.24296 8.20206
297 3 -0.816839 12.5626 1.18303 0.780599
296 3 -0.84599 14.5738 1.04038 2.80475
340 2 -0.016899 12.3782 3.78907 0.832055
267 4 1.03594 6.63569 3.54387 0.608286
96 2 -0.000598042 8.0042 5.99954 0.629976
269 2 -0.0265114 6.94682 3.07182 2.15079
98 2 -0.0188545 8.44556 6.6212 8.26617
217 3 -0.878327 8.92072 -0.214318 7.96212
216 3 -0.850232 13.2758 0.295819 8.47399
270 2 0.162087 6.38014 6.34738 0.0234039
10 4 1.01311 13.6185 1.19021 9.75967
342 2 0.150318 11.8805 6.60526 9.92886
32 4 1.33314 7.03228 1.55535 11.0515
48 4 1.35978 9.27913 1.04991 8.82849
58 1 -0.677505 11.9502 1.06982 10.9525
65 1 -0.670497 7.00553 3.3511 11.7424
68 1 -0.662477 5.4009 6.42512 11.4178
93 2 0.0287574 10.6794 0.422642 9.5654
188 3 -0.817324 7.20632 0.527857 12.3254
12 4 1.196 13.62 1.89838 14.7917
107 2 0.141939 11.574 2.03394 10.39
108 2 0.168302 12.5113 1.37969 11.8992
126 2 0.161201 7.88321 3.83616 11.2431
127 2 0.162806 7.03153 3.39707 12.8831
109 2 0.149395 12.3537 4.76336 10.4511
328 1 -0.665721 9.35607 -0.171764 13.8351
131 2 0.163933 5.4368 5.20543 9.05777
135 2 0.160285 6.56462 6.39797 10.9447
106 2 0.136756 11.0472 0.487319 11.2856
128 2 0.152136 5.97233 3.69532 11.2845
313 3 -0.835267 7.47182 2.7033 16.7583
218 3 -0.840353 8.25152 1.4219 9.9485
243 1 -0.663116 8.43516 6.22729 10.1642
245 2 0.0467963 6.59882 6.29173 14.1898
248 2 0.156977 8.18597 5.7221 15.7792
256 2 0.16481 7.58274 5.74609 9.49131
257 2 0.149357 8.21622 6.13064 11.2786
258 2 0.125002 9.50607 5.84279 9.91224
97 2 -0.00162344 11.5938 4.31839 8.74346
299 4 1.25269 8.72613 2.28018 15.9142
300 4 0.826745 9.84792 4.50767 13.9669
301 1 -0.639564 10.7938 3.57905 12.6264
302 1 -0.663301 11.3335 5.54526 14.954
303 2 0.0198595 8.14105 1.12063 14.8882
304 2 -0.00124121 8.66889 5.74093 13.6225
305 2 0.19564 11.6772 4.1245 12.2581
306 2 0.110531 9.83318 3.69135 11.8715
307 2 0.202904 11.0092 2.46111 12.9691
309 2 0.217038 12.0972 4.95839 14.3396
137 2 0.176387 5.48067 6.67796 12.5528
310 2 0.163775 11.0659 5.26364 16.0824
311 3 -0.809148 12.2305 1.84181 15.5493
308 2 0.145069 11.1495 6.60584 14.7205
335 2 -0.00564728 13.799 0.311173 14.0192
314 3 -0.801713 9.19645 3.54845 15.0032
125 2 0.177218 5.82711 3.1092 14.2881
329 2 0.167911 9.33294 0.89644 13.4784
312 3 -0.851753 9.88422 1.68842 16.79
240 1 -0.656678 7.97763 6.64351 15.1922
349 2 0.212208 9.25087 -0.358331 14.9492
130 2 0.168987 7.20101 4.46983 8.58309
136 2 0.150112 4.94938 5.4026 11.222
298 4 1.24522 11.4591 1.78453 16.9809
156 2 0.158758 10.8797 8.92889 3.94758
47 4 1.20077 6.54444 13.9386 7.30148
55 4 1.1409 8.49985 8.75929 3.02244
332 2 0.150903 7.4084 12.6838 1.04273
74 1 -0.666291 7.61186 10.4271 2.60095
75 1 -0.665475 9.99786 9.60845 4.1141
158 2 0.163309 10.1497 10.6781 3.75627
71 1 -0.675318 3.69398 9.36083 8.11207
288 2 0.138722 3.1756 13.9029 2.59695
144 2 0.119469 3.90969 9.98702 7.17446
153 2 0.192065 6.6578 10.36 3.26726
154 2 0.181127 7.39016 10.1661 1.49814
155 2 0.163802 7.97681 11.4904 2.67966
4 2 0.149189 9.94183 11.7751 2.66097
157 2 0.162589 9.75785 9.55609 5.23881
273 4 1.27935 4.62552 8.32964 0.0699158
27 4 1.45871 1.44803 13.7116 7.04579
231 3 -0.820133 7.52634 7.83413 3.83904
232 3 -0.842903 9.0282 8.09387 1.66481
331 2 0.155929 7.24041 13.3149 2.94514
293 3 -0.752048 7.91784 12.8997 6.55877
274 4 1.31959 3.55352 10.4582 2.03454
275 4 1.30432 2.34565 12.796 0.451253
276 4 1.00809 4.88172 12.5222 4.05389
277 4 0.901051 7.2425 11.7239 5.69812
333 2 0.187115 5.76678 13.3935 1.63096
206 3 -0.808079 2.33378 12.6767 5.6796
281 2 0.0194314 5.61536 13.8726 3.31217
282 2 0.106341 3.51597 13.3101 4.68257
283 2 0.00235567 8.18092 11.183 4.3314
284 2 -0.0341279 7.26209 10.2802 6.5141
327 2 0.16435 9.60117 11.0548 0.204119
289 3 -0.857083 4.39014 9.58175 1.00112
330 1 -0.663468 6.84237 13.2939 1.81947
291 3 -0.858336 4.27028 11.5017 3.04842
292 3 -0.853441 5.76509 11.9365 5.16853
279 1 -0.683708 2.88707 14.3103 1.58365
92 2 0.00167655 5.30985 12.9936 8.1275
201 3 -0.773783 4.30258 7.24952 6.51631
287 2 0.183169 3.71621 8.80548 3.93747
89 2 0.00677078 3.15986 10.3112 4.80424
254 2 0.151216 6.67223 8.21466 8.31574
247 2 0.144633 8.84316 7.05472 14.6312
56 4 1.14093 3.94262 11.1296 15.4835
76 1 -0.686749 5.62389 11.9436 15.0662
145 2 0.165283 4.81303 9.07867 8.6431
90 2 0.0163898 3.63309 10.9531 10.6308
101 2 0.0359698 5.22663 10.4951 16.412
99 2 0.00142965 9.51661 6.82187 16.3895
86 2 0.00425695 3.94771 8.33942 9.79551
159 2 0.179276 5.42115 13.0272 15.2157
160 2 0.208899 5.66793 11.6154 13.9451
344 2 0.175097 8.81134 13.3955 13.3127
233 3 -0.845048 3.2735 10.2477 14.3825
234 3 -0.831606 3.06963 12.166 16.2573
348 2 0.15752 3.88272 13.7248 13.2986
236 4 1.04357 6.46881 8.0918 14.9865
237 4 0.862022 8.47643 8.3885 10.1611
238 4 1.42724 7.64334 10.0101 12.7882
239 4 0.698702 6.25874 12.439 11.1461
148 2 0.182354 10.6845 8.79158 12.7526
241 1 -0.630226 10.1804 9.10194 9.3155
242 1 -0.650039 6.6272 8.63715 9.40221
244 1 -0.645556 5.01896 11.9358 9.70603
246 2 0.00338352 6.82287 12.2697 9.36915
251 2 0.128304 10.32 8.02516 8.92784
249 2 0.0481752 7.97182 8.15574 16.0818
343 2 0.120778 8.04631 13.4909 15.1405
250 2 0.0173278 8.4559 9.70006 8.85093
253 2 0.167809 6.10346 7.83737 10.2262
235 4 1.14952 9.32047 11.4821 14.9924
255 2 0.155106 6.33631 9.72509 9.5099
259 2 0.159189 4.34408 12.2074 8.82684
260 2 0.0405657 4.41316 12.622 11.3384
261 2 0.156265 5.19799 10.8425 9.64804
262 3 -0.873828 5.32217 7.94618 16.0481
263 3 -0.796885 6.6605 9.14964 13.7922
264 3 -0.781486 8.41573 9.01693 11.587
265 3 -0.824631 8.666 10.7386 13.8187
266 3 -0.791129 6.74616 11.1883 12.0316
30 4 1.41895 1.44547 13.6346 12.9335
325 1 -0.672868 8.34805 10.9109 16.5517
326 2 0.162062 7.4863 10.2638 16.5873
350 2 0.162264 6.65314 11.5626 15.6734
338 2 -0.013274 9.40176 10.9356 9.776
345 2 0.102685 8.16626 12.08 16.8459
214 3 -0.864201 2.08619 12.6243 11.9004
341 2 -0.00953622 6.57435 14.0117 11.7914
252 2 0.144719 10.0203 9.84646 8.51417
ITEM: TIMESTEP
100
ITEM: NUMBER OF ATOMS
350
ITEM: BOX BOUNDS xy xz yz pp pp pp
-6.7449169999999992e+00 1.5238200000000001e+01 -6.2967169999999992e+00
-6.4200000000000002e-01 1.4502800000000001e+01 -4.4819999999999999e-01
0.0000000000000000e+00 1.7008500000000002e+01 -6.4200000000000002e-01
ITEM: ATOMS id type q x y z
7 4 1.2933 -0.651934 2.4467 3.53648
180 3 -0.846775 3.78102 0.0999093 2.85687
14 4 1.47248 0.0656599 4.76868 1.85343
17 4 1.23202 -0.847214 6.57677 6.56706
26 4 1.03676 4.3847 1.49084 3.1915
34 4 1.40439 5.59319 3.65007 7.05104
33 4 1.29233 1.25597 6.45022 4.27179
318 2 0.172757 1.35605 0.958453 1.1965
36 4 1.45288 4.3088 5.90872 5.24926
57 1 -0.651948 1.23174 0.46388 6.7207
62 1 -0.678648 3.00419 2.56166 4.00532
77 2 0.0274503 1.06317 2.70518 3.93037
195 3 -0.796905 4.45731 4.29407 5.90332
79 2 0.0666381 -0.446359 5.69792 7.9486
82 2 0.0667757 4.5955 2.26603 1.68247
316 2 0.200446 2.80752 1.20736 0.0721351
103 2 0.185416 0.943457 1.5105 6.98001
321 2 0.183844 -1.4284 2.73674 8.008
117 2 0.160464 2.42831 1.72632 4.47277
118 2 0.175554 2.67663 3.06062 3.07022
119 2 0.284944 3.53237 3.33776 4.77657
164 3 -0.811134 -1.28548 3.71742 2.69906
165 3 -0.872099 0.958757 3.62391 1.17592
166 3 -0.85693 -0.433863 5.80188 0.775858
167 3 -0.811871 -2.3071 6.09222 6.11769
182 3 -0.805486 5.72747 1.58587 4.11674
201 3 -0.804001 4.21622 6.93492 6.58446
189 3 -0.838611 0.763456 5.53703 3.13704
190 3 -0.85524 0.321061 6.45708 5.5553
191 3 -0.811087 4.79742 2.91756 8.15548
194 3 -0.813155 2.81263 5.96719 4.64237
272 2 0.164578 5.09341 5.17898 0.479883
105 2 0.100379 1.99254 0.484327 5.63787
315 1 -0.665476 1.70362 1.14613 0.13819
185 3 -0.735514 5.20704 2.59177 0.189741
183 3 -0.831883 6.89678 0.150762 6.05414
104 2 0.247238 0.349485 -0.190867 6.63206
295 2 -0.00278386 -0.15067 0.498069 0.370077
9 4 1.01414 2.64172 -0.27809 7.68235
8 4 1.31116 0.828434 2.36023 16.7238
11 4 1.32786 2.94087 0.0744482 13.4303
13 4 1.27262 0.870557 1.5046 11.6031
18 4 1.26579 -0.448336 3.93966 12.9766
19 4 1.25317 -1.1541 6.22503 10.8252
28 4 1.34232 4.26631 1.97877 9.42664
31 4 1.18528 3.88214 2.31799 15.4828
35 4 1.20786 1.72023 5.8471 9.61696
322 2 0.143436 -0.123198 3.05035 9.40899
63 1 -0.687553 3.21496 3.3116 10.5237
64 1 -0.679982 4.97286 3.57831 14.6733
67 1 -0.674189 2.30574 5.42607 14.2039
83 2 0.0161453 1.71055 2.09804 10.2063
198 3 -0.791907 2.55034 6.31224 10.9991
85 2 0.0149755 0.530296 4.56006 14.2467
317 2 0.181768 0.814492 -0.129057 16.2463
319 1 -0.678905 -1.24535 2.91625 9.18466
120 2 0.160965 3.87389 2.9912 11.4579
121 2 0.160855 2.20766 3.62824 10.8779
122 2 0.145188 3.76665 4.18974 9.91708
59 1 -0.671371 -2.81929 5.61108 10.0324
124 2 0.185307 5.00545 3.2048 13.5801
324 2 0.16434 0.593484 0.0761238 14.4676
132 2 0.235958 2.17705 4.48138 14.894
133 2 0.197996 3.3711 5.62007 14.0194
134 2 0.187263 1.76368 5.33643 13.2107
161 3 -0.872257 -0.430529 2.08277 15.7451
162 3 -0.809654 -0.260661 0.558252 10.9916
163 3 -0.861425 1.8726 0.719494 12.5026
193 3 -0.82236 0.0755539 5.97402 9.59117
169 3 -0.868127 0.356935 2.78468 12.3789
170 3 -0.832635 -0.887146 5.05643 11.9322
84 2 -0.00423142 2.04697 4.1773 9.23905
184 3 -0.792225 3.73309 1.20865 14.3252
110 2 0.146142 -2.44816 5.59372 8.94149
186 3 -0.787034 2.24309 2.96252 15.9322
187 3 -0.78162 5.60246 1.59687 10.2412
123 2 0.166659 4.6482 4.61542 14.7658
181 3 -0.770018 3.29188 0.836985 8.85816
336 2 -0.00557622 -2.35434 6.05702 15.824
168 3 -0.826112 -1.63553 3.07048 13.7233
320 2 0.180298 -1.76948 3.86531 9.53176
197 3 -0.84019 0.256296 6.50561 16.0861
16 4 1.30996 -1.04513 6.46134 16.8823
200 3 -0.854286 2.33692 6.7198 8.51193
1 4 1.02746 -3.29564 13.3354 2.20785
2 1 -0.676202 -4.90153 12.6852 3.08121
3 2 0.0379508 -3.12411 11.8267 3.04986
5 2 0.140669 -4.93314 12.2173 4.17131
6 3 -0.832125 -3.47936 13.145 0.600013
290 3 -0.768113 2.19425 11.3071 1.39124
20 4 1.26698 -1.74563 9.87578 1.25563
22 4 1.09196 -1.86024 9.38377 7.7034
138 2 0.227476 -0.179234 13.8989 3.6848
39 4 1.12755 -0.596779 11.4564 3.95424
40 4 1.07315 2.99845 7.6156 7.40706
42 4 0.950352 1.87187 10.9576 5.68376
60 1 -0.643599 -3.47847 9.16614 1.37062
61 1 -0.700918 -3.38911 9.87133 6.70245
69 1 -0.663813 0.152974 13.0501 3.07032
70 1 -0.672534 -1.7695 12.3371 5.21134
87 2 0.00992924 1.16606 8.01554 3.6338
88 2 -0.0233044 1.87055 8.29266 6.32455
100 2 -0.0174826 2.05683 9.99642 7.05262
113 2 0.206282 -4.1203 9.44011 2.31758
112 2 0.178292 -3.99435 9.49471 0.393072
111 2 0.184846 -3.15411 8.05842 1.4635
115 2 0.14573 -2.66354 10.1035 5.67367
116 2 0.175234 -3.62271 10.8537 7.24604
78 2 0.0224081 -2.38399 13.5669 6.59335
139 2 0.223307 -0.0195269 13.3281 1.98974
140 2 0.16804 1.33433 12.8201 3.25544
141 2 0.223406 -1.36499 12.1167 6.31794
142 2 0.141717 -2.8244 11.9183 5.08712
143 2 0.189445 -1.70604 13.4426 4.91417
171 3 -0.810296 -0.946114 8.44695 0.607311
202 3 -0.782484 -1.05627 10.5576 8.38152
173 3 -0.827038 -1.12495 8.22073 7.01735
172 3 -0.850725 -2.05436 11.0748 0.250946
337 2 0.000727045 -3.01424 8.56035 5.28831
199 3 -0.794298 -1.30073 10.4921 2.87242
27 4 1.51802 1.37732 13.6592 7.03925
203 3 -0.84417 0.284338 12.8595 7.94466
205 3 -0.814541 0.502053 10.79 5.02037
334 2 0.159236 -5.32486 13.8583 3.18576
278 1 -0.687167 2.79309 9.049 3.07653
285 2 0.172742 2.5339 8.18562 2.45684
286 2 0.174566 1.86128 9.66725 3.31002
174 3 -0.790862 -4.30769 12.9319 8.42524
287 2 0.157397 3.60172 8.88544 3.8874
80 2 0.0127825 -3.1822 8.77391 8.66987
23 4 0.978333 -4.74366 12.4075 9.85892
24 4 1.04829 -2.35001 9.19382 11.8912
25 4 1.47664 -2.1137 12.1472 11.3937
209 3 -0.782403 0.448249 12.5943 16.8508
37 4 1.43724 1.65004 6.89036 15.3637
41 4 1.53192 -0.0710726 11.8996 9.16575
43 4 1.4714 2.47694 9.11398 13.3014
44 4 1.32765 -0.515966 12.3234 15.312
45 4 1.31149 1.97199 11.1218 11.1552
72 1 -0.68539 -3.61075 8.85464 13.2332
73 1 -0.679808 -0.415066 10.4319 14.9808
213 3 -0.822916 1.61269 9.91781 12.1805
339 2 0.0363609 -4.24831 13.6592 14.5491
21 4 1.43909 -3.23118 11.6267 16.5009
147 2 0.141017 -3.57077 7.68873 13.2194
38 4 1.01936 3.78552 7.34671 11.1862
149 2 0.200534 -3.22376 9.30605 14.2055
150 2 0.231578 0.314691 9.96696 15.6547
151 2 0.251494 -0.0663765 10.4863 13.8843
152 2 0.202589 -1.39999 9.97724 14.977
175 3 -0.785816 -1.57412 7.76922 11.3867
176 3 -0.829272 -4.37659 11.1051 15.3994
177 3 -0.853001 -3.4842 12.0331 10.6674
178 3 -0.817677 -1.69317 10.6487 11.9782
179 3 -0.745626 -2.47654 13.5139 12.6149
196 3 -0.858569 2.82768 6.97935 16.3516
81 2 0.0588374 -3.87974 9.35436 10.9012
323 1 -0.676086 -6.20099 13.5857 14.5634
204 3 -0.7793 -0.885791 12.7268 10.2476
207 3 -0.801611 1.54469 8.14804 14.4409
102 2 0.0690495 -5.71514 13.5981 10.5921
210 3 -0.763392 0.445027 13.0901 14.1003
211 3 -0.776924 -2.00153 12.6711 15.448
212 3 -0.861929 1.26826 11.0932 9.75
146 2 0.177571 2.98643 9.75807 8.81953
15 4 1.27039 11.6793 6.93064 5.494
46 4 1.25607 9.72903 2.37537 3.72995
49 4 1.5065 12.1309 1.81784 5.45219
50 4 1.23641 11.046 5.02851 3.09047
51 4 1.25342 7.22943 6.36274 4.39112
52 4 0.921934 9.68731 6.63911 1.12017
53 4 1.30371 10.5575 3.46824 7.53651
54 4 1.2968 9.05038 6.11293 6.71443
66 1 -0.67075 6.38559 4.95688 8.27623
91 2 0.0318471 9.48068 1.60718 2.20875
94 2 0.114623 12.3867 3.93401 3.03185
95 2 0.0315211 8.04167 5.16727 3.42811
29 4 1.51798 7.02081 1.61731 5.30191
280 2 0.0120923 5.06183 6.93805 1.00255
268 1 -0.659606 6.22615 5.36544 0.654839
129 2 0.208208 6.01542 5.95443 7.85789
192 3 -0.810083 6.70824 2.74815 6.44603
215 3 -0.854374 8.39156 1.98988 4.45165
219 3 -0.774142 13.9039 2.20922 4.94881
220 3 -0.885663 11.1286 1.75585 4.14893
221 3 -0.852718 12.0535 0.495971 6.31709
222 3 -0.824979 9.68589 4.06828 3.42735
223 3 -0.82544 11.4043 6.20558 4.15089
224 3 -0.838388 5.60354 6.14108 4.29588
225 3 -0.847356 10.8312 5.60113 1.64164
270 2 0.142639 6.66432 6.3251 0.088512
227 3 -0.817351 11.6162 3.0577 6.35293
130 2 0.20453 7.50896 4.7354 8.12463
229 3 -0.849387 7.72071 6.16665 5.89913
230 3 -0.832445 9.5389 4.62168 7.09114
271 2 0.10113 6.4634 5.41641 1.86398
294 4 1.04112 13.8139 0.485962 1.51189
347 2 0.174884 8.31084 0.607204 1.33063
226 3 -0.843217 9.83124 2.23735 8.13168
297 3 -0.805755 12.6529 1.44656 0.817331
296 3 -0.854771 14.4946 1.07588 2.773
340 2 0.013984 12.1365 4.06063 0.457311
267 4 0.940627 6.62877 3.4574 0.782394
96 2 -0.0107576 8.12945 5.91103 0.830826
269 2 -0.0086831 7.03142 2.86184 2.3062
98 2 -0.0108149 8.62131 6.80632 8.26959
217 3 -0.84035 8.79559 -0.0740786 7.87305
346 2 0.179066 10.0438 0.00823953 1.51954
10 4 1.00816 13.575 1.19239 9.84342
342 2 0.154805 11.7773 6.45448 10.3191
32 4 1.36954 7.13562 1.61099 10.8831
48 4 1.33967 9.4555 0.93745 8.87107
58 1 -0.687112 11.954 1.07073 11.1136
65 1 -0.66594 7.34049 3.38829 11.6005
68 1 -0.665786 5.47291 6.31897 11.3655
93 2 -0.0288318 10.8754 0.342531 9.6324
188 3 -0.80585 7.18611 0.569298 12.1351
12 4 1.253 13.6098 1.86183 14.7431
107 2 0.140361 11.5318 2.01822 10.6974
108 2 0.169462 12.534 1.39973 12.0882
126 2 0.162974 7.96314 3.98762 10.781
127 2 0.176755 7.81652 3.3099 12.57
109 2 0.143026 12.2025 4.51358 10.5105
328 1 -0.670369 9.3551 -0.322062 13.7268
131 2 0.172849 5.99053 4.65596 9.30608
135 2 0.171564 6.58914 6.3125 11.0053
106 2 0.117154 11.1134 0.311174 11.3503
128 2 0.148218 6.17897 3.71341 11.6428
313 3 -0.810616 7.42706 2.55511 16.8457
218 3 -0.834804 8.37919 1.37501 9.89755
243 1 -0.683571 8.45605 6.43839 10.1978
245 2 0.0437145 7.04351 6.29938 14.1997
248 2 0.129697 8.40808 5.83635 15.8817
256 2 0.165864 7.62759 5.97466 9.48135
257 2 0.155862 8.22688 6.2601 11.2719
258 2 0.13374 9.47507 6.06635 9.96044
97 2 -0.0165463 11.4856 4.3195 8.78933
299 4 1.20119 8.68242 2.13436 15.9216
300 4 0.821167 9.7843 4.50526 13.8835
301 1 -0.678272 10.5437 3.67707 12.3807
302 1 -0.669136 11.2917 5.52193 14.8247
303 2 0.014614 8.2157 0.801195 15.0148
304 2 -0.00344125 8.56721 5.70974 13.57
305 2 0.193122 11.6223 3.99803 12.3125
306 2 0.13373 9.85914 4.07168 11.5551
307 2 0.191309 10.4038 2.59209 12.4853
309 2 0.197263 12.0628 4.74183 14.6177
216 3 -0.832078 13.4883 0.259164 8.54619
310 2 0.154436 11.2874 5.71896 15.8761
311 3 -0.80152 12.1544 1.61907 15.4563
308 2 0.140394 11.3721 6.40951 14.0997
335 2 0.00727914 14.0033 0.431376 13.9298
314 3 -0.771855 9.26176 3.40188 14.9099
125 2 0.19993 5.94362 3.36438 15.24
329 2 0.1567 9.31933 0.841431 13.5757
312 3 -0.837433 9.84645 1.70004 16.8603
298 4 1.25627 11.4201 1.85636 16.9264
137 2 0.171009 5.46634 6.41688 12.5312
136 2 0.144824 4.92985 5.36429 10.9679
99 2 0.0057676 9.70953 6.60489 16.5558
341 2 -0.00577803 12.6849 -0.443733 12.1083
156 2 0.169743 11.0088 8.97589 4.07383
47 4 1.23917 6.64442 13.9883 7.25268
55 4 1.08641 8.53018 8.88017 3.12154
332 2 0.145802 7.50627 12.6316 1.2652
74 1 -0.689379 7.76519 10.6237 2.60488
75 1 -0.654621 10.1083 9.61582 4.06972
158 2 0.156203 10.2736 10.7335 3.70447
71 1 -0.674933 3.68712 9.27515 8.07259
288 2 0.140462 2.54934 13.9829 2.82447
144 2 0.125217 3.8797 9.92534 7.13668
153 2 0.209612 6.8929 10.9507 3.20229
154 2 0.161416 7.24725 10.1622 1.65402
155 2 0.162637 8.45272 11.4118 2.27736
4 2 0.141103 9.70268 12.0967 2.30241
157 2 0.137359 9.54335 9.56514 5.10671
114 2 0.170156 10.9058 9.28629 6.41218
228 3 -0.867354 10.2578 7.01703 6.28677
231 3 -0.816351 7.61679 7.87354 3.89263
232 3 -0.789915 9.31155 7.96429 1.91124
331 2 0.170852 7.05661 13.1909 3.07507
293 3 -0.806918 7.55355 12.9051 6.54574
274 4 1.29493 3.50189 10.4737 1.8533
275 4 1.2497 2.28328 12.9121 0.46923
276 4 1.00735 4.7695 12.4903 3.95677
277 4 0.89379 7.15797 11.566 5.59572
333 2 0.172823 5.65464 13.3104 1.67372
206 3 -0.812824 2.35531 12.4619 5.98141
281 2 0.018412 5.4068 13.9214 3.25165
282 2 0.0784658 3.30674 13.078 4.73128
283 2 0.000172556 8.32844 11.3148 4.37833
284 2 -0.033822 7.22764 10.1865 6.50549
327 2 0.160502 9.48037 11.3925 0.317797
289 3 -0.850563 4.34857 9.5825 0.826004
330 1 -0.670712 6.7842 13.2535 1.96245
291 3 -0.834418 4.34169 11.5571 2.84854
292 3 -0.835965 5.76425 11.8409 4.94519
279 1 -0.696366 2.73307 14.2566 1.718
92 2 0.00148272 5.50372 13.1062 8.21211
89 2 -0.0178049 3.05592 10.1623 4.70967
254 2 0.158728 6.96517 7.97849 8.25093
247 2 0.164215 9.20415 7.04579 14.6657
56 4 1.12444 3.91911 11.162 15.3383
76 1 -0.674657 5.56181 12.0044 14.8707
145 2 0.15192 4.89128 8.90406 8.61968
90 2 -0.00706781 3.60793 10.9384 10.5861
101 2 0.0378978 5.24145 10.4265 16.0458
240 1 -0.639789 8.26212 6.77841 15.2135
86 2 -0.0142537 3.76128 8.59717 9.96857
159 2 0.176284 5.3019 13.0576 15.2844
160 2 0.188979 5.51856 11.9961 13.7493
344 2 0.176967 8.74525 13.1759 13.4939
233 3 -0.820747 3.27444 10.2898 14.2182
234 3 -0.817292 3.13513 12.1747 16.2956
348 2 0.15183 3.83561 13.613 13.1582
236 4 1.01923 6.46608 7.94594 14.9263
237 4 0.869988 8.58134 8.41811 10.3038
238 4 1.4524 7.5574 10.0842 12.8447
239 4 0.702428 6.1395 12.5321 11.2723
208 3 -0.779015 3.61942 8.09165 12.657
241 1 -0.620382 10.3174 9.08625 9.48586
242 1 -0.644378 6.65706 8.43801 9.246
244 1 -0.640376 5.01937 11.9657 9.73594
246 2 0.0364555 6.65588 12.7163 9.4703
251 2 0.116283 10.5068 7.92215 9.26847
249 2 0.0420563 7.88639 8.15097 16.2267
343 2 0.13086 8.106 13.7049 15.2392
250 2 0.0176183 8.58774 9.57925 8.88208
253 2 0.164151 6.16465 7.60389 10.032
235 4 1.15119 9.3979 11.4076 14.9611
255 2 0.156451 6.26078 9.45489 9.32922
259 2 0.154038 4.40399 12.3321 8.88214
260 2 0.014978 4.25684 12.5784 11.1909
261 2 0.145347 5.09331 10.7509 9.84597
262 3 -0.855297 5.19508 7.70841 15.797
263 3 -0.788725 6.6175 9.14809 13.8019
264 3 -0.768442 8.36156 9.03841 11.7171
265 3 -0.833766 8.72725 10.7763 13.6838
266 3 -0.801249 6.76047 11.2939 12.0485
30 4 1.37938 1.39642 13.6793 12.8783
325 1 -0.668043 8.27786 11.0031 16.4351
326 2 0.150866 7.48603 10.2037 16.1761
350 2 0.158246 6.602 11.556 15.4626
338 2 -0.000883316 9.62912 10.8968 9.7926
345 2 0.113486 7.79179 12.0665 16.5265
214 3 -0.855224 1.83599 12.4407 12.0145
273 4 1.28489 4.10955 7.58612 16.9241
252 2 0.152961 10.4791 9.71694 8.56276
349 2 0.212458 2.99149 13.8112 14.8601
148 2 0.216179 10.6291 9.29286 12.9165
ITEM: TIMESTEP
200
ITEM: NUMBER OF ATOMS
350
ITEM: BOX BOUNDS xy xz yz pp pp pp
-6.7789339999999996e+00 1.5238200000000001e+01 -6.3307339999999996e+00
-6.4200000000000002e-01 1.4502800000000001e+01 -4.4819999999999999e-01
0.0000000000000000e+00 1.7008500000000002e+01 -6.4200000000000002e-01
ITEM: ATOMS id type q x y z
7 4 1.29638 -0.743394 2.49277 3.64388
180 3 -0.832426 3.7731 -0.0239579 3.02859
14 4 1.46127 0.0134055 4.83921 1.87802
17 4 1.24284 -0.684057 6.76141 6.68813
26 4 1.04643 4.24403 1.45847 3.11668
34 4 1.28594 5.68673 3.72401 7.05811
33 4 1.2826 1.28809 6.37695 4.28822
318 2 0.159363 1.29153 0.827791 1.09743
36 4 1.43285 4.30069 5.82448 5.16825
57 1 -0.657997 1.44613 0.261877 6.41539
62 1 -0.683126 2.86311 2.52366 3.90364
77 2 0.00913238 0.91634 2.79518 4.10328
195 3 -0.754505 4.28635 4.31457 5.90012
79 2 0.0871391 -0.418774 5.87099 8.08786
82 2 0.07414 4.54569 2.05726 1.4748
316 2 0.168413 2.87003 1.33304 0.0691975
103 2 0.174015 1.37021 1.37469 6.21239
321 2 0.189824 -1.12619 2.78183 8.18238
117 2 0.165855 2.30957 1.74613 4.46927
118 2 0.193359 2.35979 2.97412 3.04381
119 2 0.274988 3.42842 3.26362 4.73933
164 3 -0.813205 -1.24377 3.70706 2.80097
165 3 -0.830369 1.25076 3.88737 1.16431
166 3 -0.863226 -0.753492 5.67483 0.780927
167 3 -0.840108 -2.16991 6.36755 6.26637
182 3 -0.796683 5.60712 1.63795 3.96748
201 3 -0.803312 4.34953 6.86824 6.61298
189 3 -0.854597 0.656101 5.66895 3.03008
190 3 -0.869271 0.46951 6.34572 5.63931
191 3 -0.781814 4.71987 2.90156 8.20504
194 3 -0.842303 2.90778 6.01942 4.4425
9 4 1.08985 2.70656 -0.291529 7.75102
295 2 -0.019527 -0.154865 0.401511 0.26547
315 1 -0.664106 1.62898 1.18887 0.0642041
185 3 -0.749048 5.13028 2.84037 0.145216
183 3 -0.849034 7.11391 0.077302 5.82293
272 2 0.182161 5.1795 5.39798 0.615057
200 3 -0.851752 2.3666 6.66532 8.39004
104 2 0.24338 0.413985 -0.194373 6.65968
8 4 1.24599 0.839307 2.40415 16.7882
11 4 1.34264 3.09278 0.0168031 13.3889