ITEM: TIMESTEP
0
ITEM: NUMBER OF ATOMS
350
ITEM: BOX BOUNDS xy xz yz pp pp pp
-6.7108999999999996e+00 1.5238200000000001e+01 -6.2626999999999997e+00
-6.4200000000000002e-01 1.4502800000000001e+01 -4.4819999999999999e-01
0.0000000000000000e+00 1.7008500000000002e+01 -6.4200000000000002e-01
ITEM: ATOMS id type q x y z
103 2 0.19658 0.943466 0.0506694 6.36783
185 3 -0.761477 5.51301 2.42037 0.203044
14 4 1.46606 0.129037 4.65272 1.75343
320 2 0.147337 -1.58229 3.2114 8.4614
26 4 1.03909 4.22889 1.53377 3.22867
183 3 -0.857185 6.80993 0.449542 6.15124
33 4 1.31442 1.49415 6.53968 3.70354
34 4 1.32584 5.29414 3.88806 7.06727
36 4 1.45506 4.11647 6.03531 5.3138
57 1 -0.674796 1.99219 0.548111 6.40751
62 1 -0.650273 2.92578 2.53905 4.10293
77 2 0.0116832 0.927136 2.86456 4.07504
191 3 -0.855374 4.62671 3.16063 8.22707
79 2 0.0773658 0.572425 6.36443 7.39831
82 2 0.0755445 4.8116 2.10405 1.66442
318 2 0.160753 1.22669 0.593776 1.07506
104 2 0.155717 2.66742 0.300078 5.4763
105 2 0.184783 1.93049 1.62511 6.66552
117 2 0.170473 2.14552 1.77964 4.36596
118 2 0.153648 2.69159 3.15564 3.01201
119 2 0.275374 3.23781 3.31383 4.99873
164 3 -0.811079 -1.29258 3.76285 2.76056
165 3 -0.862263 1.09837 3.66037 0.979093
166 3 -0.885402 -0.417891 5.84351 0.852348
167 3 -0.781947 -1.73978 5.92314 6.06156
182 3 -0.820431 5.52869 1.58093 4.10416
180 3 -0.834459 3.50655 0.10312 2.93906
189 3 -0.845047 1.08045 5.31158 2.84548
272 2 0.173356 4.93393 5.39593 0.392979
7 4 1.21964 -0.69009 2.50618 3.63915
194 3 -0.816888 3.05546 6.38892 4.02813
195 3 -0.753696 3.71199 4.56063 6.07332
16 4 1.29724 -0.176383 7.14381 0.0356868
316 2 0.190385 2.79614 0.794784 0.146647
190 3 -0.873885 0.504888 6.9232 4.87
315 1 -0.675467 1.64322 0.886072 0.0904871
17 4 1.23646 -0.446586 6.87425 6.15875
8 4 1.35279 1.0921 2.15517 16.6857
11 4 1.33308 2.81191 -0.296176 13.5935
13 4 1.25211 1.10632 1.17045 11.6532
18 4 1.23528 -0.233834 3.69364 12.7973
19 4 1.23195 -1.38375 6.33264 11.0246
28 4 1.41225 4.69676 1.97831 9.26235
31 4 1.21971 4.03914 1.9509 15.5061
35 4 1.137 1.22234 5.93815 9.787
317 2 0.16371 0.695642 -0.364966 16.1625
63 1 -0.653096 3.75574 2.76602 10.7813
64 1 -0.669649 4.77693 3.2363 14.3914
67 1 -0.700831 2.38655 5.48536 14.2329
83 2 0.0104714 2.29913 1.44114 10.4606
84 2 -0.00625686 0.759892 4.33466 9.27774
85 2 0.0109293 0.711032 4.40603 14.0122
200 3 -0.764222 1.79691 6.68243 8.52565
321 2 0.146704 0.26444 2.61641 8.87139
120 2 0.173036 3.52431 2.07309 11.664
121 2 0.1696 2.88591 3.17021 10.1469
122 2 0.171857 4.38647 3.68569 11.1379
123 2 0.200013 4.99309 2.6088 13.4807
188 3 -0.822557 6.82548 0.55609 12.3306
309 2 0.172661 -2.59931 6.00229 14.2156
132 2 0.198551 1.77616 5.5969 13.3047
133 2 0.190242 2.38535 4.51527 14.8226
134 2 0.147198 3.45115 5.83626 14.0459
161 3 -0.877975 -0.0501189 2.11002 15.6086
162 3 -0.801595 -0.0264087 0.396681 10.9146
163 3 -0.891068 1.65443 0.427511 12.9216
38 4 1.09439 3.63584 6.58637 11.5366
169 3 -0.84365 0.563483 2.70177 11.9322
170 3 -0.812349 -0.787391 5.04491 11.9571
181 3 -0.824482 3.76449 0.711902 8.63796
184 3 -0.78789 3.76398 0.708941 14.4232
322 2 0.19642 -0.689773 3.88473 9.96418
186 3 -0.813869 2.58358 2.46015 16.0011
187 3 -0.81892 5.99151 1.75239 10.0519
125 2 0.159936 3.82647 4.07342 14.3076
168 3 -0.798619 -1.5348 2.89612 13.421
198 3 -0.810815 2.39712 5.8077 11.0318
319 1 -0.68321 -0.750835 3.06553 9.27954
12 4 1.23576 -1.37642 1.93937 14.7807
324 2 0.181659 0.293358 -0.131484 14.73
110 2 0.18677 -2.12881 5.75892 8.7867
336 2 0.0186125 -1.68019 6.32953 15.744
59 1 -0.671898 -2.67653 5.75994 9.75926
135 2 0.161265 5.05469 4.61793 10.4018
197 3 -0.838274 0.811 6.59363 16.3124
1 4 1.05092 -3.66184 13.3804 2.44594
2 1 -0.665111 -4.50141 12.2646 3.70462
3 2 0.123028 -3.47527 11.3452 3.3051
143 2 0.187461 -1.22708 13.5794 4.90621
6 3 -0.826687 -3.58455 12.7943 0.961312
5 2 0.166894 -4.51214 12.4519 4.77808
20 4 1.23725 -1.61428 9.77407 1.30035
22 4 1.03379 -1.88663 9.56367 7.35149
334 2 0.043174 -5.30427 13.8964 2.97234
39 4 1.10515 -0.250182 11.8677 3.73463
40 4 0.934814 2.95547 7.92013 7.44658
42 4 1.00531 1.72862 11.376 6.08096
60 1 -0.677883 -2.98776 8.87822 2.24486
61 1 -0.692939 -2.96216 10.1635 5.95013
69 1 -0.667848 0.374196 13.3696 2.77942
70 1 -0.690178 -1.63594 12.4519 5.04352
87 2 0.02218 1.40395 7.8936 2.62303
88 2 0.023581 1.9449 8.87809 6.32289
100 2 0.0624003 0.854291 10.2259 7.1457
287 2 0.173108 3.29855 8.2787 2.51899
337 2 0.016256 -2.9736 8.25027 5.2498
114 2 0.172769 -3.91395 9.72862 5.45451
115 2 0.155437 -2.03622 10.0499 5.15029
116 2 0.16489 -3.10468 11.2292 6.29129
201 3 -0.840822 3.93351 7.21141 6.46945
172 3 -0.82076 -2.2926 10.6048 0.078433
285 2 0.214426 1.81995 9.5317 2.56052
141 2 0.182296 -1.44613 11.99 6.00521
142 2 0.173183 -2.73009 12.3611 4.68235
286 2 0.187686 2.91169 9.35869 4.11315
171 3 -0.813077 -0.659915 8.54697 0.561052
174 3 -0.841672 -4.17701 13.0964 8.33303
173 3 -0.82535 -1.04192 8.23247 6.72901
71 1 -0.71197 2.71354 9.94085 7.70043
78 2 0.0324245 -1.93855 13.4624 6.71276
199 3 -0.768793 -0.86636 10.8966 2.5679
202 3 -0.803165 -1.17807 10.7011 8.23701
9 4 1.11399 -3.22054 14.2065 7.73782
205 3 -0.805427 1.01051 11.2085 4.66641
140 2 0.2099 -0.143001 13.1002 1.78667
278 1 -0.661219 2.82029 9.22578 2.99623
113 2 0.157273 -3.09433 9.39413 3.23305
138 2 0.187027 1.52164 13.3792 2.66226
112 2 0.184124 -3.83076 9.12651 1.51136
111 2 0.192578 -2.76426 7.76688 2.30687
80 2 0.0262748 -3.42601 9.12478 8.01844
139 2 0.207535 -0.0529657 14.3773 3.19667
203 3 -0.79681 0.2272 13.2105 8.35758
290 3 -0.776262 2.62985 11.3793 1.1538
339 2 0.0541101 -4.40457 13.317 14.7437
23 4 0.984155 -4.81682 12.4091 9.56779
24 4 1.04789 -3.21446 8.9607 12.169
25 4 1.52431 -2.48753 12.0267 11.4929
208 3 -0.832734 3.42095 7.87508 12.3395
37 4 1.35477 2.03291 7.04669 15.4462
41 4 1.50693 -0.347608 11.9156 9.28918
43 4 1.42098 2.52798 9.06917 13.1346
44 4 1.356 -0.585181 12.0828 15.4028
45 4 1.29171 1.69142 11.1297 11.267
72 1 -0.686595 -4.04971 8.5667 13.7812
73 1 -0.648504 -0.686537 10.336 14.7145
252 2 0.173219 -4.43549 10.0744 9.4495
144 2 0.242157 2.16802 10.3833 8.57788
30 4 1.41022 0.970653 13.6456 13.0756
213 3 -0.77606 1.35946 9.81031 12.1648
21 4 1.43191 -3.37439 11.4113 16.6721
149 2 0.223498 -3.69355 9.36789 14.4589
150 2 0.286958 0.37776 9.75913 14.5294
151 2 0.278922 -1.36938 10.4317 13.7297
152 2 0.218456 -1.25854 9.71038 15.4764
175 3 -0.744414 -2.39083 7.72038 11.7509
176 3 -0.782224 -4.65562 11.1575 15.5282
177 3 -0.869805 -3.80616 11.8731 10.6361
178 3 -0.755386 -2.21228 10.3246 12.1739
179 3 -0.828336 -2.68594 13.2533 12.5177
196 3 -0.828445 3.33063 7.34988 16.2596
193 3 -0.735593 -0.241264 6.91865 10.0972
102 2 0.0841496 -5.73141 13.52 10.4306
204 3 -0.820263 -1.28887 12.4446 10.4691
207 3 -0.790675 1.73039 8.47294 14.4424
209 3 -0.810751 0.669736 12.1795 16.4756
210 3 -0.781298 -0.0258579 12.8075 14.0182
211 3 -0.803122 -2.15791 12.3962 15.9298
212 3 -0.860541 0.984359 11.175 9.88078
81 2 0.0247352 -4.37866 9.2665 10.9181
323 1 -0.664216 -6.36552 13.3418 14.5482
15 4 1.20617 11.9368 6.58858 5.42909
46 4 1.27559 9.61238 2.26837 3.77943
49 4 1.55372 12.1171 1.71748 5.52759
50 4 1.26876 10.9131 4.84059 3.07504
51 4 1.29707 7.11093 6.35365 4.6284
52 4 0.93523 9.34042 6.68023 0.973789
53 4 1.35227 10.6281 3.387 7.64084
54 4 1.25127 9.37197 5.98912 6.76926
66 1 -0.682196 6.17094 5.33412 7.93182
91 2 0.00390633 9.32109 1.45039 2.31795
94 2 0.101438 12.3425 3.92652 2.72646
95 2 0.0226332 7.69854 5.15106 3.59132
346 2 0.22031 9.84682 0.358109 0.355986
267 4 0.994141 6.74628 3.40984 0.591299
269 2 -0.0256885 7.23447 3.18351 2.21996
129 2 0.208046 5.86173 6.24594 7.3472
192 3 -0.804532 6.46258 3.00378 6.28367
215 3 -0.851424 8.2888 1.90083 4.63704
219 3 -0.801654 13.5794 2.35854 4.99236
220 3 -0.842768 11.0213 1.62421 4.29824
221 3 -0.820597 12.1346 0.193362 6.19203
222 3 -0.853429 9.75802 3.82403 3.56123
223 3 -0.835339 11.3601 6.04935 3.96785
224 3 -0.872401 5.66425 5.80834 4.90227
225 3 -0.798538 10.353 5.49892 1.71315
97 2 -0.00168472 11.7221 4.50124 8.46378
227 3 -0.877257 11.4368 2.6504 6.58795
96 2 -0.00179351 7.91986 5.82443 0.578014
229 3 -0.854609 8.13289 6.30781 5.85299
230 3 -0.819485 9.54445 4.42156 7.07399
271 2 0.0957785 6.53267 5.44302 1.5789
294 4 1.03433 13.6986 0.589641 1.49536
296 3 -0.838523 14.5648 1.1297 2.7443
347 2 0.170449 8.13207 0.385744 1.28706
297 3 -0.821383 12.4145 1.37975 1.00593
280 2 0.00697593 5.46855 6.99844 1.07491
268 1 -0.673331 6.04066 5.21016 0.429518
130 2 0.207285 7.26677 5.08635 7.85504
217 3 -0.82785 8.72939 0.325089 8.19955
98 2 -0.0167518 8.97347 6.68606 8.28549
340 2 -0.00306571 12.19 4.00622 0.733657
228 3 -0.870693 10.7887 6.77825 6.41381
295 2 -0.0172808 14.9155 0.531539 0.252648
29 4 1.55703 6.8665 1.7521 5.31974
10 4 1.00961 13.758 1.30696 9.74068
124 2 0.150294 5.6303 3.65965 15.041
32 4 1.37655 7.22593 1.59438 11.1985
48 4 1.29553 9.56574 1.13226 9.31235
58 1 -0.643391 12.1916 1.25008 11.0139
65 1 -0.65615 7.16943 3.29082 12.1844
68 1 -0.664194 5.30655 5.65418 11.0199
93 2 -0.00748926 11.1353 0.385175 9.6019
349 2 0.172105 7.92744 0.127343 15.2249
106 2 0.150502 11.0676 1.00549 11.2596
107 2 0.123381 12.3026 2.58533 10.753
108 2 0.17387 12.7393 0.974889 11.9674
126 2 0.178802 6.46566 4.1112 11.6873
127 2 0.179041 8.30839 3.62719 12.2608
128 2 0.174551 6.73186 2.91807 13.1748
136 2 0.0790289 5.28151 5.53 12.451
131 2 0.180357 5.8806 5.42268 9.02284
243 1 -0.661466 8.31905 6.45252 10.1395
245 2 -0.0159326 7.54541 6.27116 14.4144
335 2 -0.00426523 13.8895 0.306736 14.1454
329 2 0.147836 9.27084 0.30148 13.8913
218 3 -0.838999 8.71858 1.27652 10.6883
257 2 0.1573 7.90667 6.31869 11.1808
216 3 -0.847102 13.3422 0.343962 8.59739
248 2 0.0233043 8.37353 5.87692 16.1669
256 2 0.145292 7.55099 5.96211 9.2881
270 2 0.141549 6.13635 4.83707 16.4462
258 2 0.129921 9.40899 6.13986 10.0027
342 2 0.15686 11.6204 6.38644 9.78924
299 4 1.21125 8.9018 2.51451 15.6718
300 4 0.816363 10.1996 4.95395 14.1187
301 1 -0.666258 10.2718 4.14668 12.3818
302 1 -0.683357 11.8546 5.63158 14.9771
303 2 0.00371155 8.31014 1.59486 14.3988
304 2 -0.0117321 9.29822 6.44642 14.0221
305 2 0.186882 10.1766 3.03433 12.5897
306 2 0.153706 11.4696 4.54567 12.3062
307 2 0.168766 9.70317 4.49835 11.5276
298 4 1.22128 11.5312 1.95401 16.9421
137 2 0.161747 6.39166 6.01689 10.7091
226 3 -0.852597 9.97964 2.55075 8.77117
311 3 -0.841591 12.6469 2.14005 15.758
312 3 -0.839975 10.0525 1.77808 16.4489
313 3 -0.81908 7.56498 2.69383 16.6862
314 3 -0.812655 9.47012 3.84677 15.0421
109 2 0.134421 12.3866 4.68449 10.1984
328 1 -0.687685 8.51153 -0.370379 14.4384
310 2 0.197028 12.1523 4.62858 15.4509
308 2 0.141179 11.6549 6.33343 15.8394
275 4 1.28139 2.52954 12.6798 0.192066
47 4 1.22168 6.53343 13.8479 7.42478
55 4 1.06592 8.29225 8.736 3.10852
254 2 0.113257 7.97962 9.7242 8.03331
74 1 -0.650149 7.52615 10.5975 2.69936
75 1 -0.664684 9.67007 8.95705 4.40565
330 1 -0.674277 6.97733 13.3198 1.89771
92 2 0.000840033 5.27811 12.9441 8.2849
332 2 0.156654 7.40811 12.6393 0.999935
288 2 0.142326 3.32912 13.8953 2.01852
153 2 0.199583 6.57784 10.5173 3.32349
154 2 0.203595 7.38903 10.5856 1.56689
155 2 0.123237 8.34679 11.4314 2.97606
156 2 0.197894 10.6263 8.52459 4.02325
157 2 0.188104 9.18452 8.4527 5.377
158 2 0.135129 9.65907 10.1451 4.42776
206 3 -0.840518 2.0583 12.8075 6.66759
231 3 -0.811868 7.16032 7.75317 3.84026
232 3 -0.807881 8.90203 7.9329 1.74737
250 2 0.132445 9.83193 9.30345 7.92108
89 2 0.0473642 3.30201 10.6781 5.97186
274 4 1.29089 3.84173 10.557 1.94572
146 2 0.00888442 4.09489 8.82112 8.48011
276 4 0.972344 4.84389 12.6194 4.20309
277 4 0.836735 6.86084 11.4392 5.91754
333 2 0.174892 5.81387 13.1529 1.93125
331 2 0.155081 7.60671 13.1756 2.86588
281 2 0.0212854 6.00556 13.7622 3.60349
282 2 0.0309838 3.57579 13.5873 4.72931
283 2 -0.0214358 7.92181 11.0751 4.57565
284 2 -0.00107437 6.66256 10.0519 6.97061
145 2 0.146059 3.77897 10.3563 7.66576
289 3 -0.804361 4.9368 9.62036 1.01512
4 2 0.125856 9.64952 11.8848 3.27812
291 3 -0.819849 4.40387 11.6533 3.01829
292 3 -0.810925 5.36515 11.7215 5.42787
293 3 -0.785938 7.50876 12.8132 6.75793
326 2 0.151043 8.91072 11.6926 0.206549
279 1 -0.694517 2.85687 14.3715 1.08519
27 4 1.53567 1.3227 14.0451 7.32646
253 2 0.149614 6.51697 8.3632 8.35159
273 4 1.26857 5.13138 8.33617 0.0552333
242 1 -0.655305 7.08112 9.24667 8.73834
56 4 1.11109 4.3589 11.3941 14.7508
76 1 -0.682655 5.19135 12.9101 13.983
350 2 0.153497 5.08715 13.8575 14.7141
90 2 0.0149047 3.28653 10.9613 10.5036
101 2 0.026175 5.91433 10.8871 15.394
345 2 0.179555 7.12785 9.99095 16.3787
343 2 0.0908848 7.81806 13.2357 15.2897
159 2 0.161646 4.46464 12.9367 13.0863
160 2 0.17465 6.26818 12.7253 13.6981
348 2 0.272445 2.67259 13.1989 14.9463
233 3 -0.754542 3.7163 10.3354 13.7315
234 3 -0.800609 3.35215 11.8828 15.8253
235 4 1.08305 8.98342 11.3461 14.9432
236 4 1.08227 6.8264 7.80014 14.8055
237 4 0.8941 8.34515 8.54888 9.94716
238 4 1.38963 7.39748 9.8954 12.6841
239 4 0.69327 6.04396 12.3062 10.97
327 2 0.118428 6.90311 11.9663 16.4039
241 1 -0.643746 10.0987 9.26923 9.07355
240 1 -0.663313 8.57508 7.57232 15.4939
244 1 -0.637414 4.86115 11.4578 9.4664
246 2 0.00393902 6.68299 11.8979 9.34457
344 2 0.178491 8.64863 13.1752 13.3868
249 2 0.16802 8.45707 8.29357 16.4335
251 2 0.0906474 10.4434 7.98899 9.48542
148 2 0.179321 10.1348 8.80512 13.4377
341 2 -0.0105154 6.49075 13.9071 11.414
214 3 -0.826647 1.72326 12.57 12.1433
255 2 0.176179 6.29788 10.087 9.09301
99 2 0.0194891 9.87435 6.68853 16.587
260 2 0.0245482 4.18912 12.4996 10.7638
261 2 0.153586 4.82688 10.4004 9.985
262 3 -0.848426 5.82247 7.79597 15.9987
263 3 -0.821156 6.65254 8.7608 13.5829
264 3 -0.787405 8.16274 9.22562 11.324
265 3 -0.820981 8.59773 10.6219 13.5935
266 3 -0.763275 6.35852 11.2009 12.0337
338 2 -0.00894578 9.41056 11.1697 9.00782
325 1 -0.683994 7.6267 11.0338 16.3807
247 2 0.178231 9.46199 7.90662 14.8697
86 2 0.031652 4.67451 7.22706 10.1744
147 2 0.164424 11.3904 7.41158 14.1874
259 2 0.169593 4.16936 11.4359 8.57925
ITEM: TIMESTEP
100
ITEM: NUMBER OF ATOMS
350
ITEM: BOX BOUNDS xy xz yz pp pp pp
-6.7108999999999996e+00 1.5238200000000001e+01 -6.2626999999999997e+00
-6.4328399999999997e-01 1.4531805600000000e+01 -4.4819999999999999e-01
0.0000000000000000e+00 1.7008500000000002e+01 -6.4328399999999997e-01
ITEM: ATOMS id type q x y z
103 2 0.197459 0.892797 -0.0234064 6.45731
185 3 -0.77054 5.41865 2.45055 0.0700357
14 4 1.44938 0.226082 4.71877 1.76309
17 4 1.22097 -0.414714 6.99577 6.16245
26 4 0.972565 4.28353 1.49523 3.02368
183 3 -0.873065 6.91927 0.347786 6.19617
33 4 1.33025 1.50105 6.60327 3.79875
34 4 1.30657 5.32238 3.86379 7.09501
36 4 1.4984 4.16857 6.04235 5.26956
57 1 -0.669177 1.95006 0.440665 6.24739
62 1 -0.647561 2.95036 2.62375 3.7868
77 2 0.0346068 1.00683 2.90858 4.04354
191 3 -0.82195 4.61244 3.18185 8.34733
79 2 0.0446572 0.436903 6.11832 7.2777
82 2 0.0689683 4.78609 1.96081 1.44077
318 2 0.154639 1.36471 0.8959 1.20844
104 2 0.160456 2.46144 0.0385955 5.2689
105 2 0.188438 2.01885 1.54216 6.33837
117 2 0.161992 2.25072 1.73334 4.11941
118 2 0.15813 2.80495 3.20284 2.68087
119 2 0.28264 3.37065 3.31049 4.67906
164 3 -0.785207 -1.23365 3.83203 2.74129
165 3 -0.880912 1.07654 3.67736 0.947463
166 3 -0.866025 -0.535713 5.74393 0.745845
167 3 -0.778214 -1.6695 6.00769 5.86541
182 3 -0.77967 5.62409 1.5257 4.0077
180 3 -0.793656 3.59315 -0.00124895 3.00924
189 3 -0.84645 1.03225 5.2526 3.06225
320 2 0.187282 -1.27354 3.15868 8.15934
7 4 1.25638 -0.66617 2.62478 3.69373
194 3 -0.851577 2.98155 6.49058 4.26435
195 3 -0.788956 4.01608 4.54931 5.74296
200 3 -0.834168 1.84802 6.4901 8.39031
316 2 0.183345 2.89345 0.956942 0.136089
190 3 -0.86765 0.509613 7.04524 4.90079
315 1 -0.690674 1.76 0.991052 0.15868
295 2 -0.0198969 -0.17378 0.526143 0.256952
8 4 1.33934 1.01484 2.21415 16.6341
11 4 1.35105 2.77819 -0.285509 13.5852
13 4 1.20614 0.984035 1.24408 11.6311
18 4 1.30379 -0.233489 3.79228 12.8291
19 4 1.23116 -1.46926 6.40458 11.2339
28 4 1.33127 4.51738 1.95344 9.31209
31 4 1.24082 3.85652 1.91164 15.4062
35 4 1.20583 1.17012 5.98046 9.71789
317 2 0.163638 0.766384 -0.328649 16.326
63 1 -0.665394 3.52988 2.67947 10.7622
64 1 -0.66284 4.61551 3.21293 14.3402
67 1 -0.679766 2.39939 5.58803 14.2736
83 2 0.00478772 2.12852 1.2685 10.4061
84 2 0.00808 0.328392 4.50431 9.38281
85 2 0.0142537 0.746738 4.43124 14.059
197 3 -0.860195 0.768161 6.49418 16.3951
321 2 0.142295 0.320213 2.8373 9.23195
120 2 0.180868 3.37502 1.9615 11.6276
121 2 0.169636 2.5317 2.91562 10.2535
122 2 0.176911 4.09738 3.70883 11.045
123 2 0.193488 4.92445 2.66655 13.4132
188 3 -0.78143 6.80577 0.574638 12.5385
309 2 0.176895 -2.69609 6.06534 14.1913
132 2 0.196554 1.77179 5.69413 13.3255
133 2 0.197765 2.30536 4.6009 14.8809
134 2 0.166623 3.52816 5.92706 14.1245
161 3 -0.875121 -0.18337 2.11522 15.5675
162 3 -0.823665 -0.30076 0.451866 10.9224
163 3 -0.891906 1.67168 0.505061 12.7835
38 4 1.11455 3.55136 6.74762 11.3687
169 3 -0.833819 0.729791 2.89167 11.9901
170 3 -0.818899 -0.96026 4.96752 12.0552
181 3 -0.760381 3.63325 0.669635 8.57598
184 3 -0.823277 3.71161 0.603173 14.4774
322 2 0.173018 -1.2822 3.69591 10.0443
186 3 -0.827384 2.46565 2.61926 15.9096
187 3 -0.761415 6.0178 1.71647 10.0068
125 2 0.174408 3.8422 4.12946 14.1815
168 3 -0.840675 -1.3551 2.92944 13.4722
198 3 -0.801925 2.38743 5.86101 10.9218
319 1 -0.686979 -0.84091 2.97354 9.20138
16 4 1.29002 -0.694791 6.39795 16.9333
324 2 0.169275 0.512866 -0.022142 14.7183
110 2 0.159844 -1.88095 5.44894 8.77937
336 2 -0.00264136 -1.68882 6.2755 15.5459
59 1 -0.667003 -2.45978 5.64566 9.77077
135 2 0.165753 5.01641 4.66532 10.5424
193 3 -0.764957 -0.00468028 6.83524 10.3098
272 2 0.163614 4.63831 4.25387 16.9126
342 2 0.139403 -3.21611 6.49596 9.67629
1 4 1.04474 -3.65118 13.2938 2.42573
2 1 -0.672236 -4.55344 12.2816 3.85322
3 2 0.113046 -3.65124 11.3283 3.30374
143 2 0.206619 -1.31017 13.6077 5.05703
6 3 -0.822006 -3.36778 12.8248 1.00353
5 2 0.168107 -4.39562 12.3206 4.95676
20 4 1.21937 -1.66293 9.71021 1.31515
22 4 1.00992 -1.96889 9.4903 7.52372
334 2 0.0160137 -5.36936 13.5993 2.74678
39 4 1.10233 -0.2467 11.8443 3.59099
40 4 0.977334 2.87538 7.69576 7.55594
42 4 0.990724 1.88192 11.2884 5.99171
60 1 -0.661825 -3.08525 8.72833 2.102
61 1 -0.671191 -2.97731 10.1236 6.03473
69 1 -0.684103 0.38128 13.4669 2.85377
70 1 -0.667324 -1.57587 12.5326 4.92658
87 2 0.0254917 1.42575 7.90508 2.58698
88 2 0.0338169 1.73389 8.69153 6.58665
100 2 0.0635362 0.866925 10.3161 7.14975
287 2 0.15784 3.12687 8.36194 2.41192
337 2 -0.0065169 -2.82109 8.35493 5.1191
114 2 0.164964 -3.93956 9.79137 5.43417
115 2 0.167524 -2.06626 9.96642 5.27964
116 2 0.159851 -2.94564 11.2651 6.44497
201 3 -0.811256 3.98426 7.22734 6.61868
172 3 -0.814102 -2.40074 10.5373 0.137033
285 2 0.217202 1.63107 9.61175 2.8952
141 2 0.172582 -1.27151 11.8628 5.83483
142 2 0.172617 -2.70401 12.3827 4.59916
286 2 0.188004 3.1371 9.31375 4.05272
171 3 -0.788859 -0.566617 8.38121 0.666499
174 3 -0.804952 -4.12042 12.8316 8.20512
173 3 -0.838506 -0.989749 8.40499 6.80235
71 1 -0.700736 2.69701 9.89537 7.64743
78 2 0.0406013 -1.84275 13.2834 6.65644
199 3 -0.777701 -0.957143 10.7558 2.58296
202 3 -0.800715 -1.15893 10.7376 8.28297
9 4 1.01856 -3.21523 14.0175 7.47823
205 3 -0.788275 0.979719 11.1909 4.62209
140 2 0.221469 0.0674782 13.2003 1.75507
278 1 -0.656291 2.72599 9.30284 3.01359
113 2 0.150152 -2.85065 9.02749 3.18685
138 2 0.186268 1.46842 13.3485 3.1063
203 3 -0.858043 -0.0256915 13.1578 8.21245
111 2 0.197305 -2.87422 7.63403 1.85947
112 2 0.196853 -3.96365 9.22321 1.61463
27 4 1.51503 1.17665 13.8518 7.30242
139 2 0.251111 -0.0987558 14.3749 3.29752
144 2 0.234055 2.00327 10.1501 8.43144
339 2 0.0506507 -4.29714 13.3321 14.8336
23 4 0.982705 -4.79617 12.3428 9.52168
24 4 1.06392 -3.10222 9.01672 12.2178
25 4 1.52526 -2.47607 12.1159 11.5052
208 3 -0.850272 3.45365 7.80056 12.466
37 4 1.33297 1.98395 7.01024 15.5653
41 4 1.54521 -0.357986 11.9626 9.18301
43 4 1.46315 2.6727 9.0927 13.191
44 4 1.37574 -0.626861 12.0191 15.3731
45 4 1.30584 1.79988 11.2493 11.1675
72 1 -0.677297 -4.05354 8.65333 13.7966
73 1 -0.681473 -0.762074 10.1703 14.8228
252 2 0.176208 -4.22815 10.0629 9.62341
214 3 -0.818772 1.6717 12.5475 12.1722
30 4 1.37594 0.872955 13.6325 13.1857
213 3 -0.79924 1.72986 9.93528 12.0838
21 4 1.51486 -3.39692 11.4043 16.6415
149 2 0.210659 -3.7124 9.38288 14.5523
150 2 0.270661 0.231105 9.56386 14.7167
151 2 0.261209 -1.40438 10.2243 13.7713
152 2 0.220561 -1.37568 9.61545 15.5653
175 3 -0.82936 -2.31046 7.67051 11.8234
176 3 -0.844738 -4.8761 11.3162 15.785
177 3 -0.856369 -3.72359 11.9063 10.5392
178 3 -0.793083 -2.435 10.4532 12.359
179 3 -0.85547 -2.80331 13.1733 12.6233
196 3 -0.860184 3.29577 7.28649 16.3692
81 2 0.0148115 -4.41165 9.15445 11.1005
102 2 0.0518877 -5.7774 13.5365 10.2881
204 3 -0.825764 -1.20371 12.4269 10.4543
207 3 -0.770546 1.67 8.47452 14.4438
209 3 -0.798213 0.546239 12.209 16.6382
210 3 -0.807701 -0.257836 13.0173 14.2188
211 3 -0.825477 -2.15019 12.0955 16.0444
212 3 -0.860105 1.08115 11.2466 9.79215
323 1 -0.67149 -6.23745 13.4518 14.5846
80 2 -0.00832891 -3.08829 8.77851 8.6633
15 4 1.23558 12.0557 6.67424 5.32921
46 4 1.25675 9.68658 2.25039 3.77657
49 4 1.54699 12.0711 1.73077 5.5496
50 4 1.29597 11.04 4.83908 3.00982
51 4 1.28077 7.20844 6.36275 4.58783
52 4 0.921326 9.49845 6.59562 0.97884
53 4 1.31896 10.6082 3.5083 7.6496
54 4 1.23603 9.36389 6.05763 6.80093
66 1 -0.67223 6.21776 5.25084 7.97622
91 2 0.00517182 9.50843 1.40087 2.26972
94 2 0.104214 12.4095 3.91609 2.53353
95 2 -0.00956188 7.86627 5.24211 3.48729
346 2 0.207035 10.0157 0.119602 0.485999
267 4 0.982611 6.6591 3.33094 0.56399
269 2 -0.0295997 7.14564 2.86263 2.09712
129 2 0.206348 5.98631 6.1497 7.31644
192 3 -0.819341 6.33302 2.87958 6.31164
215 3 -0.815817 8.31886 2.0148 4.62863
219 3 -0.769365 13.7265 2.25008 5.02485
220 3 -0.85169 11.0464 1.4902 4.29984
221 3 -0.837155 12.1966 0.283857 6.23332
222 3 -0.865258 10.0097 3.77991 3.59571
223 3 -0.821953 11.5878 5.91628 3.98077
224 3 -0.846262 5.67865 6.0537 4.70872
225 3 -0.850051 10.4934 5.56841 1.6636
29 4 1.52439 6.8564 1.6835 5.39795
227 3 -0.854092 11.5758 2.76367 6.64758
96 2 0.0132807 8.0951 5.58224 0.458198
229 3 -0.846167 8.09755 6.42553 5.92069
230 3 -0.819046 9.55708 4.50174 7.0097
271 2 0.0905046 6.17603 5.27591 1.60388
294 4 1.0545 13.8241 0.683522 1.4798
296 3 -0.832977 14.5083 1.30157 2.73738
347 2 0.175754 8.29006 0.317748 1.30167
297 3 -0.818997 12.4997 1.35119 0.882834
280 2 0.00209856 5.48839 6.95001 1.03571
268 1 -0.656113 6.17262 5.23713 0.326717
130 2 0.20709 7.29606 4.94972 7.90043
217 3 -0.7614 8.63128 0.117388 8.3653
98 2 -0.0321604 9.05846 6.62538 8.36473
340 2 -0.00859355 12.152 4.04253 0.570835
228 3 -0.852994 10.8326 6.66981 6.27946
10 4 1.03884 13.7907 1.25211 9.81102
124 2 0.160119 5.59568 3.49362 14.951
32 4 1.31018 7.21048 1.68986 11.2573
48 4 1.26506 9.50439 1.18293 9.31873
58 1 -0.661205 12.106 1.3216 11.1325
65 1 -0.655062 7.46887 3.37886 12.0813
68 1 -0.669407 5.1956 5.71343 11.0478
93 2 -0.0114709 11.0309 0.455305 9.77514
349 2 0.174743 7.8396 0.176425 15.2443
106 2 0.162162 11.0555 1.11244 11.444
107 2 0.114245 12.1212 2.51873 10.6805
108 2 0.184402 12.7906 1.27422 11.9962
126 2 0.163357 6.80802 3.99896 11.3246
127 2 0.197182 8.61991 3.68448 12.0933
128 2 0.163345 7.00569 3.35761 13.1361
136 2 0.123474 5.23205 5.53192 12.2995
131 2 0.170483 5.83859 5.4543 9.1555
243 1 -0.670071 8.21065 6.63947 10.1891
245 2 0.000638231 7.53551 6.29311 14.6281
335 2 -0.00747429 13.9548 0.289032 14.0085
329 2 0.164776 9.28677 0.333517 13.9286
218 3 -0.820853 8.64791 1.40835 10.6964
257 2 0.160965 7.80364 6.60647 11.2625
216 3 -0.843512 13.3772 0.272787 8.61074
248 2 0.0227064 8.61132 5.8004 16.1831
256 2 0.146285 7.47222 6.159 9.34817
270 2 0.143382 6.1045 5.56071 16.871
258 2 0.13138 9.21439 6.15145 10.1505
12 4 1.25405 13.8034 1.86296 14.6948
299 4 1.22138 8.87672 2.58095 15.7259
300 4 0.801816 10.1161 4.99784 14.009
301 1 -0.657005 10.5702 4.21049 12.3176
302 1 -0.689737 11.7809 5.66185 14.865
303 2 0.0371987 8.36167 1.63038 14.4218
304 2 -0.013759 9.13614 6.43807 13.9485
305 2 0.186042 10.3631 3.26415 11.7188
306 2 0.192421 11.7384 4.2859 12.5737
307 2 0.108585 10.062 5.15662 11.7566
298 4 1.25622 11.5317 1.89913 16.8822
137 2 0.156528 6.25648 6.12076 10.7181
226 3 -0.851989 9.8617 2.52455 8.62792
311 3 -0.841084 12.4898 1.91171 15.6542
312 3 -0.836049 10.0138 1.73474 16.4429
313 3 -0.816751 7.52007 2.64909 16.6721
314 3 -0.813881 9.38292 3.84857 14.9617
109 2 0.140582 12.3635 4.67784 10.3054
328 1 -0.671267 8.49649 -0.34363 14.4304
310 2 0.185366 12.1423 4.63059 15.2973
308 2 0.141401 11.4899 6.41595 15.6025
97 2 -0.0110656 11.6585 4.3991 8.73174
275 4 1.27929 2.51744 12.6788 0.117936
47 4 1.2249 6.44904 13.9306 7.46411
55 4 1.14664 8.21009 8.6765 3.10281
254 2 0.116246 7.80768 9.60336 7.87109
74 1 -0.652329 7.68678 10.5691 2.8171
75 1 -0.668696 9.6685 9.23866 4.27082
330 1 -0.688437 7.10175 13.3506 1.81266
92 2 0.0139524 5.06592 13.1958 8.26831
332 2 0.155702 7.47565 12.639 0.922555
288 2 0.157366 3.38666 13.6774 2.16975
153 2 0.183714 6.80708 11.0286 3.34082
154 2 0.174415 7.29952 10.2511 1.71863
155 2 0.131808 8.6115 11.3145 2.82304
156 2 0.181529 10.4772 8.46866 4.14767
157 2 0.161868 9.16611 9.01632 5.2439
158 2 0.179534 9.97601 10.2867 4.11463
206 3 -0.811674 2.17146 12.7464 6.5187
231 3 -0.815565 7.2187 7.84139 3.89573
232 3 -0.808668 8.89976 7.88406 1.88021
250 2 0.13722 10.0591 9.3481 8.09592
89 2 0.0394625 3.34636 10.2496 5.90961
274 4 1.33578 3.75661 10.5111 1.83782
273 4 1.28745 5.05044 8.31233 0.0475401
276 4 1.0032 4.88353 12.5347 4.18117
277 4 0.905032 6.76846 11.3977 6.08223
333 2 0.180021 6.00597 13.393 1.88408
331 2 0.154513 7.64473 13.131 2.76511
281 2 0.0124157 6.16688 13.4625 3.56062
282 2 0.0338769 3.74334 13.7377 4.51352
283 2 -0.00172951 7.80965 10.8698 4.74493
284 2 0.00536058 6.43836 9.98634 6.96774
145 2 0.147942 3.78812 10.4351 7.75303
289 3 -0.832898 4.80087 9.56101 1.04545
4 2 0.137918 9.6171 11.9923 3.5771
291 3 -0.812332 4.4203 11.587 3.01933
292 3 -0.831648 5.34022 11.8496 5.47254
293 3 -0.786861 7.38428 12.5444 6.9376
326 2 0.151742 8.80474 11.6727 0.246066
279 1 -0.682759 2.95455 14.1897 1.21979
259 2 0.162888 4.41394 11.6047 8.36085
290 3 -0.79819 2.69896 11.3479 1.01444
242 1 -0.645326 7.0416 9.32638 8.72616
56 4 1.12643 4.37266 11.2946 14.7783
76 1 -0.681612 5.11192 12.8767 14.0859
350 2 0.191335 4.91451 13.6326 14.8827
90 2 0.0168387 3.38794 11.0617 10.4366
101 2 0.0263311 5.97457 10.7736 15.2566
345 2 0.184792 6.87729 10.0665 16.6452
343 2 0.0890573 8.01081 13.3642 15.3462
159 2 0.161446 4.41396 13.0193 13.1696
160 2 0.160196 6.23814 12.6757 13.8407
348 2 0.239637 2.67158 13.235 14.9545
233 3 -0.811253 3.62245 10.3306 13.7836
234 3 -0.802893 3.47667 11.8846 15.9058
235 4 1.14699 9.02396 11.3882 15.0382
236 4 1.08917 6.88447 7.9108 14.866
237 4 0.900981 8.35415 8.65814 9.95419
238 4 1.44633 7.45309 9.98049 12.602
239 4 0.695074 5.98945 12.2857 11.0215
327 2 0.108309 7.05739 11.8498 16.1778
241 1 -0.686571 10.2911 9.22735 9.18816
240 1 -0.634063 8.65831 7.5305 15.4961
244 1 -0.646756 4.9314 11.6354 9.4119
246 2 0.0432529 6.67849 11.8158 9.32806
344 2 0.183114 8.72687 13.3593 13.5016
249 2 0.146381 8.42103 8.54809 16.3356
251 2 0.126241 10.692 8.21671 9.39983
148 2 0.177279 10.1279 8.83896 13.3732
341 2 0.000137723 6.33866 13.9433 11.3865
146 2 0.00130647 3.62507 8.67187 8.81043
255 2 0.177355 6.19471 10.1164 8.93613
99 2 0.0215416 9.96359 6.80726 16.7107
260 2 0.0121093 4.21543 12.7813 10.585
261 2 0.138839 4.84396 10.58 9.96489
262 3 -0.85949 5.75454 7.87204 15.9889
263 3 -0.824977 6.92133 8.82076 13.6439
264 3 -0.824416 8.05352 9.27955 11.3104
265 3 -0.803008 8.63705 10.7167 13.657
266 3 -0.800884 6.41244 11.1684 12.0986
338 2 -0.00127667 9.44596 11.014 9.22809
325 1 -0.673191 7.61402 10.8546 16.3567
247 2 0.173504 9.57489 7.88324 14.8287
86 2 0.00165023 4.56983 7.25506 10.0144
253 2 0.134157 6.58854 8.19053 8.63354
147 2 0.15376 11.3359 7.4999 14.1934
ITEM: TIMESTEP
200
ITEM: NUMBER OF ATOMS
350
ITEM: BOX BOUNDS xy xz yz pp pp pp
-6.7108999999999996e+00 1.5238200000000001e+01 -6.2626999999999997e+00
-6.4456800000000003e-01 1.4560811200000000e+01 -4.4819999999999999e-01
0.0000000000000000e+00 1.7008500000000002e+01 -6.4456800000000003e-01
ITEM: ATOMS id type q x y z
315 1 -0.682449 1.72802 0.955068 0.157835
201 3 -0.790102 4.18006 6.97369 6.83574
14 4 1.4454 0.22385 4.77815 1.82548
185 3 -0.753949 5.33469 2.48782 0.077149
26 4 0.96353 4.34682 1.47088 3.05594
183 3 -0.850911 6.89735 0.367569 6.2557
33 4 1.30471 1.48151 6.69248 3.81113
34 4 1.30841 5.32202 3.73644 6.9814
36 4 1.43405 4.19744 5.96806 5.30987
57 1 -0.664028 1.99715 0.302928 6.19879
62 1 -0.663844 2.93515 2.50179 3.81897
77 2 0.0233615 0.98239 2.72984 4.17986
191 3 -0.822354 4.43584 3.06707 8.16591
79 2 0.0968656 0.516241 6.08554 7.31331
82 2 0.0780734 4.85188 2.03559 1.49128
318 2 0.15461 1.27625 0.691625 1.15133
104 2 0.149232 2.79139 0.0222347 5.33957
105 2 0.192662 1.70026 1.35093 6.34042
117 2 0.172459 2.25833 1.593 4.06173
118 2 0.169528 2.7203 3.03166 2.75484
119 2 0.282566 3.28481 3.23098 4.62151
164 3 -0.794427 -1.05055 3.76609 2.77318
165 3 -0.843405 1.16628 3.60854 1.11253
166 3 -0.857268 -0.55211 5.87384 0.860834
167 3 -0.785033 -1.93488 6.17315 6.00619
182 3 -0.804552 5.67301 1.45953 4.14755
180 3 -0.811869 3.59853 -0.0209543 2.90889
189 3 -0.86705 0.980931 5.47889 3.00903
320 2 0.198351 -1.08504 3.00203 8.09192
7 4 1.24961 -0.649514 2.46832 3.67373
194 3 -0.852164 2.95926 6.51057 4.34207
195 3 -0.778253 4.03275 4.40172 5.77577
200 3 -0.795958 1.59937 6.3873 8.3718
316 2 0.176356 2.90304 1.02407 0.139912
295 2 -0.00844604 -0.162538 0.459353 0.10852
17 4 1.21451 -0.433409 7.0117 6.18759
8 4 1.28459 1.0191 2.1345 16.7137
11 4 1.36855 2.74841 -0.265073 13.528
13 4 1.21646 0.988597 1.37383 11.6623
18 4 1.27079 -0.423122 3.86852 12.8712
19 4 1.26143 -1.43219 6.44125 11.179