ITEM: TIMESTEP
0
ITEM: NUMBER OF ATOMS
350
ITEM: BOX BOUNDS xy xz yz pp pp pp
-6.7108999999999996e+00 1.5238200000000001e+01 -6.2626999999999997e+00
-6.4200000000000002e-01 1.4502800000000001e+01 -4.4819999999999999e-01
0.0000000000000000e+00 1.7008500000000002e+01 -6.4200000000000002e-01
ITEM: ATOMS id type q x y z
103 2 0.19658 0.943466 0.0506694 6.36783
185 3 -0.761477 5.51301 2.42037 0.203044
14 4 1.46606 0.129037 4.65272 1.75343
320 2 0.147337 -1.58229 3.2114 8.4614
26 4 1.03909 4.22889 1.53377 3.22867
183 3 -0.857185 6.80993 0.449542 6.15124
33 4 1.31442 1.49415 6.53968 3.70354
34 4 1.32584 5.29414 3.88806 7.06727
36 4 1.45506 4.11647 6.03531 5.3138
57 1 -0.674796 1.99219 0.548111 6.40751
62 1 -0.650273 2.92578 2.53905 4.10293
77 2 0.0116832 0.927136 2.86456 4.07504
191 3 -0.855374 4.62671 3.16063 8.22707
79 2 0.0773658 0.572425 6.36443 7.39831
82 2 0.0755445 4.8116 2.10405 1.66442
318 2 0.160753 1.22669 0.593776 1.07506
104 2 0.155717 2.66742 0.300078 5.4763
105 2 0.184783 1.93049 1.62511 6.66552
117 2 0.170473 2.14552 1.77964 4.36596
118 2 0.153648 2.69159 3.15564 3.01201
119 2 0.275374 3.23781 3.31383 4.99873
164 3 -0.811079 -1.29258 3.76285 2.76056
165 3 -0.862263 1.09837 3.66037 0.979093
166 3 -0.885402 -0.417891 5.84351 0.852348
167 3 -0.781947 -1.73978 5.92314 6.06156
182 3 -0.820431 5.52869 1.58093 4.10416
180 3 -0.834459 3.50655 0.10312 2.93906
189 3 -0.845047 1.08045 5.31158 2.84548
272 2 0.173356 4.93393 5.39593 0.392979
7 4 1.21964 -0.69009 2.50618 3.63915
194 3 -0.816888 3.05546 6.38892 4.02813
195 3 -0.753696 3.71199 4.56063 6.07332
16 4 1.29724 -0.176383 7.14381 0.0356868
316 2 0.190385 2.79614 0.794784 0.146647
190 3 -0.873885 0.504888 6.9232 4.87
315 1 -0.675467 1.64322 0.886072 0.0904871
17 4 1.23646 -0.446586 6.87425 6.15875
8 4 1.35279 1.0921 2.15517 16.6857
11 4 1.33308 2.81191 -0.296176 13.5935
13 4 1.25211 1.10632 1.17045 11.6532
18 4 1.23528 -0.233834 3.69364 12.7973
19 4 1.23195 -1.38375 6.33264 11.0246
28 4 1.41225 4.69676 1.97831 9.26235
31 4 1.21971 4.03914 1.9509 15.5061
35 4 1.137 1.22234 5.93815 9.787
317 2 0.16371 0.695642 -0.364966 16.1625
63 1 -0.653096 3.75574 2.76602 10.7813
64 1 -0.669649 4.77693 3.2363 14.3914
67 1 -0.700831 2.38655 5.48536 14.2329
83 2 0.0104714 2.29913 1.44114 10.4606
84 2 -0.00625686 0.759892 4.33466 9.27774
85 2 0.0109293 0.711032 4.40603 14.0122
200 3 -0.764222 1.79691 6.68243 8.52565
321 2 0.146704 0.26444 2.61641 8.87139
120 2 0.173036 3.52431 2.07309 11.664
121 2 0.1696 2.88591 3.17021 10.1469
122 2 0.171857 4.38647 3.68569 11.1379
123 2 0.200013 4.99309 2.6088 13.4807
188 3 -0.822557 6.82548 0.55609 12.3306
309 2 0.172661 -2.59931 6.00229 14.2156
132 2 0.198551 1.77616 5.5969 13.3047
133 2 0.190242 2.38535 4.51527 14.8226
134 2 0.147198 3.45115 5.83626 14.0459
161 3 -0.877975 -0.0501189 2.11002 15.6086
162 3 -0.801595 -0.0264087 0.396681 10.9146
163 3 -0.891068 1.65443 0.427511 12.9216
38 4 1.09439 3.63584 6.58637 11.5366
169 3 -0.84365 0.563483 2.70177 11.9322
170 3 -0.812349 -0.787391 5.04491 11.9571
181 3 -0.824482 3.76449 0.711902 8.63796
184 3 -0.78789 3.76398 0.708941 14.4232
322 2 0.19642 -0.689773 3.88473 9.96418
186 3 -0.813869 2.58358 2.46015 16.0011
187 3 -0.81892 5.99151 1.75239 10.0519
125 2 0.159936 3.82647 4.07342 14.3076
168 3 -0.798619 -1.5348 2.89612 13.421
198 3 -0.810815 2.39712 5.8077 11.0318
319 1 -0.68321 -0.750835 3.06553 9.27954
12 4 1.23576 -1.37642 1.93937 14.7807
324 2 0.181659 0.293358 -0.131484 14.73
110 2 0.18677 -2.12881 5.75892 8.7867
336 2 0.0186125 -1.68019 6.32953 15.744
59 1 -0.671898 -2.67653 5.75994 9.75926
135 2 0.161265 5.05469 4.61793 10.4018
197 3 -0.838274 0.811 6.59363 16.3124
1 4 1.05092 -3.66184 13.3804 2.44594
2 1 -0.665111 -4.50141 12.2646 3.70462
3 2 0.123028 -3.47527 11.3452 3.3051
143 2 0.187461 -1.22708 13.5794 4.90621
6 3 -0.826687 -3.58455 12.7943 0.961312
5 2 0.166894 -4.51214 12.4519 4.77808
20 4 1.23725 -1.61428 9.77407 1.30035
22 4 1.03379 -1.88663 9.56367 7.35149
334 2 0.043174 -5.30427 13.8964 2.97234
39 4 1.10515 -0.250182 11.8677 3.73463
40 4 0.934814 2.95547 7.92013 7.44658
42 4 1.00531 1.72862 11.376 6.08096
60 1 -0.677883 -2.98776 8.87822 2.24486
61 1 -0.692939 -2.96216 10.1635 5.95013
69 1 -0.667848 0.374196 13.3696 2.77942
70 1 -0.690178 -1.63594 12.4519 5.04352
87 2 0.02218 1.40395 7.8936 2.62303
88 2 0.023581 1.9449 8.87809 6.32289
100 2 0.0624003 0.854291 10.2259 7.1457
287 2 0.173108 3.29855 8.2787 2.51899
337 2 0.016256 -2.9736 8.25027 5.2498
114 2 0.172769 -3.91395 9.72862 5.45451
115 2 0.155437 -2.03622 10.0499 5.15029
116 2 0.16489 -3.10468 11.2292 6.29129
201 3 -0.840822 3.93351 7.21141 6.46945
172 3 -0.82076 -2.2926 10.6048 0.078433
285 2 0.214426 1.81995 9.5317 2.56052
141 2 0.182296 -1.44613 11.99 6.00521
142 2 0.173183 -2.73009 12.3611 4.68235
286 2 0.187686 2.91169 9.35869 4.11315
171 3 -0.813077 -0.659915 8.54697 0.561052
174 3 -0.841672 -4.17701 13.0964 8.33303
173 3 -0.82535 -1.04192 8.23247 6.72901
71 1 -0.71197 2.71354 9.94085 7.70043
78 2 0.0324245 -1.93855 13.4624 6.71276
199 3 -0.768793 -0.86636 10.8966 2.5679
202 3 -0.803165 -1.17807 10.7011 8.23701
9 4 1.11399 -3.22054 14.2065 7.73782
205 3 -0.805427 1.01051 11.2085 4.66641
140 2 0.2099 -0.143001 13.1002 1.78667
278 1 -0.661219 2.82029 9.22578 2.99623
113 2 0.157273 -3.09433 9.39413 3.23305
138 2 0.187027 1.52164 13.3792 2.66226
112 2 0.184124 -3.83076 9.12651 1.51136
111 2 0.192578 -2.76426 7.76688 2.30687
80 2 0.0262748 -3.42601 9.12478 8.01844
139 2 0.207535 -0.0529657 14.3773 3.19667
203 3 -0.79681 0.2272 13.2105 8.35758
290 3 -0.776262 2.62985 11.3793 1.1538
339 2 0.0541101 -4.40457 13.317 14.7437
23 4 0.984155 -4.81682 12.4091 9.56779
24 4 1.04789 -3.21446 8.9607 12.169
25 4 1.52431 -2.48753 12.0267 11.4929
208 3 -0.832734 3.42095 7.87508 12.3395
37 4 1.35477 2.03291 7.04669 15.4462
41 4 1.50693 -0.347608 11.9156 9.28918
43 4 1.42098 2.52798 9.06917 13.1346
44 4 1.356 -0.585181 12.0828 15.4028
45 4 1.29171 1.69142 11.1297 11.267
72 1 -0.686595 -4.04971 8.5667 13.7812
73 1 -0.648504 -0.686537 10.336 14.7145
252 2 0.173219 -4.43549 10.0744 9.4495
144 2 0.242157 2.16802 10.3833 8.57788
30 4 1.41022 0.970653 13.6456 13.0756
213 3 -0.77606 1.35946 9.81031 12.1648
21 4 1.43191 -3.37439 11.4113 16.6721
149 2 0.223498 -3.69355 9.36789 14.4589
150 2 0.286958 0.37776 9.75913 14.5294
151 2 0.278922 -1.36938 10.4317 13.7297
152 2 0.218456 -1.25854 9.71038 15.4764
175 3 -0.744414 -2.39083 7.72038 11.7509
176 3 -0.782224 -4.65562 11.1575 15.5282
177 3 -0.869805 -3.80616 11.8731 10.6361
178 3 -0.755386 -2.21228 10.3246 12.1739
179 3 -0.828336 -2.68594 13.2533 12.5177
196 3 -0.828445 3.33063 7.34988 16.2596
193 3 -0.735593 -0.241264 6.91865 10.0972
102 2 0.0841496 -5.73141 13.52 10.4306
204 3 -0.820263 -1.28887 12.4446 10.4691
207 3 -0.790675 1.73039 8.47294 14.4424
209 3 -0.810751 0.669736 12.1795 16.4756
210 3 -0.781298 -0.0258579 12.8075 14.0182
211 3 -0.803122 -2.15791 12.3962 15.9298
212 3 -0.860541 0.984359 11.175 9.88078
81 2 0.0247352 -4.37866 9.2665 10.9181
323 1 -0.664216 -6.36552 13.3418 14.5482
15 4 1.20617 11.9368 6.58858 5.42909
46 4 1.27559 9.61238 2.26837 3.77943
49 4 1.55372 12.1171 1.71748 5.52759
50 4 1.26876 10.9131 4.84059 3.07504
51 4 1.29707 7.11093 6.35365 4.6284
52 4 0.93523 9.34042 6.68023 0.973789
53 4 1.35227 10.6281 3.387 7.64084
54 4 1.25127 9.37197 5.98912 6.76926
66 1 -0.682196 6.17094 5.33412 7.93182
91 2 0.00390633 9.32109 1.45039 2.31795
94 2 0.101438 12.3425 3.92652 2.72646
95 2 0.0226332 7.69854 5.15106 3.59132
346 2 0.22031 9.84682 0.358109 0.355986
267 4 0.994141 6.74628 3.40984 0.591299
269 2 -0.0256885 7.23447 3.18351 2.21996
129 2 0.208046 5.86173 6.24594 7.3472
192 3 -0.804532 6.46258 3.00378 6.28367
215 3 -0.851424 8.2888 1.90083 4.63704
219 3 -0.801654 13.5794 2.35854 4.99236
220 3 -0.842768 11.0213 1.62421 4.29824
221 3 -0.820597 12.1346 0.193362 6.19203
222 3 -0.853429 9.75802 3.82403 3.56123
223 3 -0.835339 11.3601 6.04935 3.96785
224 3 -0.872401 5.66425 5.80834 4.90227
225 3 -0.798538 10.353 5.49892 1.71315
97 2 -0.00168472 11.7221 4.50124 8.46378
227 3 -0.877257 11.4368 2.6504 6.58795
96 2 -0.00179351 7.91986 5.82443 0.578014
229 3 -0.854609 8.13289 6.30781 5.85299
230 3 -0.819485 9.54445 4.42156 7.07399
271 2 0.0957785 6.53267 5.44302 1.5789
294 4 1.03433 13.6986 0.589641 1.49536
296 3 -0.838523 14.5648 1.1297 2.7443
347 2 0.170449 8.13207 0.385744 1.28706
297 3 -0.821383 12.4145 1.37975 1.00593
280 2 0.00697593 5.46855 6.99844 1.07491
268 1 -0.673331 6.04066 5.21016 0.429518
130 2 0.207285 7.26677 5.08635 7.85504
217 3 -0.82785 8.72939 0.325089 8.19955
98 2 -0.0167518 8.97347 6.68606 8.28549
340 2 -0.00306571 12.19 4.00622 0.733657
228 3 -0.870693 10.7887 6.77825 6.41381
295 2 -0.0172808 14.9155 0.531539 0.252648
29 4 1.55703 6.8665 1.7521 5.31974
10 4 1.00961 13.758 1.30696 9.74068
124 2 0.150294 5.6303 3.65965 15.041
32 4 1.37655 7.22593 1.59438 11.1985
48 4 1.29553 9.56574 1.13226 9.31235
58 1 -0.643391 12.1916 1.25008 11.0139
65 1 -0.65615 7.16943 3.29082 12.1844
68 1 -0.664194 5.30655 5.65418 11.0199
93 2 -0.00748926 11.1353 0.385175 9.6019
349 2 0.172105 7.92744 0.127343 15.2249
106 2 0.150502 11.0676 1.00549 11.2596
107 2 0.123381 12.3026 2.58533 10.753
108 2 0.17387 12.7393 0.974889 11.9674
126 2 0.178802 6.46566 4.1112 11.6873
127 2 0.179041 8.30839 3.62719 12.2608
128 2 0.174551 6.73186 2.91807 13.1748
136 2 0.0790289 5.28151 5.53 12.451
131 2 0.180357 5.8806 5.42268 9.02284
243 1 -0.661466 8.31905 6.45252 10.1395
245 2 -0.0159326 7.54541 6.27116 14.4144
335 2 -0.00426523 13.8895 0.306736 14.1454
329 2 0.147836 9.27084 0.30148 13.8913
218 3 -0.838999 8.71858 1.27652 10.6883
257 2 0.1573 7.90667 6.31869 11.1808
216 3 -0.847102 13.3422 0.343962 8.59739
248 2 0.0233043 8.37353 5.87692 16.1669
256 2 0.145292 7.55099 5.96211 9.2881
270 2 0.141549 6.13635 4.83707 16.4462
258 2 0.129921 9.40899 6.13986 10.0027
342 2 0.15686 11.6204 6.38644 9.78924
299 4 1.21125 8.9018 2.51451 15.6718
300 4 0.816363 10.1996 4.95395 14.1187
301 1 -0.666258 10.2718 4.14668 12.3818
302 1 -0.683357 11.8546 5.63158 14.9771
303 2 0.00371155 8.31014 1.59486 14.3988
304 2 -0.0117321 9.29822 6.44642 14.0221
305 2 0.186882 10.1766 3.03433 12.5897
306 2 0.153706 11.4696 4.54567 12.3062
307 2 0.168766 9.70317 4.49835 11.5276
298 4 1.22128 11.5312 1.95401 16.9421
137 2 0.161747 6.39166 6.01689 10.7091
226 3 -0.852597 9.97964 2.55075 8.77117
311 3 -0.841591 12.6469 2.14005 15.758
312 3 -0.839975 10.0525 1.77808 16.4489
313 3 -0.81908 7.56498 2.69383 16.6862
314 3 -0.812655 9.47012 3.84677 15.0421
109 2 0.134421 12.3866 4.68449 10.1984
328 1 -0.687685 8.51153 -0.370379 14.4384
310 2 0.197028 12.1523 4.62858 15.4509
308 2 0.141179 11.6549 6.33343 15.8394
275 4 1.28139 2.52954 12.6798 0.192066
47 4 1.22168 6.53343 13.8479 7.42478
55 4 1.06592 8.29225 8.736 3.10852
254 2 0.113257 7.97962 9.7242 8.03331
74 1 -0.650149 7.52615 10.5975 2.69936
75 1 -0.664684 9.67007 8.95705 4.40565
330 1 -0.674277 6.97733 13.3198 1.89771
92 2 0.000840033 5.27811 12.9441 8.2849
332 2 0.156654 7.40811 12.6393 0.999935
288 2 0.142326 3.32912 13.8953 2.01852
153 2 0.199583 6.57784 10.5173 3.32349
154 2 0.203595 7.38903 10.5856 1.56689
155 2 0.123237 8.34679 11.4314 2.97606
156 2 0.197894 10.6263 8.52459 4.02325
157 2 0.188104 9.18452 8.4527 5.377
158 2 0.135129 9.65907 10.1451 4.42776
206 3 -0.840518 2.0583 12.8075 6.66759
231 3 -0.811868 7.16032 7.75317 3.84026
232 3 -0.807881 8.90203 7.9329 1.74737
250 2 0.132445 9.83193 9.30345 7.92108
89 2 0.0473642 3.30201 10.6781 5.97186
274 4 1.29089 3.84173 10.557 1.94572
146 2 0.00888442 4.09489 8.82112 8.48011
276 4 0.972344 4.84389 12.6194 4.20309
277 4 0.836735 6.86084 11.4392 5.91754
333 2 0.174892 5.81387 13.1529 1.93125
331 2 0.155081 7.60671 13.1756 2.86588
281 2 0.0212854 6.00556 13.7622 3.60349
282 2 0.0309838 3.57579 13.5873 4.72931
283 2 -0.0214358 7.92181 11.0751 4.57565
284 2 -0.00107437 6.66256 10.0519 6.97061
145 2 0.146059 3.77897 10.3563 7.66576
289 3 -0.804361 4.9368 9.62036 1.01512
4 2 0.125856 9.64952 11.8848 3.27812
291 3 -0.819849 4.40387 11.6533 3.01829
292 3 -0.810925 5.36515 11.7215 5.42787
293 3 -0.785938 7.50876 12.8132 6.75793
326 2 0.151043 8.91072 11.6926 0.206549
279 1 -0.694517 2.85687 14.3715 1.08519
27 4 1.53567 1.3227 14.0451 7.32646
253 2 0.149614 6.51697 8.3632 8.35159
273 4 1.26857 5.13138 8.33617 0.0552333
242 1 -0.655305 7.08112 9.24667 8.73834
56 4 1.11109 4.3589 11.3941 14.7508
76 1 -0.682655 5.19135 12.9101 13.983
350 2 0.153497 5.08715 13.8575 14.7141
90 2 0.0149047 3.28653 10.9613 10.5036
101 2 0.026175 5.91433 10.8871 15.394
345 2 0.179555 7.12785 9.99095 16.3787
343 2 0.0908848 7.81806 13.2357 15.2897
159 2 0.161646 4.46464 12.9367 13.0863
160 2 0.17465 6.26818 12.7253 13.6981
348 2 0.272445 2.67259 13.1989 14.9463
233 3 -0.754542 3.7163 10.3354 13.7315
234 3 -0.800609 3.35215 11.8828 15.8253
235 4 1.08305 8.98342 11.3461 14.9432
236 4 1.08227 6.8264 7.80014 14.8055
237 4 0.8941 8.34515 8.54888 9.94716
238 4 1.38963 7.39748 9.8954 12.6841
239 4 0.69327 6.04396 12.3062 10.97
327 2 0.118428 6.90311 11.9663 16.4039
241 1 -0.643746 10.0987 9.26923 9.07355
240 1 -0.663313 8.57508 7.57232 15.4939
244 1 -0.637414 4.86115 11.4578 9.4664
246 2 0.00393902 6.68299 11.8979 9.34457
344 2 0.178491 8.64863 13.1752 13.3868
249 2 0.16802 8.45707 8.29357 16.4335
251 2 0.0906474 10.4434 7.98899 9.48542
148 2 0.179321 10.1348 8.80512 13.4377
341 2 -0.0105154 6.49075 13.9071 11.414
214 3 -0.826647 1.72326 12.57 12.1433
255 2 0.176179 6.29788 10.087 9.09301
99 2 0.0194891 9.87435 6.68853 16.587
260 2 0.0245482 4.18912 12.4996 10.7638
261 2 0.153586 4.82688 10.4004 9.985
262 3 -0.848426 5.82247 7.79597 15.9987
263 3 -0.821156 6.65254 8.7608 13.5829
264 3 -0.787405 8.16274 9.22562 11.324
265 3 -0.820981 8.59773 10.6219 13.5935
266 3 -0.763275 6.35852 11.2009 12.0337
338 2 -0.00894578 9.41056 11.1697 9.00782
325 1 -0.683994 7.6267 11.0338 16.3807
247 2 0.178231 9.46199 7.90662 14.8697
86 2 0.031652 4.67451 7.22706 10.1744
147 2 0.164424 11.3904 7.41158 14.1874
259 2 0.169593 4.16936 11.4359 8.57925
ITEM: TIMESTEP
100
ITEM: NUMBER OF ATOMS
350
ITEM: BOX BOUNDS xy xz yz pp pp pp
-6.7108999999999996e+00 1.5238200000000001e+01 -6.2626999999999997e+00
-6.4200000000000002e-01 1.4502800000000001e+01 -4.4819999999999999e-01
0.0000000000000000e+00 1.7042517000000000e+01 -6.4200000000000002e-01
ITEM: ATOMS id type q x y z
103 2 0.197446 0.89268 -0.0234373 6.45734
185 3 -0.770552 5.4187 2.45059 0.0700056
14 4 1.44958 0.227 4.7172 1.76515
17 4 1.22112 -0.414711 6.99577 6.1625
26 4 0.972501 4.28329 1.49537 3.02358
183 3 -0.873091 6.91926 0.347832 6.19623
33 4 1.33059 1.50134 6.60366 3.79944
34 4 1.30655 5.3224 3.86374 7.09504
36 4 1.49845 4.1687 6.04231 5.26957
57 1 -0.669138 1.95013 0.440598 6.24744
62 1 -0.647604 2.95019 2.62371 3.78685
77 2 0.0344924 1.00678 2.90801 4.044
191 3 -0.821955 4.61243 3.18185 8.34736
79 2 0.0446285 0.436871 6.11827 7.2778
82 2 0.0689387 4.78593 1.96095 1.44078
318 2 0.154672 1.36476 0.895815 1.20829
104 2 0.160423 2.46155 0.0384656 5.26886
105 2 0.188415 2.01892 1.54223 6.33834
117 2 0.16199 2.25087 1.73315 4.11937
118 2 0.158113 2.80471 3.20304 2.68093
119 2 0.282637 3.37065 3.31038 4.6791
164 3 -0.785188 -1.23409 3.83025 2.74309
165 3 -0.881046 1.07734 3.67655 0.947211
166 3 -0.865487 -0.536587 5.74407 0.753213
167 3 -0.778207 -1.66953 6.00769 5.86538
182 3 -0.779707 5.62407 1.52561 4.00753
180 3 -0.793562 3.59311 -0.00119669 3.00924
189 3 -0.846488 1.03296 5.25251 3.06312
320 2 0.187287 -1.27353 3.15866 8.15931
7 4 1.25661 -0.666498 2.62402 3.69455
194 3 -0.851695 2.98188 6.49091 4.26448
195 3 -0.788987 4.01608 4.54925 5.74295
200 3 -0.834216 1.84804 6.49002 8.39035
316 2 0.183378 2.89346 0.95619 0.13596
190 3 -0.867742 0.509696 7.04553 4.90119
315 1 -0.690684 1.76015 0.990579 0.15858
295 2 -0.0198978 -0.173781 0.526093 0.256885
8 4 1.33931 1.0152 2.2137 16.6336
11 4 1.35107 2.77825 -0.285434 13.5852
13 4 1.20616 0.984015 1.24411 11.6311
18 4 1.30374 -0.233491 3.79232 12.8292
19 4 1.2312 -1.46926 6.40458 11.2339
28 4 1.33127 4.51738 1.95344 9.31209
31 4 1.24088 3.85657 1.91163 15.4062
35 4 1.20586 1.17011 5.98045 9.71792
317 2 0.163617 0.766301 -0.328973 16.3259
63 1 -0.665398 3.52988 2.67946 10.7622
64 1 -0.662839 4.6151 3.21332 14.3401
67 1 -0.679796 2.39904 5.58852 14.2749
83 2 0.00479169 2.12851 1.2685 10.4061
84 2 0.00808262 0.328349 4.5043 9.38285
85 2 0.0140815 0.74718 4.43115 14.0585
197 3 -0.860167 0.768434 6.49679 16.3984
321 2 0.142289 0.320217 2.83732 9.23197
120 2 0.180861 3.37499 1.96152 11.6276
121 2 0.169644 2.53171 2.91561 10.2535
122 2 0.176916 4.09737 3.70883 11.045
123 2 0.193431 4.92448 2.66627 13.4132
188 3 -0.781426 6.80577 0.574636 12.5385
309 2 0.176828 -2.69332 6.06889 14.1973
132 2 0.196475 1.77162 5.69576 13.3268
133 2 0.197668 2.30305 4.60165 14.8825
134 2 0.166685 3.52865 5.92589 14.125
161 3 -0.875218 -0.183358 2.11514 15.5674
162 3 -0.823672 -0.300765 0.451877 10.9224
163 3 -0.89192 1.67166 0.505084 12.7835
38 4 1.11455 3.55136 6.74762 11.3687
169 3 -0.83378 0.729803 2.8917 11.9902
170 3 -0.818859 -0.960292 4.96747 12.0551
181 3 -0.76037 3.63314 0.669643 8.57598
184 3 -0.823324 3.71164 0.603174 14.4774
322 2 0.173034 -1.28225 3.6959 10.0442
186 3 -0.827477 2.46575 2.61916 15.9094
187 3 -0.761415 6.01781 1.71647 10.0068
125 2 0.174563 3.84216 4.12919 14.181
168 3 -0.840691 -1.35512 2.92941 13.4722
198 3 -0.8019 2.38744 5.86101 10.9218
319 1 -0.686981 -0.840915 2.97353 9.20136
16 4 1.28746 -0.695602 6.39954 16.9386
324 2 0.169258 0.512791 -0.0222784 14.7184
110 2 0.159831 -1.88095 5.44895 8.77936
336 2 -0.00316949 -1.69064 6.27962 15.5521
59 1 -0.666985 -2.45976 5.64566 9.77078
135 2 0.165751 5.01638 4.66534 10.5423
193 3 -0.764963 -0.00468905 6.83525 10.3097
272 2 0.163624 4.63765 4.2537 16.915
342 2 0.13942 -3.21608 6.49596 9.6763
1 4 1.04473 -3.65124 13.2937 2.42576
2 1 -0.672276 -4.55348 12.2816 3.85311
3 2 0.113046 -3.6513 11.3282 3.30351
143 2 0.206654 -1.31008 13.6079 5.058
6 3 -0.822024 -3.36778 12.8248 1.00352
5 2 0.168104 -4.39555 12.3206 4.95659
20 4 1.22016 -1.66288 9.7107 1.31617
22 4 1.00993 -1.9689 9.49031 7.52372
334 2 0.0160329 -5.36948 13.5992 2.74675
39 4 1.10279 -0.246556 11.8449 3.59111
40 4 0.977339 2.87541 7.69569 7.5561
42 4 0.990738 1.88186 11.2887 5.99142
60 1 -0.661778 -3.08629 8.72844 2.10252
61 1 -0.671194 -2.97735 10.1236 6.03473
69 1 -0.684271 0.381163 13.4666 2.85451
70 1 -0.667216 -1.57586 12.5331 4.92656
87 2 0.0259657 1.42563 7.90534 2.58747
88 2 0.0338512 1.73382 8.69138 6.58704
100 2 0.0635389 0.866876 10.3153 7.14895
287 2 0.157893 3.12699 8.36198 2.41209
337 2 -0.00649137 -2.82108 8.35492 5.11915
114 2 0.164961 -3.93954 9.79138 5.43414
115 2 0.167569 -2.0662 9.96642 5.27969
116 2 0.159838 -2.94566 11.2651 6.44497
201 3 -0.811239 3.98429 7.22743 6.61873
172 3 -0.814183 -2.40061 10.5372 0.136595
285 2 0.217392 1.6314 9.6113 2.89451
141 2 0.172531 -1.27153 11.8634 5.83482
142 2 0.172582 -2.70452 12.3835 4.5994
286 2 0.188021 3.13718 9.31403 4.05286
171 3 -0.788508 -0.565174 8.38391 0.676153
174 3 -0.804929 -4.1204 12.8316 8.20507
173 3 -0.8385 -0.989766 8.40504 6.80239
71 1 -0.70067 2.69701 9.89497 7.64782
78 2 0.0405421 -1.84284 13.2836 6.65655
199 3 -0.777593 -0.95753 10.7567 2.58333
202 3 -0.800716 -1.15892 10.7376 8.28299
9 4 1.01857 -3.21515 14.0175 7.4782
205 3 -0.788312 0.979735 11.1909 4.62183
140 2 0.221467 0.0693249 13.2009 1.75485
278 1 -0.656315 2.72612 9.30293 3.0137
113 2 0.15032 -2.85279 9.0267 3.18683
138 2 0.186428 1.46646 13.3489 3.10693
203 3 -0.858055 -0.025727 13.1578 8.21247
111 2 0.19735 -2.87627 7.63298 1.86019
112 2 0.196785 -3.9642 9.22325 1.6148
27 4 1.51501 1.17664 13.8519 7.3025
139 2 0.251078 -0.09823 14.3777 3.29732
144 2 0.234113 2.00392 10.1499 8.4318
339 2 0.0506748 -4.29739 13.3321 14.8341
23 4 0.982696 -4.79616 12.3428 9.52167
24 4 1.06391 -3.10221 9.01669 12.2179
25 4 1.52526 -2.47607 12.1159 11.5052
208 3 -0.850192 3.45365 7.80059 12.466
37 4 1.3332 1.98245 7.00962 15.5667
41 4 1.54518 -0.357993 11.9626 9.183
43 4 1.46313 2.67268 9.09261 13.1911
44 4 1.37572 -0.626842 12.0191 15.3731
45 4 1.30585 1.79989 11.2492 11.1676
72 1 -0.677391 -4.05337 8.65297 13.7966
73 1 -0.681456 -0.761933 10.1702 14.8228
252 2 0.176215 -4.22813 10.0629 9.62344
214 3 -0.818755 1.6717 12.5475 12.1722
30 4 1.37592 0.872954 13.6325 13.1857
213 3 -0.799258 1.72996 9.93526 12.0839
21 4 1.51484 -3.39703 11.4044 16.6414
149 2 0.210638 -3.71229 9.38266 14.5522
150 2 0.27057 0.231341 9.56359 14.7169
151 2 0.26118 -1.40412 10.2242 13.7713
152 2 0.220343 -1.37566 9.61549 15.5653
175 3 -0.829341 -2.31044 7.67054 11.8233
176 3 -0.844785 -4.87608 11.3163 15.785
177 3 -0.856362 -3.72359 11.9063 10.5391
178 3 -0.793071 -2.43502 10.4532 12.3591
179 3 -0.855476 -2.80331 13.1733 12.6233
196 3 -0.859849 3.29537 7.28635 16.3691
81 2 0.0148422 -4.41165 9.15447 11.1005
102 2 0.0518837 -5.77737 13.5365 10.288
204 3 -0.825764 -1.2037 12.4269 10.4543
207 3 -0.770307 1.67006 8.47402 14.4443
209 3 -0.798244 0.546231 12.209 16.6382
210 3 -0.807705 -0.257843 13.0173 14.2189
211 3 -0.825438 -2.15021 12.0955 16.0443
212 3 -0.860081 1.08122 11.2466 9.79217
323 1 -0.671484 -6.23771 13.4518 14.5846
80 2 -0.00833565 -3.08826 8.77848 8.66334
15 4 1.23569 12.0557 6.67422 5.32918
46 4 1.25675 9.68652 2.25041 3.7765
49 4 1.547 12.0711 1.7307 5.54968
50 4 1.29616 11.0398 4.83917 3.00993
51 4 1.28076 7.20849 6.36275 4.58781
52 4 0.921245 9.49837 6.59557 0.97896
53 4 1.31896 10.6082 3.50835 7.64964
54 4 1.23602 9.36389 6.05765 6.80093
66 1 -0.67223 6.21776 5.25083 7.97622
91 2 0.0051538 9.50839 1.40095 2.26962
94 2 0.104269 12.409 3.91472 2.53288
95 2 -0.00958674 7.86636 5.24214 3.48726
346 2 0.207059 10.0158 0.119671 0.485864
267 4 0.982649 6.65909 3.33099 0.563973
269 2 -0.0296282 7.14573 2.86256 2.09691
129 2 0.206335 5.98632 6.14969 7.31646
192 3 -0.819344 6.33301 2.87958 6.31166
215 3 -0.815872 8.31891 2.01482 4.62865
219 3 -0.769486 13.7265 2.24955 5.02579
220 3 -0.851688 11.0463 1.49018 4.29979
221 3 -0.837149 12.1965 0.283698 6.23336
222 3 -0.865322 10.0097 3.77994 3.59569
223 3 -0.821968 11.5878 5.91635 3.98077
224 3 -0.846277 5.67873 6.05369 4.70868
225 3 -0.850102 10.4935 5.56837 1.66356
29 4 1.52433 6.85653 1.68352 5.39803
227 3 -0.85408 11.5758 2.76374 6.64764
96 2 0.0132722 8.09512 5.58226 0.458108
229 3 -0.84617 8.09754 6.42554 5.92071
230 3 -0.819057 9.55705 4.50174 7.00971
271 2 0.0904449 6.17903 5.27621 1.60434
294 4 1.05457 13.824 0.683442 1.47968
296 3 -0.832996 14.5084 1.30105 2.73729
347 2 0.17567 8.29015 0.3178 1.30139
297 3 -0.819002 12.4997 1.3512 0.88283
280 2 0.00211888 5.48835 6.95015 1.03559
268 1 -0.656157 6.17255 5.23698 0.327098
130 2 0.207095 7.29606 4.94971 7.90042
217 3 -0.761403 8.63127 0.117402 8.36532
98 2 -0.032173 9.05848 6.6254 8.36473
340 2 -0.00858771 12.1518 4.04257 0.570661
228 3 -0.853036 10.8326 6.6698 6.27944
10 4 1.03887 13.7907 1.2521 9.81103
124 2 0.160103 5.59496 3.49463 14.951
32 4 1.31015 7.21049 1.6899 11.2573
48 4 1.26505 9.50441 1.18295 9.31875
58 1 -0.661202 12.106 1.3216 11.1325
65 1 -0.655029 7.46895 3.37885 12.0813
68 1 -0.669405 5.19558 5.71344 11.0478
93 2 -0.0114729 11.0309 0.455299 9.77515
349 2 0.174739 7.83956 0.176448 15.2442
106 2 0.162168 11.0555 1.11246 11.444
107 2 0.114257 12.1212 2.51873 10.6805
108 2 0.18441 12.7906 1.2742 11.9962
126 2 0.163339 6.80808 3.99895 11.3246
127 2 0.197205 8.62009 3.68452 12.0934
128 2 0.163349 7.00572 3.3576 13.1361
136 2 0.123476 5.23204 5.53192 12.2995
131 2 0.170488 5.83859 5.45429 9.1555
243 1 -0.670075 8.21065 6.63948 10.1891
245 2 0.000658111 7.53551 6.29314 14.6279
335 2 -0.00747085 13.9544 0.289125 14.0082
329 2 0.164778 9.28678 0.333561 13.9287
218 3 -0.820846 8.64791 1.40837 10.6964
257 2 0.16099 7.80363 6.60649 11.2625
216 3 -0.843518 13.3772 0.272783 8.61075
248 2 0.0227248 8.61219 5.80064 16.1829
256 2 0.146281 7.47222 6.159 9.34817
270 2 0.143425 6.10338 5.56032 16.8703
258 2 0.1314 9.21438 6.15145 10.1505
12 4 1.25396 13.8033 1.86294 14.6948
299 4 1.22131 8.87674 2.58099 15.7259
300 4 0.801637 10.117 4.99814 14.0095
301 1 -0.656947 10.5704 4.21054 12.3175
302 1 -0.689797 11.7815 5.6622 14.8662
303 2 0.0371945 8.36172 1.63041 14.4218
304 2 -0.0137026 9.13655 6.43825 13.9485
305 2 0.186041 10.3631 3.26447 11.7184
306 2 0.192418 11.7385 4.28579 12.5735
307 2 0.108618 10.0621 5.15702 11.7573
298 4 1.25618 11.5317 1.89914 16.8821
137 2 0.156524 6.25646 6.12079 10.7181
226 3 -0.851998 9.86172 2.52456 8.62792
311 3 -0.841148 12.4898 1.91169 15.6542
312 3 -0.836044 10.0138 1.73475 16.4429
313 3 -0.816732 7.52003 2.64915 16.6721
314 3 -0.813855 9.38314 3.84869 14.9618
109 2 0.140604 12.3635 4.67785 10.3054
328 1 -0.671278 8.49651 -0.343599 14.4304
310 2 0.185338 12.1413 4.62781 15.2929
308 2 0.141371 11.4912 6.41201 15.6078
97 2 -0.011076 11.6585 4.39913 8.73177
275 4 1.27927 2.51746 12.6788 0.117909
47 4 1.22494 6.44906 13.9305 7.46416
55 4 1.14663 8.21008 8.6765 3.1028
254 2 0.116249 7.80767 9.60337 7.87109
74 1 -0.652336 7.68677 10.5691 2.8171
75 1 -0.668705 9.66846 9.23865 4.27082
330 1 -0.688437 7.10177 13.3506 1.81266
92 2 0.0140169 5.06588 13.1957 8.26855
332 2 0.155704 7.47561 12.639 0.922538
288 2 0.157366 3.38675 13.6775 2.16965
153 2 0.183707 6.80711 11.0287 3.34081
154 2 0.174416 7.29941 10.251 1.71867
155 2 0.131802 8.61151 11.3144 2.82293
156 2 0.181513 10.4771 8.46865 4.14775
157 2 0.161866 9.16606 9.01637 5.24389
158 2 0.179535 9.97596 10.2867 4.11458
206 3 -0.811723 2.17142 12.7464 6.51864
231 3 -0.815566 7.2187 7.8414 3.89573
232 3 -0.808707 8.89974 7.88405 1.88026
250 2 0.137206 10.0591 9.3481 8.09594
89 2 0.0394097 3.3459 10.2493 5.90969
274 4 1.33584 3.75665 10.5112 1.83778
273 4 1.2874 5.05022 8.31226 0.0473881
276 4 1.0032 4.88353 12.5347 4.18117
277 4 0.905054 6.76846 11.3977 6.08223
333 2 0.180005 6.00597 13.3932 1.88399
331 2 0.154533 7.64462 13.1308 2.76514
281 2 0.0124112 6.16688 13.4624 3.56062
282 2 0.0338653 3.74335 13.7377 4.5135
283 2 -0.0017278 7.80963 10.8698 4.74493
284 2 0.0053619 6.43834 9.98633 6.96774
145 2 0.147793 3.78893 10.4346 7.7528
289 3 -0.832879 4.8008 9.56094 1.0454
4 2 0.137915 9.61697 11.9924 3.57703
291 3 -0.812341 4.42033 11.587 3.01931
292 3 -0.83165 5.34022 11.8496 5.47254
293 3 -0.786846 7.38429 12.5444 6.93761
326 2 0.15173 8.80473 11.6727 0.246035
279 1 -0.682791 2.95468 14.1898 1.21962
259 2 0.162763 4.41295 11.6035 8.36021
290 3 -0.79815 2.69895 11.3479 1.01442
242 1 -0.645317 7.04159 9.32639 8.72616
56 4 1.12641 4.37264 11.2946 14.7783
76 1 -0.681614 5.1119 12.8767 14.0859
350 2 0.191335 4.9145 13.6326 14.8827
90 2 0.0168498 3.388 11.0616 10.4366
101 2 0.0263435 5.97457 10.7736 15.2566
345 2 0.184797 6.87729 10.0664 16.6452
343 2 0.0890721 8.01058 13.3642 15.3461
159 2 0.161444 4.41396 13.0193 13.1696
160 2 0.160193 6.23814 12.6757 13.8408
348 2 0.239636 2.67157 13.235 14.9545
233 3 -0.81121 3.62233 10.3305 13.7836
234 3 -0.802886 3.47667 11.8846 15.9058
235 4 1.147 9.02394 11.3882 15.0382
236 4 1.0892 6.88448 7.91079 14.8659
237 4 0.900975 8.35414 8.65814 9.95418
238 4 1.44634 7.4531 9.98049 12.602
239 4 0.695046 5.98947 12.2857 11.0215
327 2 0.108315 7.05738 11.8498 16.1778
241 1 -0.68657 10.2911 9.22734 9.18817
240 1 -0.634056 8.65826 7.53066 15.496
244 1 -0.646607 4.93137 11.6354 9.41194
246 2 0.0432426 6.67845 11.8158 9.3281
344 2 0.18312 8.72667 13.3594 13.5015
249 2 0.146358 8.42106 8.54825 16.3356
251 2 0.126247 10.6921 8.21667 9.39985
148 2 0.177251 10.1281 8.83832 13.3732
341 2 0.000129827 6.33869 13.9433 11.3866
146 2 0.00130666 3.62523 8.67184 8.81071
255 2 0.177345 6.19467 10.1165 8.93617
99 2 0.0214997 9.96332 6.8086 16.7115
260 2 0.0121181 4.2154 12.7812 10.5851
261 2 0.138836 4.84412 10.5802 9.96512
262 3 -0.859446 5.75447 7.87199 15.9889
263 3 -0.82495 6.92135 8.82078 13.6439
264 3 -0.82441 8.05351 9.27955 11.3104
265 3 -0.802984 8.63709 10.7167 13.657
266 3 -0.800905 6.41243 11.1684 12.0986
338 2 -0.00128361 9.44597 11.014 9.22812
325 1 -0.673194 7.61401 10.8546 16.3567
247 2 0.173521 9.57515 7.88319 14.8287
86 2 0.0016503 4.56984 7.25511 10.0144
253 2 0.134157 6.58851 8.19052 8.63356
147 2 0.153933 11.3364 7.50013 14.1934
ITEM: TIMESTEP
200
ITEM: NUMBER OF ATOMS
350
ITEM: BOX BOUNDS xy xz yz pp pp pp
-6.7108999999999996e+00 1.5238200000000001e+01 -6.2626999999999997e+00
-6.4200000000000002e-01 1.4502800000000001e+01 -4.4819999999999999e-01
0.0000000000000000e+00 1.7076534000000002e+01 -6.4200000000000002e-01
ITEM: ATOMS id type q x y z
201 3 -0.789808 4.18084 6.97405 6.83573
315 1 -0.68777 1.72328 0.958657 0.15954
14 4 1.45586 0.237787 4.77138 1.81449
316 2 0.178256 2.88768 1.01353 0.11799
26 4 0.961717 4.3466 1.48651 3.04665
183 3 -0.8535 6.89969 0.381563 6.26361
33 4 1.30488 1.48347 6.69059 3.80741
34 4 1.30917 5.32304 3.74151 6.98064
36 4 1.4359 4.19434 5.96765 5.3072
57 1 -0.662159 2.00129 0.325065 6.2017
62 1 -0.663875 2.93764 2.51583 3.81422
77 2 0.0245698 0.98826 2.74262 4.15773
191 3 -0.823046 4.44026 3.07901 8.17046
79 2 0.0968516 0.517016 6.08365 7.31058
82 2 0.0790929 4.8672 2.03909 1.48028
318 2 0.155575 1.28805 0.719815 1.17117
104 2 0.145226 2.81686 0.0749676 5.32406
105 2 0.191735 1.72736 1.38247 6.3987
117 2 0.171503 2.26374 1.6067 4.03981
118 2 0.166412 2.75345 3.057 2.74125
119 2 0.28355 3.29031 3.2306 4.62421
164 3 -0.795031 -1.05181 3.76235 2.76583
165 3 -0.844593 1.15819 3.62277 1.09619
166 3 -0.855969 -0.538451 5.8624 0.861947
167 3 -0.785172 -1.93416 6.17383 6.00568
182 3 -0.805207 5.67939 1.49105 4.13519
180 3 -0.813026 3.60397 -0.00852681 2.89513
189 3 -0.867371 0.991571 5.47322 2.99727
320 2 0.198263 -1.07431 3.00556 8.08032
7 4 1.25358 -0.654227 2.47445 3.66317
194 3 -0.853634 2.95683 6.50724 4.34096
195 3 -0.778682 4.0285 4.40466 5.77686
200 3 -0.797663 1.59847 6.38591 8.37246
185 3 -0.756182 5.34577 2.49075 0.0621435
295 2 -0.00988425 -0.168618 0.45972 0.117872
17 4 1.21468 -0.431243 7.01039 6.18445
8 4 1.2886 1.01212 2.1417 16.7188
11 4 1.36985 2.75741 -0.247239 13.5363
13 4 1.21216 0.985345 1.37972 11.6698
18 4 1.26977 -0.422988 3.87564 12.8779
19 4 1.26394 -1.43159 6.44377 11.1814