ITEM: TIMESTEP
0
ITEM: NUMBER OF ATOMS
350
ITEM: BOX BOUNDS xy xz yz pp pp pp
-6.7108999999999996e+00 1.5238200000000001e+01 -6.2626999999999997e+00
-6.4200000000000002e-01 1.4502800000000001e+01 -4.4819999999999999e-01
0.0000000000000000e+00 1.7008500000000002e+01 -6.4200000000000002e-01
ITEM: ATOMS id type x y z
7 4 -0.573066 2.44369 3.76494
16 4 -0.465928 7.03763 0.113503
14 4 0.30056 4.79703 2.02007
17 4 -0.577693 6.42462 6.48909
26 4 4.30473 1.15284 3.64995
201 3 3.84711 6.83587 7.06852
33 4 1.51203 6.4888 4.20396
322 2 -1.46799 3.47444 7.21587
36 4 4.3205 6.33566 5.58969
57 1 1.16326 0.407664 6.48418
62 1 3.13327 2.59475 4.01584
77 2 1.17864 2.52577 4.03309
320 2 0.096919 3.07566 8.25654
79 2 -0.372481 5.25723 7.69775
82 2 4.29067 2.47363 2.43127
104 2 1.27844 -0.120406 5.49779
319 1 -1.04035 3.41793 8.26503
105 2 1.4444 1.51899 6.44572
117 2 2.55211 1.65747 4.80662
118 2 2.46467 2.93804 3.07472
119 2 3.60322 3.44531 4.69285
164 3 -1.02554 3.73363 2.90033
165 3 1.04175 3.92253 0.822056
166 3 -0.537628 6.07445 1.33083
167 3 -2.0191 6.11177 5.83998
182 3 5.74372 1.26931 4.53447
269 2 5.87132 3.07803 1.81602
189 3 1.40843 5.29075 3.09582
190 3 0.704039 6.32776 5.52077
191 3 4.86057 2.65762 7.60625
194 3 3.00248 6.91658 4.49349
195 3 4.42861 4.66445 5.5381
318 2 1.80137 1.32787 0.969431
271 2 4.73356 5.02422 1.72189
34 4 5.6698 3.74973 6.64717
103 2 0.173402 0.234295 6.98896
180 3 3.45535 -0.0781196 3.13763
8 4 0.856909 2.42861 16.4995
11 4 2.5849 -0.0914075 12.704
13 4 0.944887 1.99576 11.1445
18 4 -0.487053 4.09199 12.9038
19 4 -1.71767 6.37389 11.0866
28 4 4.5541 1.71618 8.94226
31 4 3.62229 2.30057 14.6815
35 4 1.10148 6.37596 9.99496
198 3 2.03245 6.59268 11.2836
63 1 3.8292 3.07262 10.1104
64 1 4.66789 3.52593 13.6996
67 1 2.16625 5.77181 14.3424
83 2 1.88302 2.73784 9.86193
84 2 1.20313 4.72239 9.66508
85 2 0.391669 4.97511 14.0949
324 2 0.363882 -0.155964 14.7472
321 2 -1.28969 4.25824 9.0125
120 2 3.2924 2.60852 10.9805
121 2 3.24999 3.82419 9.46849
122 2 4.76656 3.56861 10.4352
123 2 3.64631 4.07127 13.2277
124 2 5.16577 2.75483 12.9627
181 3 3.43686 0.670163 8.66714
132 2 2.08061 4.65672 14.7186
133 2 3.24768 6.03292 14.2945
134 2 1.63163 5.93258 13.4072
161 3 -0.422307 2.17911 15.6337
162 3 -0.326087 1.57494 10.311
163 3 1.85636 0.886451 11.741
168 3 -1.61266 3.1164 13.5926
169 3 0.50344 3.0923 12.186
170 3 -1.1857 5.08846 11.9371
336 2 -2.32313 5.85207 16.3179
184 3 3.20255 0.863321 13.8363
185 3 4.61046 2.06319 16.0262
186 3 2.19567 3.03473 15.236
187 3 5.83383 1.52076 9.83209
110 2 -2.61227 5.97151 8.92306
197 3 0.15918 6.36923 15.9298
317 2 0.906665 -0.147199 16.3302
316 2 2.71448 0.660916 16.5963
315 1 1.52129 0.718306 16.8229
1 4 -3.72111 13.273 2.42527
2 1 -5.1004 12.1621 3.43224
3 2 -3.5425 11.5117 3.24752
5 2 -5.20559 12.1482 4.55307
6 3 -3.49715 13.0448 0.865209
337 2 -3.23615 8.3462 4.68543
20 4 -1.66681 9.80066 1.20142
22 4 -1.29255 9.39794 7.7305
334 2 -5.53742 13.6033 2.8392
39 4 -0.55937 11.4263 4.00479
40 4 2.70326 7.75501 7.69041
42 4 1.9465 11.2138 5.80292
60 1 -3.36901 9.01594 0.960279
61 1 -3.01874 9.98893 7.11198
69 1 0.313249 12.7786 2.94495
70 1 -1.95457 12.2713 5.11324
87 2 0.666389 7.81577 3.56445
88 2 1.60512 8.21309 6.42052
100 2 1.92455 10.1895 7.11467
285 2 2.08661 8.30119 2.19889
112 2 -2.95538 7.90602 0.794646
287 2 2.03572 9.15196 3.85555
115 2 -2.51979 9.97531 5.94691
116 2 -3.32395 11.0351 7.33213
138 2 0.2456 12.6121 1.77031
139 2 1.3863 12.6074 3.38299
140 2 -0.223733 13.7074 3.33064
141 2 -1.65067 11.8274 6.14812
142 2 -2.9827 11.9313 4.91693
143 2 -1.81509 13.3785 5.09496
171 3 -0.601104 8.52651 0.671824
78 2 -2.65698 13.7551 6.15715
173 3 -0.745142 7.94772 7.18674
172 3 -1.85711 10.994 0.168342
286 2 0.731456 9.58759 2.53472
199 3 -1.24424 10.1641 2.77675
202 3 -0.479446 10.6741 7.93367
203 3 0.498558 13.1478 8.29474
205 3 0.632233 10.9742 4.98715
114 2 -3.92234 9.27193 7.22581
278 1 1.79494 9.26436 2.75446
174 3 -4.4613 12.8662 8.08517
9 4 -3.71618 14.1223 7.44279
113 2 -3.8891 9.49366 0.115184
111 2 -3.98295 9.11048 1.95609
21 4 -3.04307 11.8494 16.652
23 4 -4.94714 11.9144 9.27184
24 4 -3.00748 9.11281 12.3019
25 4 -2.48221 11.9561 11.1425
38 4 3.54183 7.25114 11.6109
37 4 1.62718 7.1411 15.6575
41 4 0.0403722 11.8488 9.14649
80 2 -2.63241 9.21478 8.83792
44 4 -0.287556 12.2964 15.4482
45 4 1.84246 11.3172 11.4508
72 1 -3.32633 8.99704 14.1894
73 1 -0.692244 10.8178 14.3594
196 3 2.63916 6.96812 16.8888
339 2 -4.97852 13.5514 13.3806
208 3 3.49944 8.13412 12.9537
147 2 -2.47072 8.43122 14.6616
214 3 1.61155 12.648 12.2395
149 2 -3.51617 10.0548 14.5884
150 2 0.13293 10.115 14.6676
151 2 -0.449794 11.3359 13.3159
152 2 -1.70518 10.2658 14.3652
175 3 -2.33174 7.70172 11.8303
176 3 -4.12195 11.739 15.2452
177 3 -3.78726 11.6794 10.3019
178 3 -2.38155 10.5895 12.1067
179 3 -2.72787 13.3687 12.0375
193 3 -0.412189 6.91992 10.0771
43 4 2.66837 9.31263 13.7166
213 3 1.62676 10.112 12.3784
204 3 -1.18188 11.9203 10.2313
207 3 1.71274 8.69512 14.9256
209 3 0.988715 11.741 16.6151
210 3 0.355668 13.4484 14.4106
211 3 -1.73094 12.6847 16.1768
212 3 1.36417 11.2686 9.98937
200 3 1.92087 7.08199 8.88078
252 2 -4.38281 9.54466 9.83001
15 4 11.8531 6.70108 5.32172
46 4 9.73616 2.19767 3.50833
49 4 12.0967 1.85706 5.40279
50 4 11.143 4.86747 2.90845
51 4 7.26879 6.65281 5.11204
52 4 10.0237 6.60357 0.814518
53 4 10.5821 3.5361 7.52188
54 4 9.46517 6.30776 7.15159
66 1 6.35613 4.95328 7.94229
91 2 9.57625 1.45592 1.96375
94 2 12.5772 4.00803 2.72783
95 2 7.30472 5.03314 4.56466
296 3 14.4297 1.17802 2.73814
346 2 9.3666 0.769851 0.7351
270 2 6.58802 5.33885 1.78914
129 2 6.13312 5.98268 7.5973
192 3 6.96988 3.11664 5.86039
215 3 8.35708 1.7223 4.27844
219 3 13.7533 2.34781 5.08181
220 3 11.1917 1.64798 4.05064
221 3 12.2496 0.353936 6.09691
222 3 9.88904 3.70926 3.1475
223 3 11.3263 5.76883 4.17253
280 2 5.29868 6.831 1.2199
225 3 11.0117 5.74894 1.58777
224 3 5.73906 7.01123 5.34021
227 3 11.4845 3.01052 6.28544
229 3 8.07303 6.69999 6.56865
130 2 7.47257 4.65908 8.01011
230 3 9.59638 4.69387 7.23624
29 4 7.1938 1.53072 5.27391
294 4 13.229 0.534306 1.78249
340 2 12.0108 3.97015 0.245808
347 2 7.62283 0.0291393 0.979885
297 3 12.3232 1.35237 0.771263
183 3 7.50962 0.417742 6.42848
267 4 6.20731 3.35521 0.118977
268 1 5.73331 4.93063 1.1825
226 3 9.92019 2.35985 8.28575
10 4 13.6629 1.96491 9.39448
342 2 11.109 6.27014 10.1198
32 4 7.03613 1.62187 10.9484
48 4 9.58528 1.09279 9.14285
58 1 12.2192 2.45074 10.7516
65 1 7.07905 3.40153 11.8104
68 1 5.02229 6.0712 11.7305
93 2 11.1315 1.04451 9.88658
30 4 7.51231 -0.475173 13.0936
106 2 12.1468 1.51165 11.4137
107 2 11.1871 2.67343 10.3102
108 2 12.5207 3.32999 11.4091
126 2 8.11106 3.67228 11.3591
127 2 7.04781 3.19663 12.9309
128 2 6.17115 3.97264 11.4947
335 2 14.1009 0.431422 13.7662
131 2 5.74404 4.57661 8.83382
135 2 4.92664 5.73886 10.571
109 2 12.0694 4.43892 10.2253
125 2 5.42685 4.14004 14.2765
216 3 13.0435 0.751201 8.51594
218 3 8.60275 1.46958 10.3027
243 1 8.23284 6.35095 11.1327
349 2 8.84377 0.226752 15.0445
308 2 11.5401 6.28628 14.4481
256 2 9.42785 6.45542 11.0035
257 2 7.83621 5.4658 10.6089
258 2 7.78314 6.50961 12.1879
298 4 11.3114 1.8005 16.5962
299 4 8.48699 2.43476 15.8777
300 4 10.0559 4.62834 13.9081
301 1 10.4094 3.26049 12.7676
302 1 11.5223 5.26931 15.0143
303 2 7.9133 1.67049 14.4638
304 2 9.29014 5.63337 12.5958
305 2 9.75134 2.36631 12.5278
306 2 11.4587 2.93781 13.3808
307 2 10.594 3.95923 11.8024
188 3 6.88497 0.769057 12.2891
248 2 7.23711 5.75007 14.7247
310 2 11.2623 5.47081 16.0785
311 3 12.1991 1.6055 15.3075
312 3 9.78669 1.51112 16.3843
313 3 7.3073 2.4961 16.8762
314 3 8.81013 3.96969 15.2705
328 1 9.12043 0.196885 13.875
329 2 9.56088 1.20988 13.5098
96 2 8.94689 4.88153 16.5772
12 4 13.6623 1.88199 14.6166
59 1 12.0774 5.66995 9.90056
272 2 5.18526 4.85257 16.9819
309 2 12.4262 4.58833 14.9198
137 2 5.98869 6.6771 11.9483
136 2 4.9084 5.10406 12.4661
97 2 11.7711 4.32482 8.55178
4 2 9.39272 11.3776 2.97603
254 2 6.68047 8.42366 8.0951
55 4 8.72484 8.39447 2.88152
279 1 2.48205 14.3915 1.15558
74 1 7.87956 10.0491 2.30865
75 1 10.4071 9.03862 3.80614
332 2 5.85912 12.8542 1.04817
92 2 4.66529 13.6835 7.98316
330 1 6.76493 13.0167 1.65956
144 2 3.65573 9.9079 7.6519
153 2 6.90818 9.48392 1.97396
154 2 8.39774 10.526 1.39046
155 2 7.64519 10.7797 3.09318
326 2 9.91614 11.7314 0.523815
157 2 10.2551 8.74625 4.92028
333 2 5.92062 14.07 2.94969
47 4 6.18679 14.1359 7.46311
231 3 7.97245 7.56632 4.06067
232 3 9.03417 7.53302 1.54485
206 3 2.42004 12.6223 6.3016
273 4 4.53306 8.15821 0.359604
274 4 3.39142 10.2757 2.26792
288 2 2.77959 14.0905 2.24424
276 4 5.69618 11.555 4.56234
277 4 7.32923 11.2612 6.9513
331 2 7.13588 11.9592 1.94462
275 4 2.71981 12.6156 0.499405
281 2 6.71026 12.505 3.54384
282 2 4.99149 12.9175 5.23468
283 2 8.95076 11.0785 6.56248
284 2 7.09531 10.1358 8.266
89 2 3.26672 10.6635 4.87681
289 3 4.33066 9.38125 1.29962
290 3 2.71914 11.654 1.77662
291 3 4.47357 10.7783 3.80061
292 3 6.4273 10.781 5.73273
293 3 7.03593 12.7116 7.50895
295 2 7.73935 13.4938 0.726484
27 4 1.73517 13.749 7.29633
158 2 10.4002 10.1514 3.65905
156 2 11.2759 8.55237 3.27937
228 3 10.7671 7.03846 6.46555
102 2 9.0068 12.5726 10.0893
56 4 4.44186 11.3541 15.2432
76 1 5.46626 12.8362 14.5674
86 2 3.85751 8.33581 10.2878
90 2 3.56611 11.3733 11.1312
101 2 6.173 11.1492 15.2361
345 2 8.54908 9.74905 16.525
249 2 7.41973 6.77492 16.4802
159 2 5.04421 12.8756 13.5267
160 2 6.70109 13.0532 14.6031
327 2 7.71574 11.3674 16.975
233 3 3.61509 10.4633 14.2164
234 3 3.88604 11.8948 16.5444
99 2 10.4096 7.08085 16.8537
236 4 6.09398 7.70456 14.817
237 4 8.10104 8.24134 10.505
238 4 7.674 10.0561 13.136
239 4 6.441 12.3246 11.3567
348 2 3.53872 13.7995 13.5912
241 1 10.0503 8.65457 9.70369
242 1 6.64703 8.47305 9.22773
244 1 5.20768 11.3191 10.109
246 2 6.93424 11.5251 9.70452
247 2 8.47458 7.17391 14.9479
81 2 10.7078 9.07758 11.464
251 2 10.7336 7.69111 9.71716
341 2 7.27532 13.7811 11.2177
253 2 6.1238 7.49553 9.7383
235 4 9.56827 11.4744 15.123
255 2 5.99772 9.61673 9.60856
259 2 4.57182 11.2766 9.12426
260 2 4.70009 12.731 11.2135
261 2 4.98528 10.3922 10.6412
262 3 5.04979 7.81843 16.1026
263 3 6.77634 9.13766 14.2165
264 3 7.97718 9.1626 11.699
265 3 9.0579 10.5681 13.9385
266 3 6.94354 11.4232 12.6338
323 1 8.68002 13.3714 14.6606
250 2 9.38752 8.69771 8.7003
71 1 3.72803 9.22794 8.52427
343 2 8.05435 13.1474 15.6666
344 2 8.08077 13.3383 13.7255
338 2 9.6324 10.4182 8.81096
325 1 8.67968 10.8845 16.7197
145 2 4.75475 8.95828 8.78972
240 1 7.56035 6.6881 15.3147
350 2 4.92558 13.635 15.2092
148 2 10.9321 8.3442 14.0314
217 3 3.15999 14.0879 8.56982
98 2 9.46356 6.95793 8.70827
146 2 3.08655 9.57219 9.38364
245 2 5.3969 6.77954 13.5111
ITEM: TIMESTEP
100
ITEM: NUMBER OF ATOMS
350
ITEM: BOX BOUNDS xy xz yz pp pp pp
-6.7036485999999993e+00 1.5238200000000001e+01 -6.2554485999999994e+00
-6.4200000000000002e-01 1.4502800000000001e+01 -4.4819999999999999e-01
0.0000000000000000e+00 1.7008500000000002e+01 -6.4200000000000002e-01
ITEM: ATOMS id type x y z
7 4 -0.544945 2.42824 3.64828
16 4 -0.484576 7.09654 0.149189
14 4 0.425943 4.79338 1.94443
17 4 -0.60196 6.52986 6.64185
26 4 4.13619 1.28476 3.72221
201 3 3.70473 6.77062 7.07185
33 4 1.41723 6.44817 4.21168
322 2 -1.60309 3.40976 7.21838
36 4 4.21871 6.43707 5.53888
57 1 1.36446 0.597489 6.65077
62 1 3.02876 2.80707 4.19333
77 2 1.07689 2.372 4.23714
320 2 -0.0405402 3.67862 8.32173
79 2 -0.482383 5.33886 7.9019
82 2 3.95829 2.50731 2.49439
104 2 1.45721 0.26199 5.55998
319 1 -1.18095 3.53457 8.28363
105 2 1.61771 1.67159 6.8003
117 2 2.49846 1.99045 5.09727
118 2 2.41766 3.10743 3.36655
119 2 3.7921 3.56497 4.6846
164 3 -0.886134 3.72229 2.76801
165 3 0.985665 3.8479 0.80457
166 3 -0.395421 6.04384 1.26432
167 3 -1.85994 6.23956 5.7235
182 3 5.61824 1.20151 4.30664
269 2 5.61056 3.31843 1.6171
189 3 1.39066 5.26376 3.08822
190 3 0.631941 6.24259 5.63556
191 3 4.78042 2.62622 7.55016
194 3 2.87578 6.8782 4.34307
195 3 4.52815 4.88741 5.50576
318 2 1.52056 1.34111 1.13925
271 2 4.80194 5.09134 1.4327
34 4 5.59939 3.74703 6.67615
103 2 0.42233 0.230907 7.27241
180 3 3.53577 -0.0538342 3.17418
315 1 1.92299 1.35643 0.0820166
316 2 3.01678 1.39225 0.0854768
8 4 0.850887 2.37377 16.4903
11 4 2.58629 -0.102664 12.6586
13 4 0.933035 1.98262 11.1098
18 4 -0.517573 4.12968 12.9993
19 4 -1.81131 6.52385 11.0106
28 4 4.60507 1.92121 8.90934
31 4 3.58176 2.27476 14.7807
35 4 1.07385 6.34077 10.0328
198 3 2.18447 6.40892 11.2788
63 1 3.98441 3.32895 10.0822
64 1 4.50044 3.59042 13.7314
67 1 2.16189 5.74954 14.2874
83 2 2.03147 2.7777 10.0874
84 2 1.0483 4.73157 9.54699
85 2 0.342719 4.94329 14.2901
324 2 0.231608 -0.0380691 14.4123
321 2 -1.89568 4.29338 8.98282
120 2 3.61438 2.78077 10.9825
121 2 3.1422 4.02323 9.69815
122 2 4.96597 3.84965 10.3236
123 2 3.68692 4.1356 13.2097
124 2 5.03875 2.954 12.9609
181 3 3.43101 0.456213 8.54823
132 2 2.17714 4.65936 14.7681
133 2 3.18134 6.18019 14.0807
134 2 1.58073 5.78259 13.3201
161 3 -0.524693 1.85882 15.6321
162 3 -0.325351 1.73045 10.1914
163 3 1.67879 0.69412 11.6321
168 3 -1.65317 3.18073 13.747
169 3 0.456651 3.10678 12.1274
170 3 -1.24791 5.21822 12.0245
336 2 -2.36884 6.10431 16.2634
184 3 3.29551 0.907436 13.6696
185 3 4.54735 2.22998 15.9722
186 3 2.22864 3.04763 15.353
187 3 5.84574 1.61804 9.8751
110 2 -2.62782 5.9875 8.92254
197 3 0.0850607 6.63538 16.0097
317 2 1.03074 -0.104085 16.4292
193 3 -0.459726 6.78593 10.1481
1 4 -3.67236 13.1902 2.41821
2 1 -5.03431 12.2319 3.35536
3 2 -3.51616 11.4667 3.26335
5 2 -5.11976 12.3823 4.48073
6 3 -3.3317 12.8197 0.907041
337 2 -3.3453 8.33747 4.76806
20 4 -1.4881 9.7896 1.10965
22 4 -1.31435 9.32927 7.67001
334 2 -5.58129 13.7321 2.67671
39 4 -0.431669 11.3871 3.87451
40 4 2.62447 7.81871 7.66686
42 4 1.86018 11.3516 5.83461
60 1 -3.26623 8.9698 0.9762
61 1 -3.12472 9.78332 7.01278
69 1 0.316464 12.7296 2.87327
70 1 -1.77758 12.1921 5.19955
87 2 0.727799 7.80567 3.50565
88 2 1.63475 8.46854 6.49808
100 2 1.86902 10.2219 7.09355
285 2 2.17944 8.05315 2.11352
112 2 -2.93287 7.90297 1.07945
287 2 2.06095 9.04206 3.82839
115 2 -2.61935 9.84075 5.88841
116 2 -3.39613 10.8246 7.33065
138 2 0.367435 12.4485 1.74787
139 2 1.33927 12.9521 3.33351
140 2 -0.590199 13.5252 3.12039
141 2 -1.20425 12.3178 6.20194
142 2 -2.66206 11.4947 5.31356
143 2 -2.10247 13.2041 4.73016
171 3 -0.641409 8.53309 0.732641
78 2 -2.86389 13.5744 6.08471
173 3 -0.754078 7.98073 7.17655
172 3 -1.65749 10.9785 0.0477443
286 2 0.986327 9.62487 2.31778
199 3 -1.30218 10.2557 2.63763
202 3 -0.417598 10.5115 8.10828
203 3 0.405569 13.2315 8.29791
205 3 0.770352 11.0569 4.81454
114 2 -3.98045 9.14426 6.92638
278 1 1.98786 9.08093 2.61644
174 3 -4.35941 12.5228 7.9953
9 4 -3.68247 13.9419 7.57579
111 2 -3.95331 9.2298 1.9983
21 4 -2.83852 11.6831 16.7052
23 4 -4.90731 11.7764 9.32628
24 4 -3.21687 9.10365 12.2603
25 4 -2.51373 11.9198 11.2325
38 4 3.50645 7.23089 11.5907
37 4 1.56416 7.1203 15.6281
41 4 0.136447 11.8307 9.14134
80 2 -2.72994 9.10083 8.7402
44 4 -0.205698 12.2575 15.4056
45 4 2.0725 11.3522 11.3712
72 1 -3.19308 8.99012 14.166
73 1 -0.513398 10.6721 14.4071
196 3 2.62223 6.95575 16.8537
339 2 -4.77693 13.4391 13.6231
208 3 3.51694 8.21665 12.8133
147 2 -2.3266 8.46411 14.6196
113 2 -4.17015 8.5894 16.9781
149 2 -3.47648 10.0897 14.6946
150 2 0.350194 9.95191 14.6302
151 2 -0.289161 11.1008 13.3582
152 2 -1.53579 10.0318 14.405
175 3 -2.55897 7.80398 11.6541
176 3 -3.95185 11.4845 15.4139
177 3 -3.85126 11.6753 10.3906
178 3 -2.4389 10.4083 12.0548
179 3 -2.75869 13.2736 12.1176
146 2 2.96873 9.78698 9.28485
43 4 2.68312 9.31762 13.5103
213 3 1.59869 10.1178 12.362
204 3 -1.17343 12.0457 10.2727
207 3 1.58271 8.51097 14.8409
209 3 1.05885 11.9461 16.4296
210 3 0.280007 13.3407 14.3269
211 3 -1.68693 12.7812 16.1341
212 3 1.48915 11.3812 9.91115
200 3 1.87921 7.14131 8.86358
148 2 -4.11906 8.32903 14.246
252 2 -4.47636 9.43778 9.9068
15 4 11.8893 6.71692 5.30407
46 4 9.77316 2.17537 3.55011
49 4 12.0937 1.72261 5.33662
50 4 11.1495 4.82916 3.00018
51 4 7.19362 6.64073 5.14684
52 4 10.1011 6.61858 0.748172
53 4 10.5712 3.41625 7.45996
54 4 9.53178 6.16796 7.13856
66 1 6.30883 4.86389 8.04124
91 2 9.63637 1.505 1.96729
94 2 12.6731 4.05961 2.88599
95 2 7.11012 5.11276 4.42698
296 3 14.4684 1.13892 2.78188
346 2 9.60478 0.519145 0.40949
270 2 6.63269 5.52862 1.72568
129 2 5.93794 5.89316 7.6887
192 3 6.84993 3.10935 5.83011
215 3 8.48415 1.79835 4.40388
219 3 13.7691 2.20417 4.89695
220 3 11.1818 1.43656 3.91587
221 3 12.3242 0.147752 5.99418
222 3 9.97968 3.69568 3.23361
223 3 11.2901 5.80121 4.20475
280 2 5.05868 6.9312 1.38152
225 3 10.9259 5.63163 1.62786
216 3 13.166 0.740802 8.44797
227 3 11.4478 2.86965 6.28287
229 3 8.16365 6.69168 6.38986
130 2 7.43466 4.60922 7.88023
230 3 9.52824 4.58601 7.19333
29 4 7.13823 1.61081 5.30658
294 4 13.2002 0.542663 1.80106
340 2 12.2523 4.0235 0.141685
347 2 7.7571 0.105921 0.881283
297 3 12.4592 1.40981 0.812616
183 3 7.48504 0.614753 6.5827
217 3 9.41852 -0.263663 8.42609
268 1 5.79838 5.13729 0.992727
226 3 10.0764 2.23015 8.2912
228 3 10.9095 6.80381 6.50987
47 4 12.5507 -0.280222 7.48957
97 2 11.5151 4.3968 8.45917
10 4 13.6289 1.98505 9.34197
342 2 11.0625 6.30422 10.136
32 4 7.13396 1.57814 10.9895
48 4 9.7612 1.04699 9.23904
58 1 12.1685 2.50889 10.6892
65 1 7.22548 3.36415 11.8498
68 1 5.07212 6.1445 11.7717
93 2 11.1791 0.913521 10.0921
98 2 9.45386 6.84926 8.6923
106 2 12.0412 1.6371 11.3726
107 2 11.2664 2.86188 10.1518
108 2 12.7171 3.2964 11.2718
126 2 8.13437 3.65658 11.2964
127 2 7.32938 3.15915 12.9656
128 2 6.36699 4.01521 11.5838
335 2 13.7747 0.242763 13.7496
131 2 5.99267 4.54405 9.08806
135 2 5.19534 5.77 10.6872
109 2 12.0158 4.49804 10.2627
136 2 4.90194 5.20592 12.5424
125 2 5.14478 4.34036 14.2848
218 3 8.56139 1.3781 10.2621
243 1 8.31655 6.42313 11.3616
349 2 9.26676 -0.194092 14.7393
308 2 11.5607 6.18573 14.7818
256 2 9.54529 6.62713 11.5094
257 2 8.00952 5.56999 10.6377
258 2 7.68109 6.44639 12.2903
298 4 11.4186 1.84247 16.6552
299 4 8.53521 2.46615 15.9621
300 4 10.0238 4.68598 14.0577
301 1 10.2435 3.41696 12.6607
302 1 11.6103 5.0665 15.0958
303 2 8.19274 1.59106 14.5423
304 2 8.99581 5.72934 13.0968
305 2 9.65934 2.49964 12.8809
306 2 11.428 3.35463 12.9006
307 2 10.0534 3.77893 11.5832
188 3 6.93674 0.570497 12.2158
248 2 7.45183 6.01714 14.6062
310 2 11.496 4.84494 16.1966
311 3 12.0598 1.6351 15.2372
312 3 9.83972 1.82311 16.5243
313 3 7.2154 2.45519 16.7965
314 3 8.9626 3.89611 15.3342
328 1 9.21595 0.0956766 13.6908
329 2 9.38527 1.17039 13.4288
96 2 8.77936 5.13587 16.5955
12 4 13.5604 1.81471 14.5772
59 1 12.0632 5.67099 9.93329
272 2 5.31988 5.04101 16.7921
309 2 12.4257 4.50473 14.5251
267 4 5.70662 2.88471 16.9727
137 2 5.94789 6.74248 12.0435
4 2 9.3413 11.4645 2.946
254 2 6.84943 8.3255 8.23313
55 4 8.69194 8.37634 2.90854
288 2 2.87091 14.2344 2.09423
74 1 7.92667 10.0612 2.44737
75 1 10.355 9.08507 3.75243
332 2 5.84927 12.7998 0.673057
92 2 4.78377 13.852 8.09422
330 1 6.67433 12.9178 1.47524
144 2 3.55577 9.94574 7.46812
153 2 6.87966 9.65121 2.23552
154 2 8.41 10.5979 1.48614
155 2 7.9002 10.6357 3.38913
326 2 9.5851 12.245 0.459774
157 2 10.2652 8.77486 4.85526
333 2 5.87984 13.9359 2.78738
71 1 3.57283 9.31254 8.46866
231 3 7.90007 7.54494 3.97724
232 3 9.06464 7.5328 1.52643
206 3 2.21116 12.7402 6.33448
273 4 4.49588 8.14582 0.325761
274 4 3.44773 10.2514 2.38518
156 2 11.24 8.52209 3.24348
276 4 5.58858 11.6716 4.62153
277 4 7.29272 11.3914 6.95185
331 2 7.11076 11.8949 1.80127
275 4 2.79538 12.5262 0.452506
281 2 6.55214 12.4154 3.38308
282 2 4.82762 13.0095 5.23249
283 2 8.97178 10.9916 6.90784
284 2 6.99805 10.0607 8.05844
89 2 3.29348 10.799 5.0796
289 3 4.41342 9.41773 1.27044
290 3 2.79028 11.5828 1.8045
291 3 4.49841 10.6573 4.06452
292 3 6.53576 10.9959 5.65464
293 3 7.09224 12.8191 7.58406
295 2 7.72561 13.5394 0.852175
27 4 1.62047 13.8208 7.39314
158 2 10.3798 10.239 3.6256
224 3 5.71059 7.19013 5.33232
279 1 2.60872 14.433 1.00493
102 2 8.95604 12.4617 9.97146
56 4 4.49999 11.3649 15.3831
76 1 5.54102 12.7887 14.6579
86 2 3.76483 8.17502 10.0984
90 2 3.80894 11.1773 11.2696
101 2 6.26556 11.2141 15.5461
345 2 9.21419 9.76821 16.9217
245 2 5.22358 6.90914 13.5727
159 2 5.16416 12.6256 13.5113
160 2 6.73313 13.135 14.6726
327 2 7.57226 10.6849 16.8176
233 3 3.64172 10.5564 14.2366
234 3 3.771 11.8735 16.7122
99 2 10.678 6.95666 16.782
236 4 5.9936 7.78439 14.8747
237 4 8.23646 8.23655 10.6535
238 4 7.63141 10.108 13.1456
239 4 6.73336 12.1838 11.1694
348 2 3.6406 13.8958 13.1174
241 1 10.141 8.48307 9.6851
242 1 6.61801 8.55941 9.29525
244 1 5.30775 11.3991 10.0173
246 2 7.1798 11.1286 9.77801
247 2 8.56854 7.54592 15.005
81 2 10.5241 9.22088 11.4958
251 2 10.8514 7.53053 9.56832
341 2 7.61088 13.6253 10.9398
253 2 6.13689 7.68782 9.85434
235 4 9.37899 11.4225 15.157
255 2 6.17667 9.57796 9.58608
259 2 5.02596 11.3828 8.95812
260 2 4.77323 12.6476 10.8238
261 2 5.12377 10.444 10.6108
262 3 5.12297 7.61977 16.0965
263 3 6.63471 9.25231 14.2296
264 3 7.95947 9.25562 11.7723
265 3 9.10078 10.4211 13.9894
266 3 7.03097 11.5295 12.5875
323 1 8.74153 13.3986 14.4414
250 2 9.36212 8.63412 8.72819
30 4 1.24523 13.8716 13.0866
343 2 8.22837 13.3323 15.5702
344 2 7.97981 13.142 13.5983
338 2 9.63165 10.2673 9.01846
325 1 8.70365 10.7866 16.7656
145 2 4.73644 9.03979 8.79489
214 3 1.78928 12.6528 12.1126
350 2 4.87604 13.6627 15.161
249 2 7.34066 6.73501 16.4348
240 1 7.63256 6.93321 15.2508
ITEM: TIMESTEP
200
ITEM: NUMBER OF ATOMS
350
ITEM: BOX BOUNDS xy xz yz pp pp pp
-6.6963971999999981e+00 1.5238200000000001e+01 -6.2481971999999981e+00
-6.4200000000000002e-01 1.4502800000000001e+01 -4.4819999999999999e-01
0.0000000000000000e+00 1.7008500000000002e+01 -6.4200000000000002e-01
ITEM: ATOMS id type x y z
7 4 -0.628621 2.39838 3.54218
16 4 -0.507417 7.04769 0.0633103
14 4 0.382675 4.71767 1.96957
17 4 -0.48969 6.54697 6.53192
26 4 4.10393 1.3415 3.73047
201 3 3.7328 6.94396 7.01425
33 4 1.52362 6.42757 4.15775
317 2 1.28929 0.414255 0.406155
36 4 4.17153 6.52854 5.49808
57 1 1.29799 0.522243 6.76002
62 1 3.01542 2.85026 4.09433
77 2 1.02434 2.60909 4.09326
315 1 1.98932 1.25637 0.387152
79 2 -0.416828 5.39272 7.78321
82 2 4.08717 2.61482 2.49967
104 2 1.42509 0.218138 5.65351
319 1 -1.27417 3.58874 8.2729
105 2 1.27344 1.64296 6.9756
117 2 2.35219 1.747 4.91671
118 2 2.6185 3.11322 2.98686
119 2 3.6488 3.65981 4.63442
164 3 -1.03744 3.61786 2.62329
165 3 1.12444 3.86446 0.770113
166 3 -0.209765 5.93239 1.18183
167 3 -1.88235 6.3882 5.82306
182 3 5.77054 1.29565 4.50658
269 2 5.83823 3.36182 1.64225
189 3 1.32121 5.05759 3.18577
190 3 0.70001 6.26777 5.55578
191 3 4.65774 2.67368 7.5985
194 3 2.98914 6.95236 4.42656
195 3 4.51825 4.83054 5.57297
318 2 2.26119 1.60205 1.40765
271 2 4.84928 5.07136 1.30673
34 4 5.5535 3.81726 6.80385
103 2 0.439408 -0.126658 7.26467
180 3 3.43367 -0.00365088 3.13652
320 2 -0.131006 3.64302 8.28991
322 2 -1.67894 3.38676 7.27944
8 4 0.862664 2.14926 16.5597
11 4 2.5372 -0.12639 12.6726
13 4 0.777482 1.90717 11.2404
18 4 -0.538728 4.00288 12.9213
19 4 -1.69192 6.37208 11.0782
28 4 4.43636 1.75629 8.97973
31 4 3.54124 2.42071 14.7062
35 4 1.1098 6.35358 9.98392
198 3 2.15381 6.43558 11.277
63 1 3.76046 3.2009 10.073
64 1 4.31962 3.73851 13.628
67 1 2.13931 5.67489 14.3965
83 2 2.00765 2.27339 10.0987
84 2 0.967619 4.71516 9.55026
85 2 0.347776 4.81222 14.2266
324 2 0.500752 -0.192694 14.6343
321 2 -1.83056 4.3947 8.90207
120 2 3.39896 2.81192 11.0544
121 2 2.99324 3.7608 9.51021
122 2 4.61469 3.89075 10.2303
123 2 3.33824 3.93135 12.9452
124 2 5.33318 3.54549 13.0126
181 3 3.36632 0.625221 8.65147
132 2 1.98256 4.56491 14.8165
133 2 3.25602 5.96255 14.3065
134 2 1.54141 5.91276 13.4687
161 3 -0.527456 1.83875 15.7792
162 3 -0.357026 1.54193 10.1739
163 3 1.41865 0.624571 11.9305
168 3 -1.63222 2.97236 13.6095
169 3 0.582148 3.19226 12.1957
170 3 -1.23786 5.15001 12.0569
336 2 -2.39316 5.95918 16.2586
184 3 3.15487 0.983703 13.7247
185 3 4.7144 2.15715 15.9601
186 3 2.09148 2.81816 15.2704
187 3 5.71263 1.51219 9.86033
110 2 -2.60926 5.94002 8.98255
197 3 0.0876662 6.53726 15.9177
316 2 2.41047 0.355596 16.6671
193 3 -0.413082 6.83064 10.1679
125 2 4.55456 4.53333 14.4678
136 2 4.77225 5.32008 12.3687
1 4 -3.69547 13.2403 2.36102
2 1 -5.1585 12.2934 3.24327
3 2 -3.66225 11.5125 3.34303
5 2 -5.32648 12.5481 4.30134
6 3 -3.11908 12.8594 0.842806
337 2 -3.40078 8.25237 4.59877
20 4 -1.62535 9.73351 1.03999
22 4 -1.14655 9.26964 7.80781
334 2 -5.52291 13.6142 2.15751
39 4 -0.4348 11.4284 3.80241
40 4 2.62005 7.87601 7.64123
42 4 1.88257 11.3615 5.82788
60 1 -3.46792 9.19526 0.99042
61 1 -2.88596 9.66737 7.09027
69 1 0.17151 12.7895 2.64341
70 1 -1.82489 12.237 5.045
87 2 0.739943 7.72306 3.35513
88 2 1.38925 8.44355 6.54418
100 2 1.9352 10.2555 7.11651
285 2 2.37097 8.04427 2.45039
112 2 -3.25701 8.13047 1.39952
287 2 1.87977 9.31239 3.7679
115 2 -2.40659 9.65994 5.95374
116 2 -3.27686 10.6912 7.46985
138 2 0.311716 12.3471 1.58344
139 2 1.17602 13.1445 3.08812
140 2 -0.633509 13.6586 2.7337
141 2 -1.27593 12.5519 5.98999
142 2 -2.74416 11.6446 5.24274
143 2 -2.06824 13.1615 4.43635
171 3 -0.748335 8.48514 0.786314
78 2 -2.50426 13.8026 6.0556
173 3 -0.686151 8.01989 7.03873
111 2 -4.06719 9.95709 1.65602
286 2 1.12497 9.45416 2.08332
199 3 -1.24327 10.5181 2.76953
202 3 -0.455387 10.7174 8.0666
203 3 0.409795 13.2285 8.22257
205 3 0.797789 10.9836 4.7632
114 2 -3.62121 8.82388 7.2146
278 1 2.01582 9.11696 2.69358
174 3 -4.24079 12.7309 7.99768
9 4 -3.49712 14.0578 7.50238
21 4 -2.84926 11.7408 16.5496
23 4 -4.75139 11.8264 9.25624
24 4 -3.09491 9.05648 12.2937
25 4 -2.48538 12.0138 11.197
38 4 3.49549 7.34001 11.4281
37 4 1.61433 7.16039 15.5692
41 4 0.0396906 11.8478 9.18533
80 2 -2.45921 8.96955 8.90637
44 4 -0.100912 12.2598 15.3916
45 4 2.12843 11.3536 11.2766
72 1 -3.2481 8.81622 14.1267
73 1 -0.436281 10.6473 14.4109
196 3 2.67092 7.16234 16.8171
339 2 -4.76511 13.3268 13.5172
113 2 -4.12581 8.72479 16.8926
147 2 -2.30466 8.28955 14.4774
172 3 -2.17496 10.2293 16.909
149 2 -3.35644 9.89252 14.6116
150 2 0.438398 9.82685 14.6447
151 2 -0.301826 11.0809 13.3822
152 2 -1.48116 10.2518 14.4903
175 3 -2.44918 7.78106 11.6528
176 3 -4.09237 11.5379 15.355
177 3 -3.83559 11.4917 10.4717
178 3 -2.28118 10.5929 12.3357
179 3 -2.68471 13.47 11.987
200 3 1.88894 7.11859 8.81246
43 4 2.72681 9.40409 13.4715
213 3 1.82892 10.0783 12.2223
204 3 -1.2459 12.034 10.1908
207 3 1.66452 8.6219 14.7202
209 3 1.03029 11.7709 16.5191
210 3 0.550802 13.2981 14.3814
211 3 -1.60505 12.6613 16.2154
212 3 1.35636 11.2254 9.84165
15 4 11.8673 6.68933 5.37158
46 4 9.71165 2.21229 3.57414
49 4 12.1566 1.60142 5.27672
50 4 11.1547 4.83478 3.02066
51 4 7.21733 6.74644 4.97712
52 4 9.99347 6.51312 0.818232
53 4 10.6311 3.41616 7.45362
54 4 9.45276 6.25731 6.99927
66 1 6.21713 5.11862 7.99334
91 2 9.43755 1.69975 1.89681
94 2 12.6317 4.06517 2.61719
95 2 7.2042 5.08701 4.57573
296 3 14.4977 0.970913 2.61154
346 2 10.055 0.276269 0.995697
270 2 6.63886 5.67493 1.59525
129 2 5.8954 6.15785 7.77429
192 3 6.73975 3.11547 6.00842
215 3 8.42631 1.84482 4.36102
219 3 13.5927 2.24496 4.90259
220 3 10.9691 1.42245 4.08002
221 3 12.4734 0.0204724 5.98474
222 3 10.0468 3.74796 3.45608
223 3 11.5462 5.85251 4.09701
280 2 4.9966 6.94991 1.30611
225 3 10.8118 5.47804 1.55876
216 3 13.0654 0.717544 8.42964
227 3 11.5187 2.7353 6.36899
229 3 8.09609 6.75759 6.32926
130 2 7.34792 4.90858 7.7435
230 3 9.59688 4.46307 6.92105
29 4 7.14028 1.73192 5.35515
294 4 13.1645 0.465158 1.79292
228 3 10.8478 6.78459 6.52171
347 2 8.22849 0.374289 0.596251
297 3 12.4475 1.5194 0.799404
183 3 7.44098 0.643417 6.63988
267 4 6.21947 3.47143 0.00559889
268 1 5.8617 5.15755 0.840724
226 3 9.96652 2.27724 8.33438
10 4 13.5915 2.01276 9.38396
342 2 11.1624 6.14208 10.2396
32 4 7.02558 1.49704 10.9555
48 4 9.58507 1.07096 9.23237
58 1 12.2074 2.42645 10.778
65 1 7.06213 3.25013 11.8622
68 1 5.05395 6.16501 11.6743
93 2 11.0462 0.887288 10.1541
309 2 12.4107 4.40027 14.7296
106 2 12.169 1.48511 11.3851
107 2 11.2773 2.76392 10.2963
108 2 12.7301 3.28537 11.3338
126 2 8.06712 3.57518 11.5804
127 2 6.97544 2.94616 12.944
128 2 6.19617 3.86617 11.4139
335 2 14.1594 0.373203 13.8798
131 2 5.90327 4.78271 9.04346
135 2 5.07667 5.85771 10.5565
109 2 12.1655 4.39844 10.3138
272 2 5.28935 5.06005 16.7862
97 2 11.6235 4.24354 8.52302
218 3 8.46395 1.39476 10.2634
243 1 8.15752 6.38969 11.4214
349 2 9.45031 -0.158531 14.8425
308 2 11.6238 6.13727 14.7347
256 2 9.40581 6.466 11.2885
257 2 7.71892 5.61834 10.755
258 2 7.74082 6.49498 12.4628
298 4 11.379 1.92875 16.6496
299 4 8.57408 2.5429 15.9521
300 4 9.93892 4.74405 13.9362
301 1 10.2045 3.34666 12.7071
302 1 11.536 5.05014 15.0576
303 2 8.26534 1.47597 14.6144
304 2 9.32438 6.07367 12.9667
305 2 9.45848 2.47309 12.8354
306 2 11.321 3.11084 13.1078
307 2 10.2154 3.88207 11.7455
188 3 6.8878 0.539247 12.257
248 2 7.47238 6.02614 14.8838
310 2 11.308 4.9481 16.15
311 3 12.126 1.41733 15.2267
312 3 9.83418 1.97138 16.7987
313 3 7.34677 2.5049 16.9009
314 3 8.73437 4.0092 15.3329
328 1 9.34086 0.0833181 13.7102
329 2 9.60458 1.23168 13.5529
96 2 8.77462 5.13968 16.5052
12 4 13.6085 1.73207 14.659
59 1 12.1072 5.5642 9.96045
340 2 11.9972 3.47969 16.8646
217 3 9.40899 -0.320351 8.5123
4 2 9.2433 11.427 2.84892
254 2 6.88962 8.25507 8.07928
55 4 8.69104 8.4471 2.77413
345 2 9.6951 10.5032 0.14085
74 1 7.76484 10.1279 2.32405
75 1 10.3282 9.1511 3.69416
332 2 5.83777 12.8526 0.70251
92 2 4.58856 13.8771 7.7791
330 1 6.644 13.0167 1.44253
144 2 3.71947 10.064 7.45332
153 2 6.81297 9.65979 2.00954
154 2 8.30235 10.6167 1.37476
155 2 7.62115 10.8419 3.15935
326 2 9.34184 12.3428 0.421236
157 2 10.0732 8.68257 4.70173
333 2 5.66054 13.9887 2.67633
71 1 3.65859 9.33071 8.35355
231 3 7.93636 7.63083 3.85577
232 3 8.91259 7.38949 1.46128
206 3 2.117 12.8183 6.19505
273 4 4.51236 8.28944 0.389354