ITEM: TIMESTEP
0
ITEM: NUMBER OF ATOMS
350
ITEM: BOX BOUNDS xy xz yz pp pp pp
-6.7108999999999996e+00 1.5238200000000001e+01 -6.2626999999999997e+00
-6.4200000000000002e-01 1.4502800000000001e+01 -4.4819999999999999e-01
0.0000000000000000e+00 1.7008500000000002e+01 -6.4200000000000002e-01
ITEM: ATOMS id type q x y z
7 4 1.28836 -0.613891 2.39768 3.67907
180 3 -0.807455 3.83169 0.0145978 2.87426
14 4 1.43558 0.0810631 4.69233 1.84688
17 4 1.21829 -0.941408 6.56363 6.52682
26 4 0.999927 4.37479 1.51718 3.15112
34 4 1.38349 5.4331 3.60958 7.08283
33 4 1.2745 1.26155 6.34474 4.18446
318 2 0.159595 1.33296 0.727361 1.13839
36 4 1.42797 4.24562 5.95514 5.27223
57 1 -0.638988 1.21653 0.738919 7.06136
62 1 -0.647003 3.06138 2.50557 4.07068
77 2 0.0126519 1.05706 2.59349 4.16042
195 3 -0.83982 4.548 4.41164 5.98334
79 2 0.0512412 -0.323948 5.78579 7.90515
82 2 0.0853854 4.76376 2.13314 1.57529
16 4 1.29546 -0.584119 7.11592 0.0274686
103 2 0.17606 0.981519 1.7622 7.47538
321 2 0.221967 -1.32113 2.62436 7.84987
117 2 0.146594 2.49065 1.56392 4.51832
118 2 0.156988 2.55307 3.02338 3.06416
119 2 0.264685 3.65387 3.26702 4.85212
164 3 -0.813545 -1.18528 3.60392 2.78418
165 3 -0.857294 1.10947 3.75905 0.990117
166 3 -0.85537 -0.729321 5.91421 1.05445
167 3 -0.797249 -2.33934 5.8875 6.30246
182 3 -0.769818 5.69072 1.59522 4.13864
104 2 0.250801 0.292232 0.014654 7.02672
189 3 -0.823263 0.97841 5.26405 3.01486
190 3 -0.841723 0.132277 6.36524 5.33733
191 3 -0.833131 4.59387 2.73775 8.06051
194 3 -0.840883 2.78437 6.15365 4.69756
272 2 0.17203 5.00173 5.18587 0.30794
105 2 0.112389 1.84035 0.711559 5.95966
315 1 -0.632563 1.77671 1.04399 0.123383
185 3 -0.777196 5.38562 2.6676 0.244188
183 3 -0.822117 6.97323 0.237464 6.1094
200 3 -0.835447 2.36227 6.8538 8.4218
295 2 -0.0206986 -0.0544241 0.250558 0.204259
316 2 0.194114 2.9498 1.12722 0.0745094
8 4 1.32405 1.05122 2.29793 16.7247
11 4 1.34225 2.96973 -0.0775387 13.4447
13 4 1.26949 1.00893 1.5852 11.6715
18 4 1.23174 -0.489547 3.88911 13.033
19 4 1.26138 -1.13721 6.2423 10.9021
28 4 1.35073 4.25744 1.80553 9.37629
31 4 1.20549 3.90203 2.15145 15.4696
35 4 1.13915 1.6864 5.93587 9.63164
322 2 0.136234 -0.0723607 2.85052 9.19954
63 1 -0.688497 3.33334 3.17663 10.5707
64 1 -0.676781 4.78669 3.41546 14.5566
67 1 -0.671087 2.15636 5.40673 14.3989
83 2 0.0276474 1.84162 2.01122 10.2176
198 3 -0.779242 2.45391 6.17294 11.1188
85 2 0.0368556 0.320243 4.68353 14.3409
317 2 0.159241 0.838495 -0.174264 16.0466
319 1 -0.66524 -1.1859 2.88958 8.94153
120 2 0.156949 3.98169 2.78752 11.4784
121 2 0.173936 2.26356 3.50674 10.9748
122 2 0.156024 3.81814 4.04896 10.0874
59 1 -0.667256 -2.64172 5.65917 9.81984
124 2 0.163066 4.24897 3.45669 13.532
324 2 0.155284 0.517983 0.0460698 14.5504
132 2 0.251568 2.11864 4.3931 14.9441
133 2 0.178221 3.24682 5.69918 14.189
134 2 0.202293 1.59528 5.45146 13.4267
161 3 -0.849242 -0.395939 2.1138 15.8281
162 3 -0.804182 -0.202031 0.760136 10.9887
163 3 -0.87847 1.9716 0.713225 12.6004
193 3 -0.805267 0.0535653 6.23042 9.68544
169 3 -0.880545 0.519035 2.902 12.2806
170 3 -0.815392 -0.933435 5.075 12.0636
84 2 -0.0133155 2.06776 4.28468 9.44407
184 3 -0.80602 3.6878 0.883086 14.5687
110 2 0.171358 -2.0921 5.54663 8.76915
186 3 -0.82301 2.30415 2.84347 15.9371
187 3 -0.790668 5.62921 1.48063 10.1236
123 2 0.155924 4.85403 4.46248 15.0058
181 3 -0.800305 3.25437 0.627601 8.953
336 2 0.0180343 -2.48168 6.18992 16.1704
168 3 -0.800131 -1.82386 3.12129 13.6658
320 2 0.166216 -1.69964 3.96876 9.23604
197 3 -0.816729 0.0924183 6.46699 15.9251
1 4 0.992414 -3.33304 13.3029 2.13934
2 1 -0.695761 -4.79067 12.621 3.18567
3 2 0.0410417 -3.11976 11.6511 2.80148
5 2 0.161365 -4.57273 12.4547 4.26015
6 3 -0.813944 -3.53115 13.3062 0.515693
290 3 -0.797252 2.35889 11.3049 1.2405
20 4 1.21386 -1.74544 9.8252 1.24655
22 4 1.07869 -2.01765 9.38239 7.67165
138 2 0.201336 -0.310959 13.6475 3.50015
39 4 1.0991 -0.666814 11.5156 4.00281
40 4 1.05272 2.99867 7.78615 7.32229
42 4 0.959219 1.97889 11.1871 5.71221
60 1 -0.652445 -3.42083 9.07784 1.44456
61 1 -0.698385 -3.36778 9.98377 6.48606
69 1 -0.65741 0.193382 12.7808 2.87385
70 1 -0.683274 -2.14622 12.3946 5.02939
87 2 0.0217122 1.17059 7.90373 3.50044
88 2 -0.0222591 1.79072 8.4535 6.29277
100 2 -0.0318892 2.25352 10.3531 7.14954
113 2 0.170109 -4.09588 9.39099 2.48512
112 2 0.15577 -3.84134 9.3219 0.359178
111 2 0.175892 -3.10692 7.96473 1.51135
115 2 0.170288 -2.71423 10.0751 5.51689
116 2 0.187322 -3.63891 10.9641 6.95238
78 2 0.0133375 -2.50225 13.653 6.53692
139 2 0.229783 -0.0691979 12.7696 1.78445
140 2 0.20862 1.25986 12.6963 3.0283
141 2 0.19128 -1.93842 12.0074 6.08497
142 2 0.159539 -3.21659 12.1424 4.71705
143 2 0.198989 -1.81914 13.4811 4.96878
171 3 -0.782921 -0.688873 8.46 0.780055
202 3 -0.795933 -1.14371 10.5321 8.34095
173 3 -0.82055 -1.29245 8.16474 6.98545
172 3 -0.808851 -1.94747 10.8833 0.0730878
337 2 0.0104484 -3.28639 8.38056 5.32092
199 3 -0.770215 -1.20859 10.5807 2.85001
9 4 1.01215 -3.66717 14.1878 7.78266
203 3 -0.814416 0.278739 12.7866 7.91667
205 3 -0.781707 0.586317 10.8476 5.06617
334 2 0.153387 -5.31148 13.7872 3.05127
278 1 -0.678755 2.82067 9.08327 3.32943
285 2 0.170997 2.63997 8.29678 2.51641
286 2 0.172708 1.89991 9.48244 3.93437
174 3 -0.791334 -4.47969 12.758 8.37054
114 2 0.170236 -4.24204 9.26376 6.41138
80 2 0.0104244 -3.17924 8.7634 8.88758
23 4 0.992596 -4.7951 12.2938 9.80992
24 4 1.0642 -2.4481 9.2423 11.7955
25 4 1.48254 -2.1877 12.2061 11.4524
209 3 -0.827676 0.548104 12.6445 16.7796
37 4 1.34617 1.59996 6.98541 15.3374
41 4 1.58481 -0.182469 11.7977 9.10927
43 4 1.50307 2.51438 9.1309 13.3783
44 4 1.34782 -0.327909 12.31 15.4485
45 4 1.35068 1.9603 11.1951 11.1258
72 1 -0.683111 -3.51275 8.74776 13.1902
73 1 -0.662164 -0.106821 10.398 15.1232
213 3 -0.834399 1.77625 9.98799 12.04
339 2 0.0505368 -4.25087 13.5025 14.4912
21 4 1.36463 -3.18108 11.7393 16.4105
147 2 0.172818 -3.15293 7.68753 13.4339
38 4 1.03289 3.66166 7.32596 11.2664
149 2 0.218757 -3.34379 9.50266 14.0343
150 2 0.226778 0.642594 10.0043 15.7912
151 2 0.235948 0.378277 10.5858 14.0296
152 2 0.234775 -1.05729 9.85219 15.1682
175 3 -0.769373 -1.70435 7.83103 11.3296
176 3 -0.813639 -4.34823 11.3593 15.2341
177 3 -0.866197 -3.58262 11.9689 10.7125
178 3 -0.76813 -1.69467 10.6017 12.1366
179 3 -0.800193 -2.38583 13.4938 12.5213
196 3 -0.827602 2.79068 7.1562 16.4783
81 2 0.0639582 -3.90919 9.62247 10.533
323 1 -0.67801 -6.24748 13.5675 14.427
204 3 -0.79961 -1.0647 12.5183 10.183
207 3 -0.816866 1.51934 8.18262 14.2223
102 2 0.0191553 -5.71049 13.4265 10.5928
210 3 -0.785034 0.474337 13.0041 14.0147
211 3 -0.77896 -1.90863 12.6125 15.629
212 3 -0.876607 1.13272 11.2408 9.80191
146 2 0.161936 2.92987 9.82633 8.84606
208 3 -0.808144 3.54953 8.13188 12.6385
15 4 1.24115 11.5811 6.66585 5.44136
46 4 1.28938 9.72425 2.29302 3.64108
49 4 1.52852 12.229 1.86903 5.39869
50 4 1.26076 11.0281 5.04508 2.86391
51 4 1.27085 7.05295 6.39868 4.38824
52 4 0.949059 9.48489 6.81972 0.957856
53 4 1.33405 10.7239 3.45279 7.5326
54 4 1.28711 9.03282 6.04823 6.74561
66 1 -0.670348 6.19447 5.02215 8.25776
91 2 0.026636 9.52353 1.69251 2.05476
94 2 0.101379 12.575 4.31271 2.6803
95 2 -0.00895391 7.65755 5.25667 3.26657
29 4 1.50157 7.08456 1.67209 5.29016
280 2 0.019414 5.27141 7.15192 1.15457
268 1 -0.681147 6.0999 5.44741 0.573577
129 2 0.205653 6.28845 5.84526 7.46827
192 3 -0.801094 6.70097 2.87673 6.32042
215 3 -0.869289 8.48832 1.79415 4.45728
219 3 -0.815961 13.7474 2.34673 4.97509
220 3 -0.849475 11.1162 1.76439 4.09389
221 3 -0.810617 12.2272 0.276312 6.11749
222 3 -0.826336 9.97862 3.92213 3.39682
223 3 -0.846056 11.1833 6.11282 4.04416
224 3 -0.821664 5.44069 6.2321 4.13155
225 3 -0.857568 10.6341 5.7732 1.51704
346 2 0.212433 10.0662 0.201369 0.957247
227 3 -0.819496 11.803 2.95385 6.4983
228 3 -0.850802 10.2612 6.95578 6.36738
229 3 -0.850189 7.81489 6.10075 5.75805
230 3 -0.807411 9.64227 4.54959 6.97324
271 2 0.117026 6.29813 5.54974 1.82839
294 4 1.01839 13.9038 0.548615 1.40075
347 2 0.176253 8.29796 0.546366 1.61769
226 3 -0.887696 10.0376 2.24296 8.20206
297 3 -0.816839 12.5626 1.18303 0.780599
296 3 -0.84599 14.5738 1.04038 2.80475
340 2 -0.016899 12.3782 3.78907 0.832055
267 4 1.03594 6.63569 3.54387 0.608286
96 2 -0.000598042 8.0042 5.99954 0.629976
269 2 -0.0265114 6.94682 3.07182 2.15079
98 2 -0.0188545 8.44556 6.6212 8.26617
217 3 -0.878327 8.92072 -0.214318 7.96212
216 3 -0.850232 13.2758 0.295819 8.47399
270 2 0.162087 6.38014 6.34738 0.0234039
10 4 1.01311 13.6185 1.19021 9.75967
342 2 0.150318 11.8805 6.60526 9.92886
32 4 1.33314 7.03228 1.55535 11.0515
48 4 1.35978 9.27913 1.04991 8.82849
58 1 -0.677505 11.9502 1.06982 10.9525
65 1 -0.670497 7.00553 3.3511 11.7424
68 1 -0.662477 5.4009 6.42512 11.4178
93 2 0.0287574 10.6794 0.422642 9.5654
188 3 -0.817324 7.20632 0.527857 12.3254
12 4 1.196 13.62 1.89838 14.7917
107 2 0.141939 11.574 2.03394 10.39
108 2 0.168302 12.5113 1.37969 11.8992
126 2 0.161201 7.88321 3.83616 11.2431
127 2 0.162806 7.03153 3.39707 12.8831
109 2 0.149395 12.3537 4.76336 10.4511
328 1 -0.665721 9.35607 -0.171764 13.8351
131 2 0.163933 5.4368 5.20543 9.05777
135 2 0.160285 6.56462 6.39797 10.9447
106 2 0.136756 11.0472 0.487319 11.2856
128 2 0.152136 5.97233 3.69532 11.2845
313 3 -0.835267 7.47182 2.7033 16.7583
218 3 -0.840353 8.25152 1.4219 9.9485
243 1 -0.663116 8.43516 6.22729 10.1642
245 2 0.0467963 6.59882 6.29173 14.1898
248 2 0.156977 8.18597 5.7221 15.7792
256 2 0.16481 7.58274 5.74609 9.49131
257 2 0.149357 8.21622 6.13064 11.2786
258 2 0.125002 9.50607 5.84279 9.91224
97 2 -0.00162344 11.5938 4.31839 8.74346
299 4 1.25269 8.72613 2.28018 15.9142
300 4 0.826745 9.84792 4.50767 13.9669
301 1 -0.639564 10.7938 3.57905 12.6264
302 1 -0.663301 11.3335 5.54526 14.954
303 2 0.0198595 8.14105 1.12063 14.8882
304 2 -0.00124121 8.66889 5.74093 13.6225
305 2 0.19564 11.6772 4.1245 12.2581
306 2 0.110531 9.83318 3.69135 11.8715
307 2 0.202904 11.0092 2.46111 12.9691
309 2 0.217038 12.0972 4.95839 14.3396
137 2 0.176387 5.48067 6.67796 12.5528
310 2 0.163775 11.0659 5.26364 16.0824
311 3 -0.809148 12.2305 1.84181 15.5493
308 2 0.145069 11.1495 6.60584 14.7205
335 2 -0.00564728 13.799 0.311173 14.0192
314 3 -0.801713 9.19645 3.54845 15.0032
125 2 0.177218 5.82711 3.1092 14.2881
329 2 0.167911 9.33294 0.89644 13.4784
312 3 -0.851753 9.88422 1.68842 16.79
240 1 -0.656678 7.97763 6.64351 15.1922
349 2 0.212208 9.25087 -0.358331 14.9492
130 2 0.168987 7.20101 4.46983 8.58309
136 2 0.150112 4.94938 5.4026 11.222
298 4 1.24522 11.4591 1.78453 16.9809
156 2 0.158758 10.8797 8.92889 3.94758
47 4 1.20077 6.54444 13.9386 7.30148
55 4 1.1409 8.49985 8.75929 3.02244
332 2 0.150903 7.4084 12.6838 1.04273
74 1 -0.666291 7.61186 10.4271 2.60095
75 1 -0.665475 9.99786 9.60845 4.1141
158 2 0.163309 10.1497 10.6781 3.75627
71 1 -0.675318 3.69398 9.36083 8.11207
288 2 0.138722 3.1756 13.9029 2.59695
144 2 0.119469 3.90969 9.98702 7.17446
153 2 0.192065 6.6578 10.36 3.26726
154 2 0.181127 7.39016 10.1661 1.49814
155 2 0.163802 7.97681 11.4904 2.67966
4 2 0.149189 9.94183 11.7751 2.66097
157 2 0.162589 9.75785 9.55609 5.23881
273 4 1.27935 4.62552 8.32964 0.0699158
27 4 1.45871 1.44803 13.7116 7.04579
231 3 -0.820133 7.52634 7.83413 3.83904
232 3 -0.842903 9.0282 8.09387 1.66481
331 2 0.155929 7.24041 13.3149 2.94514
293 3 -0.752048 7.91784 12.8997 6.55877
274 4 1.31959 3.55352 10.4582 2.03454
275 4 1.30432 2.34565 12.796 0.451253
276 4 1.00809 4.88172 12.5222 4.05389
277 4 0.901051 7.2425 11.7239 5.69812
333 2 0.187115 5.76678 13.3935 1.63096
206 3 -0.808079 2.33378 12.6767 5.6796
281 2 0.0194314 5.61536 13.8726 3.31217
282 2 0.106341 3.51597 13.3101 4.68257
283 2 0.00235567 8.18092 11.183 4.3314
284 2 -0.0341279 7.26209 10.2802 6.5141
327 2 0.16435 9.60117 11.0548 0.204119
289 3 -0.857083 4.39014 9.58175 1.00112
330 1 -0.663468 6.84237 13.2939 1.81947
291 3 -0.858336 4.27028 11.5017 3.04842
292 3 -0.853441 5.76509 11.9365 5.16853
279 1 -0.683708 2.88707 14.3103 1.58365
92 2 0.00167655 5.30985 12.9936 8.1275
201 3 -0.773783 4.30258 7.24952 6.51631
287 2 0.183169 3.71621 8.80548 3.93747
89 2 0.00677078 3.15986 10.3112 4.80424
254 2 0.151216 6.67223 8.21466 8.31574
247 2 0.144633 8.84316 7.05472 14.6312
56 4 1.14093 3.94262 11.1296 15.4835
76 1 -0.686749 5.62389 11.9436 15.0662
145 2 0.165283 4.81303 9.07867 8.6431
90 2 0.0163898 3.63309 10.9531 10.6308
101 2 0.0359698 5.22663 10.4951 16.412
99 2 0.00142965 9.51661 6.82187 16.3895
86 2 0.00425695 3.94771 8.33942 9.79551
159 2 0.179276 5.42115 13.0272 15.2157
160 2 0.208899 5.66793 11.6154 13.9451
344 2 0.175097 8.81134 13.3955 13.3127
233 3 -0.845048 3.2735 10.2477 14.3825
234 3 -0.831606 3.06963 12.166 16.2573
348 2 0.15752 3.88272 13.7248 13.2986
236 4 1.04357 6.46881 8.0918 14.9865
237 4 0.862022 8.47643 8.3885 10.1611
238 4 1.42724 7.64334 10.0101 12.7882
239 4 0.698702 6.25874 12.439 11.1461
148 2 0.182354 10.6845 8.79158 12.7526
241 1 -0.630226 10.1804 9.10194 9.3155
242 1 -0.650039 6.6272 8.63715 9.40221
244 1 -0.645556 5.01896 11.9358 9.70603
246 2 0.00338352 6.82287 12.2697 9.36915
251 2 0.128304 10.32 8.02516 8.92784
249 2 0.0481752 7.97182 8.15574 16.0818
343 2 0.120778 8.04631 13.4909 15.1405
250 2 0.0173278 8.4559 9.70006 8.85093
253 2 0.167809 6.10346 7.83737 10.2262
235 4 1.14952 9.32047 11.4821 14.9924
255 2 0.155106 6.33631 9.72509 9.5099
259 2 0.159189 4.34408 12.2074 8.82684
260 2 0.0405657 4.41316 12.622 11.3384
261 2 0.156265 5.19799 10.8425 9.64804
262 3 -0.873828 5.32217 7.94618 16.0481
263 3 -0.796885 6.6605 9.14964 13.7922
264 3 -0.781486 8.41573 9.01693 11.587
265 3 -0.824631 8.666 10.7386 13.8187
266 3 -0.791129 6.74616 11.1883 12.0316
30 4 1.41895 1.44547 13.6346 12.9335
325 1 -0.672868 8.34805 10.9109 16.5517
326 2 0.162062 7.4863 10.2638 16.5873
350 2 0.162264 6.65314 11.5626 15.6734
338 2 -0.013274 9.40176 10.9356 9.776
345 2 0.102685 8.16626 12.08 16.8459
214 3 -0.864201 2.08619 12.6243 11.9004
341 2 -0.00953622 6.57435 14.0117 11.7914
252 2 0.144719 10.0203 9.84646 8.51417
ITEM: TIMESTEP
100
ITEM: NUMBER OF ATOMS
350
ITEM: BOX BOUNDS xy xz yz pp pp pp
-6.7243218000000002e+00 1.5268676400000000e+01 -6.2752254000000001e+00
-6.4200000000000002e-01 1.4502800000000001e+01 -4.4909640000000017e-01
0.0000000000000000e+00 1.7008500000000002e+01 -6.4200000000000002e-01
ITEM: ATOMS id type q x y z
7 4 1.29331 -0.651928 2.44671 3.53648
180 3 -0.846776 3.78101 0.0999061 2.85687
14 4 1.47247 0.0656441 4.76868 1.85342
17 4 1.23208 -0.847241 6.57673 6.56705
26 4 1.03678 4.3847 1.49083 3.1915
34 4 1.40441 5.59319 3.65007 7.05104
33 4 1.29231 1.25597 6.45021 4.27179
318 2 0.172754 1.35605 0.958436 1.1965
36 4 1.45288 4.3088 5.90872 5.24927
57 1 -0.652156 1.23176 0.464093 6.72047
62 1 -0.678645 3.0042 2.56166 4.00531
77 2 0.0274506 1.06317 2.70519 3.93037
195 3 -0.796897 4.45731 4.29408 5.90332
79 2 0.0666284 -0.446399 5.69778 7.94852
82 2 0.0667778 4.5955 2.26603 1.68246
316 2 0.200446 2.80752 1.20737 0.0721293
103 2 0.185427 0.94231 1.51061 6.97964
321 2 0.183817 -1.4283 2.73664 8.00804
117 2 0.160479 2.42831 1.72635 4.47272
118 2 0.17555 2.67665 3.06061 3.0702
119 2 0.284955 3.53238 3.33776 4.77658
164 3 -0.811137 -1.28548 3.71742 2.69906
165 3 -0.872103 0.958751 3.62392 1.17592
166 3 -0.856931 -0.433986 5.8019 0.775865
167 3 -0.811954 -2.3072 6.09225 6.11762
182 3 -0.805473 5.72747 1.58587 4.11674
201 3 -0.804001 4.21622 6.93492 6.58445
189 3 -0.838612 0.763453 5.53703 3.13703
190 3 -0.855249 0.321039 6.45707 5.5553
191 3 -0.811057 4.79742 2.91755 8.15549
194 3 -0.813156 2.81263 5.96719 4.64237
272 2 0.164577 5.09341 5.179 0.479881
105 2 0.100416 1.99277 0.484987 5.63763
315 1 -0.665476 1.70362 1.14613 0.138191
185 3 -0.735515 5.20704 2.59177 0.189741
183 3 -0.831855 6.89677 0.150766 6.05413
104 2 0.247102 0.349438 -0.191576 6.63211
295 2 -0.00278363 -0.150667 0.49807 0.370075
9 4 1.01431 2.6398 -0.278221 7.68245
8 4 1.31116 0.82843 2.36023 16.7238
11 4 1.32785 2.94087 0.074448 13.4303
13 4 1.27259 0.870527 1.50459 11.6031
18 4 1.26579 -0.448339 3.93966 12.9766
19 4 1.25315 -1.15412 6.22496 10.8251
28 4 1.34235 4.26631 1.97878 9.42665
31 4 1.18527 3.88214 2.31799 15.4828
35 4 1.20787 1.72023 5.8471 9.61696
322 2 0.143419 -0.123161 3.05042 9.40907
63 1 -0.687552 3.21496 3.3116 10.5237
64 1 -0.679981 4.97286 3.57831 14.6733
67 1 -0.674186 2.30573 5.42608 14.204
83 2 0.0161173 1.71053 2.09802 10.2063
198 3 -0.791902 2.55034 6.31224 10.9991
85 2 0.0149742 0.530286 4.56006 14.2467
317 2 0.181769 0.814493 -0.129051 16.2463
319 1 -0.67891 -1.2453 2.9161 9.1848
120 2 0.160962 3.87392 2.99114 11.4578
121 2 0.160858 2.20766 3.62825 10.8779
122 2 0.145189 3.76668 4.1897 9.91702
59 1 -0.671361 -2.81935 5.61118 10.0325
124 2 0.185307 5.00545 3.20481 13.5801
324 2 0.164341 0.593481 0.076129 14.4676
132 2 0.235957 2.17704 4.48137 14.894
133 2 0.197998 3.3711 5.62009 14.0194
134 2 0.187261 1.76365 5.33649 13.2107
161 3 -0.872255 -0.430529 2.08276 15.7451
162 3 -0.809666 -0.260768 0.558244 10.9916
163 3 -0.861416 1.87259 0.719487 12.5026
193 3 -0.82236 0.0755468 5.97401 9.59116
169 3 -0.868116 0.356939 2.78469 12.3789
170 3 -0.83264 -0.887154 5.05641 11.9322
84 2 -0.00423431 2.04696 4.17729 9.23906
184 3 -0.792223 3.73309 1.20865 14.3252
110 2 0.146131 -2.44834 5.59371 8.94141
186 3 -0.787035 2.24309 2.96252 15.9322
187 3 -0.781596 5.60247 1.59687 10.2412
123 2 0.166661 4.6482 4.61542 14.7658
181 3 -0.769867 3.29188 0.837027 8.85821
336 2 -0.00556716 -2.35448 6.05704 15.8239
168 3 -0.826112 -1.63553 3.07048 13.7233
320 2 0.180287 -1.76925 3.86536 9.53206
197 3 -0.84017 0.256114 6.50564 16.0861
16 4 1.30997 -1.04527 6.46135 16.8823
200 3 -0.854278 2.33692 6.71979 8.51193
1 4 1.02745 -3.29567 13.3354 2.20786
2 1 -0.676204 -4.90149 12.685 3.08124
3 2 0.0379583 -3.12401 11.8267 3.04983
5 2 0.140656 -4.93332 12.2172 4.17135
6 3 -0.832125 -3.47936 13.145 0.60002
290 3 -0.768117 2.19426 11.3071 1.39125
20 4 1.26698 -1.74565 9.87579 1.25564
22 4 1.0919 -1.86009 9.38366 7.70332
138 2 0.227483 -0.179224 13.8989 3.6848
39 4 1.12753 -0.596778 11.4564 3.95423
40 4 1.07316 2.99845 7.6156 7.40706
42 4 0.95035 1.87187 10.9576 5.68376
60 1 -0.643638 -3.47862 9.16622 1.37078
61 1 -0.700441 -3.38931 9.87157 6.70221
69 1 -0.663808 0.152986 13.0501 3.0703
70 1 -0.672534 -1.76947 12.3372 5.21138
87 2 0.00992274 1.16606 8.01553 3.63379
88 2 -0.0232986 1.87055 8.29266 6.32455
100 2 -0.0174718 2.05681 9.99642 7.05263
113 2 0.20623 -4.12011 9.44032 2.31764
112 2 0.178305 -3.99455 9.49468 0.393285
111 2 0.184837 -3.15428 8.05854 1.46367
115 2 0.145617 -2.66326 10.1034 5.67333
116 2 0.175209 -3.62271 10.8544 7.24485
78 2 0.0225239 -2.38477 13.5668 6.59331
139 2 0.223312 -0.0195404 13.3281 1.98974
140 2 0.168038 1.33435 12.8201 3.25543
141 2 0.223433 -1.36475 12.1171 6.31795
142 2 0.141697 -2.82428 11.9181 5.08728
143 2 0.18947 -1.70633 13.4426 4.91401
171 3 -0.810307 -0.946206 8.44697 0.607354
202 3 -0.782447 -1.05609 10.5575 8.3816
173 3 -0.827075 -1.12475 8.22049 7.01753
172 3 -0.85072 -2.05436 11.0748 0.250942
337 2 0.00079733 -3.01539 8.56113 5.28826
199 3 -0.794309 -1.30073 10.4922 2.87244
27 4 1.51804 1.37731 13.6592 7.03923
203 3 -0.844144 0.284331 12.8595 7.94465
205 3 -0.814547 0.502046 10.79 5.02038
334 2 0.15921 -5.3249 13.8583 3.18565
278 1 -0.687169 2.79309 9.049 3.07653
285 2 0.172736 2.53389 8.18562 2.45684
286 2 0.174563 1.86128 9.66725 3.31002
174 3 -0.791179 -4.30772 12.9319 8.42524
287 2 0.157396 3.60172 8.88543 3.8874
80 2 0.0128641 -3.1829 8.77443 8.66905
23 4 0.978388 -4.74363 12.4075 9.85888
24 4 1.04832 -2.35011 9.19379 11.8912
25 4 1.47666 -2.11373 12.1472 11.3937
209 3 -0.78239 0.448243 12.5943 16.8508
37 4 1.43721 1.65 6.89035 15.3637
41 4 1.53192 -0.0710981 11.8996 9.16576
43 4 1.47141 2.47694 9.11396 13.3014
44 4 1.32764 -0.51596 12.3234 15.312
45 4 1.31151 1.97186 11.1219 11.1553
72 1 -0.68538 -3.61115 8.85473 13.2328
73 1 -0.679811 -0.415066 10.4319 14.9808
213 3 -0.822925 1.61271 9.91777 12.1805
339 2 0.0363597 -4.24831 13.6592 14.5491
21 4 1.43909 -3.23118 11.6267 16.5009
147 2 0.141011 -3.57072 7.68881 13.2193
38 4 1.01936 3.78552 7.34671 11.1862
149 2 0.200462 -3.22273 9.30657 14.2045
150 2 0.231581 0.314682 9.96696 15.6547
151 2 0.25148 -0.0663682 10.4863 13.8843
152 2 0.202565 -1.4 9.97725 14.977
175 3 -0.785781 -1.57414 7.76927 11.3867
176 3 -0.829257 -4.3766 11.1051 15.3994
177 3 -0.852994 -3.48419 12.0331 10.6674
178 3 -0.817689 -1.69331 10.6486 11.9782
179 3 -0.745624 -2.47654 13.5139 12.6149
196 3 -0.858607 2.82763 6.97934 16.3516
81 2 0.0588537 -3.87966 9.35415 10.9013
323 1 -0.676085 -6.20099 13.5857 14.5634
204 3 -0.779275 -0.885821 12.7268 10.2476
207 3 -0.801613 1.54469 8.14803 14.4409
102 2 0.0690036 -5.7152 13.598 10.5921
210 3 -0.763348 0.445062 13.0901 14.1003
211 3 -0.776923 -2.00152 12.6711 15.448
212 3 -0.861901 1.26831 11.0932 9.74998
146 2 0.177586 2.98648 9.75813 8.81957
15 4 1.27061 11.6793 6.93047 5.49405
46 4 1.25607 9.72902 2.37536 3.72995
49 4 1.5065 12.1309 1.81784 5.45219
50 4 1.23639 11.046 5.02854 3.09051
51 4 1.25335 7.22949 6.36283 4.39107
52 4 0.921918 9.68726 6.6392 1.12025
53 4 1.3037 10.5576 3.46827 7.53653
54 4 1.29675 9.05051 6.113 6.71438
66 1 -0.67075 6.38559 4.95688 8.27623
91 2 0.0318183 9.48073 1.6073 2.20881
94 2 0.114634 12.3867 3.93401 3.03185
95 2 0.0315107 8.04168 5.16729 3.42813
29 4 1.51801 7.02081 1.61731 5.30191
280 2 0.0120963 5.06176 6.93802 1.0025
268 1 -0.659606 6.22614 5.36545 0.65484
129 2 0.208212 6.01539 5.95443 7.8579
192 3 -0.810066 6.70824 2.74815 6.44603
215 3 -0.854378 8.39156 1.98988 4.45165
219 3 -0.774151 13.9039 2.20922 4.9488
220 3 -0.885658 11.1286 1.75585 4.14893
221 3 -0.852722 12.0535 0.495977 6.31708
222 3 -0.82498 9.68589 4.06827 3.42735
223 3 -0.825518 11.4044 6.20559 4.15093
224 3 -0.83837 5.60355 6.1411 4.29589
225 3 -0.847344 10.8312 5.60115 1.64164
270 2 0.142645 6.66433 6.32509 0.0885019
227 3 -0.817355 11.6162 3.0577 6.35294
130 2 0.204542 7.50895 4.73542 8.12457
229 3 -0.84935 7.72075 6.16666 5.89914
230 3 -0.832449 9.53892 4.6217 7.09112
271 2 0.101127 6.46339 5.41642 1.86398
294 4 1.04113 13.8139 0.485958 1.51189
347 2 0.174848 8.31125 0.60761 1.33055
226 3 -0.843203 9.83125 2.23736 8.13168
297 3 -0.805753 12.6529 1.44656 0.81733
296 3 -0.85477 14.4946 1.07588 2.773
340 2 0.0139866 12.1365 4.06063 0.457316
267 4 0.94062 6.62878 3.4574 0.782393
96 2 -0.0107604 8.12944 5.91106 0.830834
269 2 -0.00868578 7.03141 2.86184 2.30618
98 2 -0.0108037 8.62144 6.80632 8.26959
217 3 -0.84035 8.79555 -0.0740707 7.87302
346 2 0.179114 10.0435 0.00844276 1.51969
10 4 1.00814 13.5751 1.19241 9.84342
342 2 0.154816 11.7772 6.4545 10.319
32 4 1.36953 7.13562 1.61099 10.8831
48 4 1.33965 9.45548 0.937434 8.87105
58 1 -0.687111 11.9537 1.07106 11.1136
65 1 -0.665947 7.34049 3.38827 11.6005
68 1 -0.665789 5.47292 6.31897 11.3655
93 2 -0.0288401 10.8755 0.342492 9.63255
188 3 -0.805877 7.18612 0.569263 12.1351
12 4 1.25301 13.6098 1.86182 14.7431
107 2 0.140366 11.5316 2.01833 10.6968
108 2 0.169485 12.5337 1.40027 12.0881
126 2 0.162971 7.96316 3.98759 10.781
127 2 0.176741 7.8165 3.30985 12.57
109 2 0.143002 12.2022 4.5136 10.5106
328 1 -0.670376 9.35526 -0.32209 13.7267
131 2 0.172847 5.99057 4.65595 9.30609
135 2 0.17156 6.58915 6.31247 11.0053
106 2 0.117159 11.1135 0.311256 11.3501
128 2 0.148218 6.17896 3.71338 11.6428
313 3 -0.810612 7.42706 2.5551 16.8457
218 3 -0.834802 8.3792 1.37501 9.89755
243 1 -0.683568 8.45605 6.43842 10.1978
245 2 0.0436948 7.04332 6.29925 14.1996
248 2 0.129713 8.40812 5.83636 15.8817
256 2 0.165865 7.62759 5.97464 9.48134
257 2 0.15586 8.22689 6.2602 11.2719
258 2 0.133738 9.47509 6.06637 9.96043
97 2 -0.0165498 11.4856 4.31958 8.78929
299 4 1.20119 8.68242 2.1343 15.9216
300 4 0.821145 9.78425 4.50524 13.8835
301 1 -0.678276 10.5437 3.67703 12.3807
302 1 -0.66915 11.2916 5.52197 14.8247
303 2 0.0146437 8.21601 0.800729 15.0152
304 2 -0.00343623 8.56718 5.70988 13.57
305 2 0.193124 11.6223 3.99789 12.3124
306 2 0.133728 9.85916 4.07166 11.5551
307 2 0.191331 10.4037 2.59209 12.4852
309 2 0.197254 12.0624 4.74152 14.6175
216 3 -0.83213 13.4883 0.259187 8.54621
310 2 0.154447 11.2875 5.7188 15.8761
311 3 -0.801517 12.1544 1.61907 15.4563
308 2 0.140423 11.372 6.40944 14.0998
335 2 0.00728308 14.0033 0.431375 13.9298
314 3 -0.77183 9.26172 3.40185 14.9098
125 2 0.199933 5.94362 3.36438 15.24
329 2 0.156662 9.31822 0.841366 13.5746
312 3 -0.837451 9.84645 1.70006 16.8603
298 4 1.25627 11.4201 1.85636 16.9264
137 2 0.171006 5.46635 6.41688 12.5312
136 2 0.144824 4.92984 5.36429 10.9679
99 2 0.00577633 9.70944 6.60498 16.5559
341 2 -0.0057124 12.685 -0.442885 12.1064
156 2 0.169762 11.0086 8.97498 4.0718
47 4 1.23913 6.64447 13.9884 7.25266
55 4 1.08655 8.53026 8.88009 3.12154
332 2 0.145804 7.50628 12.6316 1.26522
74 1 -0.68948 7.76531 10.6234 2.60491
75 1 -0.654696 10.1085 9.61567 4.07004
158 2 0.156165 10.2735 10.7336 3.70444
71 1 -0.674943 3.6871 9.27515 8.0726
288 2 0.140433 2.54942 13.9829 2.82465
144 2 0.125214 3.87969 9.92533 7.13668
153 2 0.209587 6.89304 10.9503 3.20252
154 2 0.161518 7.24768 10.1621 1.65462
155 2 0.162638 8.45282 11.4116 2.27758
4 2 0.141101 9.70292 12.0964 2.30238
157 2 0.137347 9.54547 9.56543 5.10778
114 2 0.169801 10.9021 9.28864 6.40773
228 3 -0.867357 10.2579 7.01711 6.2867
231 3 -0.816374 7.61687 7.87366 3.89266
232 3 -0.789994 9.31149 7.96439 1.91131
331 2 0.170852 7.05661 13.1909 3.07508
293 3 -0.80696 7.55356 12.9051 6.54573
274 4 1.29493 3.5019 10.4737 1.8533
275 4 1.24971 2.28327 12.9121 0.469212
276 4 1.00736 4.76951 12.4903 3.95677
277 4 0.893782 7.15798 11.566 5.59572
333 2 0.172833 5.65464 13.3104 1.67372
206 3 -0.812825 2.35532 12.4619 5.9814
281 2 0.01842 5.4068 13.9214 3.25165
282 2 0.0784666 3.30675 13.078 4.73128
283 2 0.000166606 8.32842 11.3146 4.37831
284 2 -0.0338213 7.2276 10.1866 6.50554
327 2 0.160501 9.48037 11.3925 0.31779
289 3 -0.85057 4.34856 9.5825 0.826005
330 1 -0.670708 6.78421 13.2535 1.96244
291 3 -0.834409 4.34169 11.5571 2.84854
292 3 -0.835955 5.76426 11.8409 4.94518
279 1 -0.696355 2.73324 14.2566 1.71801
92 2 0.00148774 5.50567 13.1061 8.21306
89 2 -0.0178082 3.05593 10.1623 4.70967
254 2 0.158731 6.96512 7.97876 8.25094
247 2 0.164219 9.20411 7.04582 14.6656
56 4 1.12443 3.91912 11.162 15.3383
76 1 -0.674665 5.5618 12.0044 14.8707
145 2 0.151913 4.89121 8.9041 8.61967
90 2 -0.00703134 3.61005 10.9393 10.5889
101 2 0.0379006 5.24142 10.4264 16.0458
240 1 -0.639788 8.26212 6.77842 15.2135
86 2 -0.0142409 3.76128 8.59718 9.96857
159 2 0.176266 5.30192 13.0576 15.2844
160 2 0.188975 5.51853 11.9961 13.7493
344 2 0.176974 8.74526 13.1759 13.4939
233 3 -0.820754 3.27444 10.2898 14.2182
234 3 -0.817283 3.13514 12.1747 16.2955
348 2 0.151781 3.83465 13.6127 13.1568
236 4 1.01923 6.46607 7.94594 14.9263
237 4 0.870015 8.58137 8.41811 10.3038
238 4 1.45239 7.55741 10.0842 12.8447
239 4 0.702388 6.13922 12.532 11.2724
208 3 -0.779012 3.61942 8.09165 12.657
241 1 -0.620368 10.3173 9.08625 9.48583
242 1 -0.644379 6.657 8.43811 9.24607
244 1 -0.640477 5.01974 11.9655 9.73567
246 2 0.0365171 6.65532 12.7181 9.46941
251 2 0.1163 10.5068 7.92216 9.26851
249 2 0.042064 7.88638 8.1509 16.2267
343 2 0.13086 8.10599 13.7049 15.2392
250 2 0.0176349 8.58789 9.5793 8.8819
253 2 0.164153 6.16469 7.60382 10.032
235 4 1.15119 9.3979 11.4076 14.9611
255 2 0.15644 6.26047 9.4548 9.32927
259 2 0.154015 4.4044 12.3321 8.88196
260 2 0.0149284 4.25655 12.5758 11.1918
261 2 0.145463 5.09466 10.7513 9.84443
262 3 -0.855271 5.19506 7.70841 15.797
263 3 -0.788718 6.61751 9.14808 13.8019
264 3 -0.768455 8.36163 9.03835 11.7171
265 3 -0.833767 8.72725 10.7763 13.6838
266 3 -0.801249 6.76058 11.2939 12.0484
30 4 1.37937 1.3965 13.6794 12.8783
325 1 -0.668039 8.27786 11.0031 16.4351
326 2 0.150871 7.48603 10.2037 16.1761
350 2 0.158249 6.602 11.556 15.4626
338 2 -0.000876925 9.62912 10.8967 9.79259
345 2 0.113487 7.79179 12.0665 16.5265
214 3 -0.855284 1.8358 12.4407 12.0146
273 4 1.28491 4.1094 7.58613 16.9241
252 2 0.153032 10.4798 9.71699 8.56275
349 2 0.212479 2.99381 13.8117 14.8603
148 2 0.216283 10.6279 9.29269 12.9174
ITEM: TIMESTEP
200
ITEM: NUMBER OF ATOMS
350
ITEM: BOX BOUNDS xy xz yz pp pp pp
-6.7377435999999982e+00 1.5299152800000002e+01 -6.2877507999999978e+00
-6.4200000000000002e-01 1.4502800000000001e+01 -4.4999280000000041e-01
0.0000000000000000e+00 1.7008500000000002e+01 -6.4200000000000002e-01
ITEM: ATOMS id type q x y z
7 4 1.28839 -0.764059 2.49326 3.638
180 3 -0.832198 3.75332 -0.0266104 3.03123
14 4 1.46238 0.00715915 4.83679 1.87879
17 4 1.23967 -0.699274 6.76017 6.69012
26 4 1.04516 4.22902 1.45621 3.11422
34 4 1.28575 5.68578 3.72444 7.05756
33 4 1.28144 1.27902 6.37482 4.28661
318 2 0.161929 1.26928 0.840464 1.10145
36 4 1.43192 4.30274 5.82371 5.16881
57 1 -0.65306 1.43326 0.275597 6.41899
62 1 -0.683242 2.84505 2.51299 3.89794
77 2 0.00883726 0.887429 2.80723 4.1168
195 3 -0.752807 4.28771 4.31383 5.89946
79 2 0.087349 -0.416861 5.87359 8.08253
82 2 0.0745488 4.53632 2.05141 1.46966
316 2 0.169106 2.8208 1.35167 0.0656683
103 2 0.172823 1.33666 1.38217 6.14499
321 2 0.189811 -1.13476 2.79649 8.17161
117 2 0.167633 2.2821 1.75179 4.45918
118 2 0.19262 2.34463 2.96234 3.02915
119 2 0.272761 3.40532 3.25511 4.73432
164 3 -0.812334 -1.26155 3.71014 2.79384
165 3 -0.83084 1.23908 3.88469 1.16557
166 3 -0.863039 -0.757227 5.6702 0.775708
167 3 -0.833326 -2.18092 6.36346 6.26289
182 3 -0.794072 5.59691 1.634 3.96467
201 3 -0.803345 4.35024 6.86657 6.6107
189 3 -0.855765 0.650948 5.65958 3.03251
190 3 -0.866479 0.451402 6.34995 5.63462
191 3 -0.781313 4.71726 2.9004 8.20603
194 3 -0.840396 2.90109 6.01874 4.4479
272 2 0.180988 5.17974 5.39816 0.607698
104 2 0.240834 0.405285 -0.177304 6.70212
315 1 -0.666844 1.60157 1.18575 0.0733821
185 3 -0.748956 5.12882 2.84003 0.145216
183 3 -0.850392 7.10947 0.0816898 5.82971
200 3 -0.849834 2.36454 6.66488 8.38816
8 4 1.25167 0.818705 2.40245 16.7859
11 4 1.34458 3.07865 0.00865786 13.3853
13 4 1.24828 0.919116 1.35476 11.6014
18 4 1.25196 -0.579212 3.8302 12.8852