LAMMPS (2 Aug 2023 - Update 2)
OMP_NUM_THREADS environment is not set. Defaulting to 1 thread. (src/comm.cpp:98)
  using 1 OpenMP thread(s) per MPI task
Reading data file ...
  triclinic box = (0 0 0) to (15.4114 12.7411 17.5034) with tilt (-7.2027 -1.8261 0.3384)
WARNING: Triclinic box skew is large. LAMMPS will run inefficiently. (src/domain.cpp:220)
  2 by 2 by 2 MPI processor grid
  reading atoms ...
  310 atoms
Finding 1-2 1-3 1-4 neighbors ...
  special bond factors lj:    0        0        0       
  special bond factors coul:  0        0        0       
     0 = max # of 1-2 neighbors
     0 = max # of 1-3 neighbors
     0 = max # of 1-4 neighbors
     1 = max # of special neighbors
  special bonds CPU = 0.001 seconds
  read_data CPU = 0.007 seconds
*****Minimization starts.*****
Setting up cg style minimization ...
  Unit style    : real
  Current step  : 0
WARNING: No pairwise cutoff or binsize set. Atom sorting therefore disabled. (src/atom.cpp:2366)
WARNING: Communication cutoff is 0.0. No ghost atoms will be generated. Atoms may get lost. (src/comm_brick.cpp:210)
Per MPI rank memory allocation (min/avg/max) = 6.365 | 6.365 | 6.365 Mbytes
   Step          Temp          E_pair         E_mol          TotEng         Press     
         0   0              0              0              0              0            
         1   0              0              0              0              0            
Loop time of 7.51141e-05 on 8 procs for 1 steps with 310 atoms

53.4% CPU use with 8 MPI tasks x 1 OpenMP threads

Minimization stats:
  Stopping criterion = search direction is not downhill
  Energy initial, next-to-last, final = 
                     0                  0                  0
  Force two-norm initial, final = 0 0
  Force max component initial, final = 0 0
  Final line search alpha, max atom move = 0 0
  Iterations, force evaluations = 1 0

MPI task timing breakdown:
Section |  min time  |  avg time  |  max time  |%varavg| %total
---------------------------------------------------------------
Pair    | 0          | 0          | 0          |   0.0 |  0.00
Bond    | 1.048e-06  | 1.7024e-06 | 2.305e-06  |   0.0 |  2.27
Neigh   | 0          | 0          | 0          |   0.0 |  0.00
Comm    | 3.631e-06  | 4.7579e-06 | 5.867e-06  |   0.0 |  6.33
Output  | 0          | 0          | 0          |   0.0 |  0.00
Modify  | 0          | 0          | 0          |   0.0 |  0.00
Other   |            | 6.865e-05  |            |       | 91.40

Nlocal:          38.75 ave          46 max          34 min
Histogram: 1 2 0 1 2 0 1 0 0 1
Nghost:              0 ave           0 max           0 min
Histogram: 8 0 0 0 0 0 0 0 0 0
Neighs:              0 ave           0 max           0 min
Histogram: 8 0 0 0 0 0 0 0 0 0

Total # of neighbors = 0
Ave neighs/atom = 0
Ave special neighs/atom = 0
Neighbor list builds = 0
Dangerous builds = 0
System init for write_data ...
WARNING: Communication cutoff is 0.0. No ghost atoms will be generated. Atoms may get lost. (src/comm_brick.cpp:210)

CITE-CITE-CITE-CITE-CITE-CITE-CITE-CITE-CITE-CITE-CITE-CITE-CITE

Your simulation uses code contributions which should be cited:
- pair reaxff command: doi:10.1016/j.parco.2011.08.005
- fix qeq/reaxff command: doi:10.1016/j.parco.2011.08.005
The log file lists these citations in BibTeX format.

CITE-CITE-CITE-CITE-CITE-CITE-CITE-CITE-CITE-CITE-CITE-CITE-CITE

WARNING: Fix qeq/reaxff group is not charge neutral, net charge = 22.14 (src/REAXFF/fix_qeq_reaxff.cpp:392)
Neighbor list info ...
  update: every = 10 steps, delay = 0 steps, check = no
  max neighbors/atom: 2000, page size: 100000
  master list distance cutoff = 12
  ghost atom cutoff = 12
  binsize = 6, bins = 5 3 3
  2 neighbor lists, perpetual/occasional/extra = 2 0 0
  (1) pair reaxff, perpetual
      attributes: half, newton off, ghost
      pair build: half/bin/newtoff/ghost
      stencil: full/ghost/bin/3d
      bin: standard
  (2) fix qeq/reaxff, perpetual, copy from (1)
      attributes: half, newton off
      pair build: copy
      stencil: none
      bin: none
Setting up Verlet run ...
  Unit style    : real
  Current step  : 0
  Time step     : 0.5
Per MPI rank memory allocation (min/avg/max) = 121 | 121.6 | 122.5 Mbytes
   Step          Temp          PotEng         Press         Density         Volume    
         0   300           -32388.564      119735.25      1.4204665      3436.9359    
       100   826.21848     -33370.206     -34153.459      1.4204665      3436.9359    
       200   604.64313     -33652.984     -23357.291      1.4204665      3436.9359    
       300   465.54625     -33876.865      44.965454      1.4204665      3436.9359    
       400   399.37626     -34043.579     -1989.4513      1.4204665      3436.9359    
       500   311.7999      -34116.163      20211.59       1.4204665      3436.9359    
       600   286.41955     -34190.476      6298.2812      1.4204665      3436.9359    
       700   293.04756     -34250.499     -5385.4937      1.4204665      3436.9359    
       800   315.2187      -34288.078     -13872.111      1.4204665      3436.9359    
       900   296.85319     -34277.216     -293.91465      1.4204665      3436.9359    
      1000   325.84368     -34312.491     -388.81292      1.4204665      3436.9359    
      1100   296.98178     -34298.167      4917.4619      1.4204665      3436.9359    
      1200   313.94806     -34333.653      5759.7625      1.4204665      3436.9359    
      1300   286.29838     -34332.402      1147.5279      1.4204665      3436.9359    
      1400   299.88672     -34345.993      8313.5888      1.4204665      3436.9359    
      1500   314.0539      -34352.758      12676.746      1.4204665      3436.9359    
      1600   308.7959      -34341.532     -5185.8517      1.4204665      3436.9359    
      1700   315.75942     -34336.158     -8060.5058      1.4204665      3436.9359    
      1800   301.26072     -34326.253     -3628.4647      1.4204665      3436.9359    
      1900   306.14107     -34346.982     -3949.8385      1.4204665      3436.9359    
      2000   297.28055     -34358.755      15824.21       1.4204665      3436.9359    
      2100   289.0004      -34361.916      10993.438      1.4204665      3436.9359    
      2200   289.76911     -34351.469      795.36954      1.4204665      3436.9359    
      2300   318.4501      -34360.164     -9424.3303      1.4204665      3436.9359    
      2400   301.58268     -34327.7        4574.119       1.4204665      3436.9359    
      2500   315.91539     -34344.135     -662.15945      1.4204665      3436.9359    
      2600   309.40156     -34363.754     -10319.725      1.4204665      3436.9359    
      2700   287.04496     -34372.336      8138.1091      1.4204665      3436.9359    
      2800   284.98128     -34377.549     -9135.8395      1.4204665      3436.9359    
      2900   285.91652     -34367.357      3113.9802      1.4204665      3436.9359    
      3000   293.7744      -34353.4        12024.799      1.4204665      3436.9359    
Loop time of 130.588 on 8 procs for 3000 steps with 310 atoms

Performance: 0.992 ns/day, 24.183 hours/ns, 22.973 timesteps/s, 7.122 katom-step/s
98.7% CPU use with 8 MPI tasks x 1 OpenMP threads

MPI task timing breakdown:
Section |  min time  |  avg time  |  max time  |%varavg| %total
---------------------------------------------------------------
Pair    | 78.814     | 96.952     | 109.51     | 106.5 | 74.24
Bond    | 0.0087608  | 0.0090253  | 0.0097375  |   0.3 |  0.01
Neigh   | 5.9968     | 7.3925     | 8.17       |  28.6 |  5.66
Comm    | 1.6635     | 14.233     | 32.373     | 278.0 | 10.90
Output  | 0.0015691  | 0.0016941  | 0.0024719  |   0.7 |  0.00
Modify  | 11.15      | 11.932     | 13.327     |  22.7 |  9.14
Other   |            | 0.06799    |            |       |  0.05

Nlocal:          38.75 ave          45 max          35 min
Histogram: 1 2 0 0 2 2 0 0 0 1
Nghost:        3088.25 ave        3120 max        3049 min
Histogram: 2 0 0 0 0 2 2 0 0 2
Neighs:        24493.2 ave       28198 max       22345 min
Histogram: 3 0 0 1 2 1 0 0 0 1

Total # of neighbors = 195946
Ave neighs/atom = 632.08387
Ave special neighs/atom = 0
Neighbor list builds = 300
Dangerous builds not checked
System init for write_data ...
System init for write_restart ...
OMP_NUM_THREADS environment is not set. Defaulting to 1 thread. (src/comm.cpp:98)
  using 1 OpenMP thread(s) per MPI task
Reading restart file ...
  restart file = 2 Aug 2023, LAMMPS = 2 Aug 2023
  restoring atom style full from restart
  triclinic box = (0 0 0) to (15.4114 12.7411 17.5034) with tilt (-7.2027 -1.8261 0.3384)
WARNING: Triclinic box skew is large. LAMMPS will run inefficiently. (src/domain.cpp:220)
  2 by 2 by 2 MPI processor grid
  pair style reaxff stores no restart info
  310 atoms
Finding 1-2 1-3 1-4 neighbors ...
  special bond factors lj:    0        0        0       
  special bond factors coul:  0        0        0       
     0 = max # of 1-2 neighbors
     0 = max # of 1-3 neighbors
     0 = max # of 1-4 neighbors
     1 = max # of special neighbors
  special bonds CPU = 0.000 seconds
  read_restart CPU = 0.003 seconds
*****debug*****
xy = -7.2027000000000001023, deltaxy = 0.072027
xz = -1.8261000000000000565, deltaxz = 0.018261
yz = 0.33839999999999997859, deltayz = -0.003384
*****
*****Negative-deform 1 starts.*****
Resetting global fix info from restart file:
  fix style: nvt, fix ID: fnvt
All restart file global fix info was re-assigned
Neighbor list info ...
  update: every = 10 steps, delay = 0 steps, check = no
  max neighbors/atom: 2000, page size: 100000
  master list distance cutoff = 12
  ghost atom cutoff = 12
  binsize = 6, bins = 5 3 3
  2 neighbor lists, perpetual/occasional/extra = 2 0 0
  (1) pair reaxff, perpetual
      attributes: half, newton off, ghost
      pair build: half/bin/newtoff/ghost
      stencil: full/ghost/bin/3d
      bin: standard
  (2) fix qeq/reaxff, perpetual, copy from (1)
      attributes: half, newton off
      pair build: copy
      stencil: none
      bin: none
Setting up Verlet run ...
  Unit style    : real
  Current step  : 0
  Time step     : 0.5
Per MPI rank memory allocation (min/avg/max) = 119 | 120.3 | 121.5 Mbytes
   Step          Temp          PotEng         Press         Density         Volume    
         0   293.7744      -34353.4        12024.801      1.4204665      3436.9359    
       100   324.04787     -34367.513      8612.8995      1.4209401      3435.7903    
       200   302.75468     -34360.043     -12969.347      1.4214141      3434.6446    
       300   312.99816     -34392.229      7342.4422      1.4218884      3433.499     
       400   301.98348     -34398.475      2277.4267      1.422363       3432.3533    
       500   280.01925     -34386.918     -20281.662      1.4228379      3431.2077    
       600   291.89227     -34378.205     -5222.1358      1.4233131      3430.062     
       700   321.5741      -34373.346     -4715.841       1.4237886      3428.9164    
       800   319.47358     -34365.798      913.08778      1.4242645      3427.7708    
       900   299.20657     -34375.053     -10655.759      1.4247407      3426.6251    
      1000   305.14771     -34414.243     -4190.3381      1.4252172      3425.4795    
      1100   290.66496     -34418.858      126.72586      1.425694       3424.3338    
      1200   289.9028      -34402.362      7298.6176      1.4261712      3423.1882    
      1300   308.73803     -34393.505     -6516.807       1.4266486      3422.0425    
      1400   312.5461      -34391.792     -10858.437      1.4271264      3420.8969    
      1500   318.92848     -34414.577     -991.84556      1.4276045      3419.7512    
      1600   297.6114      -34415.901      574.75907      1.4280829      3418.6056    
      1700   294.2342      -34426.402      14371.944      1.4285617      3417.4599    
      1800   294.01847     -34420.023     -6535.1179      1.4290407      3416.3143    
      1900   319.6456      -34425.811      1437.5817      1.4295201      3415.1687    
      2000   301.06532     -34400.631      5735.9152      1.4299998      3414.023     
      2100   329.19886     -34426.225     -4463.9491      1.4304798      3412.8774    
      2200   315.18219     -34426.536     -189.64891      1.4309602      3411.7317    
      2300   300.39412     -34428.643     -5945.7768      1.4314409      3410.5861    
      2400   282.07256     -34420.418     -8381.8105      1.4319218      3409.4404    
      2500   306.5129      -34425.044      10215.087      1.4324032      3408.2948    
      2600   287.48467     -34386.585     -10099.634      1.4328848      3407.1491    
      2700   295.07266     -34381.096     -12830.159      1.4333668      3406.0035    
      2800   313.77426     -34430.414     -1961.6567      1.4338491      3404.8578    
      2900   284.00535     -34424.691     -13007.262      1.4343317      3403.7122    
      3000   293.50544     -34425.586     -12117.365      1.4348146      3402.5666    
Loop time of 135.523 on 8 procs for 3000 steps with 310 atoms

Performance: 0.956 ns/day, 25.097 hours/ns, 22.136 timesteps/s, 6.862 katom-step/s
98.8% CPU use with 8 MPI tasks x 1 OpenMP threads

MPI task timing breakdown:
Section |  min time  |  avg time  |  max time  |%varavg| %total
---------------------------------------------------------------
Pair    | 78.721     | 104.05     | 113.91     | 112.6 | 76.78
Bond    | 0.008107   | 0.0089557  | 0.0098582  |   0.5 |  0.01
Neigh   | 6.0017     | 7.7817     | 8.3608     |  28.8 |  5.74
Comm    | 1.6613     | 11.537     | 36.851     | 338.1 |  8.51
Output  | 0.0088036  | 0.010298   | 0.011482   |   0.9 |  0.01
Modify  | 11.478     | 12.062     | 13.862     |  23.3 |  8.90
Other   |            | 0.07403    |            |       |  0.05

Nlocal:          38.75 ave          48 max          34 min
Histogram: 2 1 1 0 3 0 0 0 0 1
Nghost:        3139.75 ave        3175 max        3110 min
Histogram: 3 0 1 0 0 0 1 0 2 1
Neighs:        24740.1 ave       30294 max       21843 min
Histogram: 2 1 1 0 3 0 0 0 0 1

Total # of neighbors = 197921
Ave neighs/atom = 638.45484
Ave special neighs/atom = 0
Neighbor list builds = 300
Dangerous builds not checked
OMP_NUM_THREADS environment is not set. Defaulting to 1 thread. (src/comm.cpp:98)
  using 1 OpenMP thread(s) per MPI task
Reading restart file ...
  restart file = 2 Aug 2023, LAMMPS = 2 Aug 2023
  restoring atom style full from restart
  triclinic box = (0 0 0) to (15.4114 12.7411 17.5034) with tilt (-7.2027 -1.8261 0.3384)
WARNING: Triclinic box skew is large. LAMMPS will run inefficiently. (src/domain.cpp:220)
  2 by 2 by 2 MPI processor grid
  pair style reaxff stores no restart info
  310 atoms
Finding 1-2 1-3 1-4 neighbors ...
  special bond factors lj:    0        0        0       
  special bond factors coul:  0        0        0       
     0 = max # of 1-2 neighbors
     0 = max # of 1-3 neighbors
     0 = max # of 1-4 neighbors
     1 = max # of special neighbors
  special bonds CPU = 0.000 seconds
  read_restart CPU = 0.003 seconds
*****Positive-deform 1 starts.*****
Resetting global fix info from restart file:
  fix style: nvt, fix ID: fnvt
All restart file global fix info was re-assigned
Neighbor list info ...
  update: every = 10 steps, delay = 0 steps, check = no
  max neighbors/atom: 2000, page size: 100000
  master list distance cutoff = 12
  ghost atom cutoff = 12
  binsize = 6, bins = 5 3 3
  2 neighbor lists, perpetual/occasional/extra = 2 0 0
  (1) pair reaxff, perpetual
      attributes: half, newton off, ghost
      pair build: half/bin/newtoff/ghost
      stencil: full/ghost/bin/3d
      bin: standard
  (2) fix qeq/reaxff, perpetual, copy from (1)
      attributes: half, newton off
      pair build: copy
      stencil: none
      bin: none
Setting up Verlet run ...
  Unit style    : real
  Current step  : 0
  Time step     : 0.5
Per MPI rank memory allocation (min/avg/max) = 119 | 120.3 | 121.5 Mbytes
   Step          Temp          PotEng         Press         Density         Volume    
         0   293.7744      -34353.4        12024.801      1.4204665      3436.9359    
       100   324.0661      -34367.51       8637.3867      1.4199931      3438.0816    
       200   305.37489     -34361.766     -11778.143      1.4195201      3439.2272    
       300   311.14161     -34390.112      5674.7379      1.4190474      3440.3729    
       400   295.32916     -34393.981      2377.8386      1.418575       3441.5185    
       500   275.60072     -34383.586     -14666.889      1.418103       3442.6641    
       600   303.30495     -34389.466     -3414.9386      1.4176312      3443.8098    
       700   314.53119     -34366.376      6853.2576      1.4171598      3444.9554    
       800   308.88493     -34355.556      5738.5874      1.4166886      3446.1011    
       900   320.20333     -34385.13      -15418.149      1.4162178      3447.2467    
      1000   299.61872     -34400.625      2119.6065      1.4157473      3448.3924    
      1100   290.65456     -34420.05      -6264.5563      1.4152771      3449.538     
      1200   284.92787     -34421.22      -6609.5194      1.4148072      3450.6837    
      1300   290.77555     -34412.193     -13166.598      1.4143377      3451.8293    
      1400   302.93807     -34395.676     -8894.4987      1.4138684      3452.975     
      1500   318.901       -34389.468     -1900.969       1.4133995      3454.1206    
      1600   327.50006     -34402.985     -10157.144      1.4129308      3455.2662    
      1700   299.26441     -34410.967      2159.09        1.4124625      3456.4119    
      1800   293.21009     -34429.462     -4539.9055      1.4119945      3457.5575    
      1900   296.06358     -34436.315      5400.4324      1.4115268      3458.7032    
      2000   297.82667     -34417.911     -5885.0239      1.4110594      3459.8488    
      2100   330.21841     -34426.518      12935.563      1.4105923      3460.9945    
      2200   330.73037     -34433.692      2452.7636      1.4101256      3462.1401    
      2300   301.01957     -34434.511     -5153.5089      1.4096591      3463.2858    
      2400   310.88713     -34449.023     -4868.8379      1.4091929      3464.4314    
      2500   290.27194     -34421.637      3483.2412      1.4087271      3465.577     
      2600   321.65299     -34429.469     -9325.1842      1.4082615      3466.7227    
      2700   300.46157     -34399.254     -12006.259      1.4077963      3467.8683    
      2800   303.52096     -34433.711     -2468.8721      1.4073314      3469.014     
      2900   290.2219      -34442.47       1002.7946      1.4068668      3470.1596    
      3000   291.61867     -34448.268     -1236.5948      1.4064024      3471.3053    
Loop time of 132.241 on 8 procs for 3000 steps with 310 atoms

Performance: 0.980 ns/day, 24.489 hours/ns, 22.686 timesteps/s, 7.033 katom-step/s
98.8% CPU use with 8 MPI tasks x 1 OpenMP threads

MPI task timing breakdown:
Section |  min time  |  avg time  |  max time  |%varavg| %total
---------------------------------------------------------------
Pair    | 80.64      | 100        | 110.87     | 109.0 | 75.62
Bond    | 0.0078965  | 0.0089669  | 0.0097864  |   0.6 |  0.01
Neigh   | 6.0668     | 7.5108     | 8.2309     |  30.4 |  5.68
Comm    | 1.8906     | 12.752     | 32.106     | 305.2 |  9.64
Output  | 0.0091883  | 0.010438   | 0.011503   |   0.8 |  0.01
Modify  | 11.157     | 11.878     | 13.339     |  24.4 |  8.98
Other   |            | 0.07628    |            |       |  0.06

Nlocal:          38.75 ave          45 max          34 min
Histogram: 2 1 0 1 0 2 0 1 0 1
Nghost:        3048.25 ave        3068 max        3016 min
Histogram: 1 0 1 0 0 0 2 1 2 1
Neighs:        24279.5 ave       27863 max       21407 min
Histogram: 1 1 1 1 0 2 0 1 0 1

Total # of neighbors = 194236
Ave neighs/atom = 626.56774
Ave special neighs/atom = 0
Neighbor list builds = 300
Dangerous builds not checked
OMP_NUM_THREADS environment is not set. Defaulting to 1 thread. (src/comm.cpp:98)
  using 1 OpenMP thread(s) per MPI task
Reading restart file ...
  restart file = 2 Aug 2023, LAMMPS = 2 Aug 2023
  restoring atom style full from restart
  triclinic box = (0 0 0) to (15.4114 12.7411 17.5034) with tilt (-7.2027 -1.8261 0.3384)
WARNING: Triclinic box skew is large. LAMMPS will run inefficiently. (src/domain.cpp:220)
  2 by 2 by 2 MPI processor grid
  pair style reaxff stores no restart info
  310 atoms
Finding 1-2 1-3 1-4 neighbors ...
  special bond factors lj:    0        0        0       
  special bond factors coul:  0        0        0       
     0 = max # of 1-2 neighbors
     0 = max # of 1-3 neighbors
     0 = max # of 1-4 neighbors
     1 = max # of special neighbors
  special bonds CPU = 0.000 seconds
  read_restart CPU = 0.003 seconds
*****debug*****
xy = -7.2027000000000001023, deltaxy = 0.072027
xz = -1.8261000000000000565, deltaxz = 0.018261
yz = 0.33839999999999997859, deltayz = -0.003384
*****
*****Negative-deform 2 starts.*****
Resetting global fix info from restart file:
  fix style: nvt, fix ID: fnvt
All restart file global fix info was re-assigned
Neighbor list info ...
  update: every = 10 steps, delay = 0 steps, check = no
  max neighbors/atom: 2000, page size: 100000
  master list distance cutoff = 12
  ghost atom cutoff = 12
  binsize = 6, bins = 5 3 3
  2 neighbor lists, perpetual/occasional/extra = 2 0 0
  (1) pair reaxff, perpetual
      attributes: half, newton off, ghost
      pair build: half/bin/newtoff/ghost
      stencil: full/ghost/bin/3d
      bin: standard
  (2) fix qeq/reaxff, perpetual, copy from (1)
      attributes: half, newton off
      pair build: copy
      stencil: none
      bin: none
Setting up Verlet run ...
  Unit style    : real
  Current step  : 0
  Time step     : 0.5
Per MPI rank memory allocation (min/avg/max) = 119 | 120.3 | 121.5 Mbytes
   Step          Temp          PotEng         Press         Density         Volume    
         0   293.7744      -34353.4        12024.801      1.4204665      3436.9359    
       100   324.08024     -34367.446      8605.0154      1.4209401      3435.7903    
       200   303.95283     -34361.368     -12148.397      1.4214141      3434.6446    
       300   317.16772     -34397.133      951.33145      1.4218884      3433.499     
       400   307.50297     -34403.704      5009.8908      1.422363       3432.3533    
       500   279.10249     -34385.385     -18001.798      1.4228379      3431.2077    
       600   290.07025     -34377.735     -10217.755      1.4233131      3430.062     
       700   308.88834     -34363.44      -10101.286      1.4237886      3428.9164    
       800   307.56387     -34358.985      280.76992      1.4242645      3427.7708    
       900   296.43221     -34369.425     -8678.4076      1.4247407      3426.6251    
      1000   285.61658     -34386.377      3584.1648      1.4252172      3425.4795    
      1100   299.60637     -34415.883     -3242.6681      1.425694       3424.3338    
      1200   297.998       -34415.04      -5195.0574      1.4261712      3423.1882    
      1300   292.65501     -34390.284     -10664.212      1.4266486      3422.0425    
      1400   332.96482     -34400.365     -4221.0869      1.4271264      3420.8969    
      1500   325.23817     -34388.242     -10357.492      1.4276045      3419.7512    
      1600   312.91583     -34398.769     -521.36696      1.4280829      3418.6056    
      1700   286.81168     -34402.99      -99.038168      1.4285617      3417.4599    
      1800   282.07105     -34413.214     -2388.6299      1.4290407      3416.3143    
      1900   288.00383     -34405.588     -4534.0114      1.4295201      3415.1687    
      2000   313.67374     -34400.443     -2849.713       1.4299998      3414.023     
      2100   324.79312     -34397.352      4451.7012      1.4304798      3412.8774    
      2200   322.30181     -34410.223     -12248.802      1.4309602      3411.7317    
      2300   303.14304     -34422.148      7604.5552      1.4314409      3410.5861    
      2400   287.25425     -34421.228     -7905.7843      1.4319218      3409.4404    
      2500   278.69585     -34402.382      16190.672      1.4324032      3408.2948    
      2600   334.90263     -34428.256      6592.7843      1.4328848      3407.1491    
      2700   308.67266     -34409.734      5099.8758      1.4333668      3406.0035    
      2800   286.70907     -34405.455     -14518.829      1.4338491      3404.8578    
      2900   290.71292     -34417.572      1551.2172      1.4343317      3403.7122    
      3000   284.05049     -34403.201      3936.0249      1.4348146      3402.5666    
Loop time of 139.677 on 8 procs for 3000 steps with 310 atoms

Performance: 0.928 ns/day, 25.866 hours/ns, 21.478 timesteps/s, 6.658 katom-step/s
98.0% CPU use with 8 MPI tasks x 1 OpenMP threads

MPI task timing breakdown:
Section |  min time  |  avg time  |  max time  |%varavg| %total
---------------------------------------------------------------
Pair    | 94.04      | 109.83     | 115.45     |  61.1 | 78.63
Bond    | 0.0080462  | 0.010545   | 0.020013   |   3.5 |  0.01
Neigh   | 7.1839     | 8.1623     | 8.4119     |  13.4 |  5.84
Comm    | 2.8743     | 8.6491     | 24.611     | 220.0 |  6.19
Output  | 0.0090461  | 0.010916   | 0.012289   |   1.0 |  0.01
Modify  | 12.709     | 12.941     | 13.746     |   9.1 |  9.27
Other   |            | 0.07765    |            |       |  0.06

Nlocal:          38.75 ave          47 max          32 min
Histogram: 1 1 0 1 2 1 0 1 0 1
Nghost:        3134.12 ave        3165 max        3121 min
Histogram: 2 1 3 0 1 0 0 0 0 1
Neighs:        24740.8 ave       29683 max       20626 min
Histogram: 1 1 0 2 1 1 0 1 0 1

Total # of neighbors = 197926
Ave neighs/atom = 638.47097
Ave special neighs/atom = 0
Neighbor list builds = 300
Dangerous builds not checked
OMP_NUM_THREADS environment is not set. Defaulting to 1 thread. (src/comm.cpp:98)
  using 1 OpenMP thread(s) per MPI task
Reading restart file ...
  restart file = 2 Aug 2023, LAMMPS = 2 Aug 2023
  restoring atom style full from restart
  triclinic box = (0 0 0) to (15.4114 12.7411 17.5034) with tilt (-7.2027 -1.8261 0.3384)
WARNING: Triclinic box skew is large. LAMMPS will run inefficiently. (src/domain.cpp:220)
  2 by 2 by 2 MPI processor grid
  pair style reaxff stores no restart info
  310 atoms
Finding 1-2 1-3 1-4 neighbors ...
  special bond factors lj:    0        0        0       
  special bond factors coul:  0        0        0       
     0 = max # of 1-2 neighbors
     0 = max # of 1-3 neighbors
     0 = max # of 1-4 neighbors
     1 = max # of special neighbors
  special bonds CPU = 0.000 seconds
  read_restart CPU = 0.003 seconds
*****Positive-deform 2 starts.*****
Resetting global fix info from restart file:
  fix style: nvt, fix ID: fnvt
All restart file global fix info was re-assigned
Neighbor list info ...
  update: every = 10 steps, delay = 0 steps, check = no
  max neighbors/atom: 2000, page size: 100000
  master list distance cutoff = 12
  ghost atom cutoff = 12
  binsize = 6, bins = 5 3 3
  2 neighbor lists, perpetual/occasional/extra = 2 0 0
  (1) pair reaxff, perpetual
      attributes: half, newton off, ghost
      pair build: half/bin/newtoff/ghost
      stencil: full/ghost/bin/3d
      bin: standard
  (2) fix qeq/reaxff, perpetual, copy from (1)
      attributes: half, newton off
      pair build: copy
      stencil: none
      bin: none
Setting up Verlet run ...
  Unit style    : real
  Current step  : 0
  Time step     : 0.5
Per MPI rank memory allocation (min/avg/max) = 119 | 120.3 | 121.5 Mbytes
   Step          Temp          PotEng         Press         Density         Volume    
         0   293.7744      -34353.4        12024.801      1.4204665      3436.9359    
       100   324.01523     -34367.566      8610.6195      1.4199931      3438.0816    
       200   305.07033     -34361.478     -12381.194      1.4195201      3439.2272    
       300   310.34825     -34388.927      9375.9785      1.4190474      3440.3729    
       400   300.04293     -34398.07      -5151.0059      1.418575       3441.5185    
       500   266.39073     -34374.516     -11418.518      1.418103       3442.6641    
       600   306.44621     -34391.441      2753.7396      1.4176312      3443.8098    
       700   322.06126     -34375.152     -331.51864      1.4171598      3444.9554    
       800   326.84073     -34373.218     -2959.5206      1.4166886      3446.1011    
       900   310.79606     -34382.544     -13571.608      1.4162178      3447.2467    
      1000   288.25861     -34392.379      3020.0493      1.4157473      3448.3924    
      1100   290.15409     -34403.735      1816.9208      1.4152771      3449.538     
      1200   289.82814     -34396.239     -1647.2375      1.4148072      3450.6837    
      1300   292.86601     -34380.077      1829.2965      1.4143377      3451.8293    
      1400   296.13588     -34360.833     -10353.443      1.4138684      3452.975     
      1500   328.14757     -34383.647     -12915.504      1.4133995      3454.1206    
      1600   303.57662     -34382.399      5236.6628      1.4129308      3455.2662    
      1700   291.92997     -34401.096     -3889.3201      1.4124625      3456.4119    
      1800   287.2365      -34405.578      4077.8837      1.4119945      3457.5575    
      1900   284.23218     -34389.858     -7653.638       1.4115268      3458.7032    
      2000   313.9802      -34393.565     -7804.5444      1.4110594      3459.8488    
      2100   294.25094     -34369.44      -1115.3567      1.4105923      3460.9945    
      2200   301.09603     -34388.868     -8086.5288      1.4101256      3462.1401    
      2300   301.93676     -34406.696     -6120.0547      1.4096591      3463.2858    
      2400   297.1182      -34412.584      3386.31        1.4091929      3464.4314    
      2500   283.73916     -34407.977     -10386.738      1.4087271      3465.577     
      2600   286.74502     -34409.057     -12256.065      1.4082615      3466.7227    
      2700   309.81746     -34407.676     -1533.5266      1.4077963      3467.8683    
      2800   308.35653     -34392.691      2260.0441      1.4073314      3469.014     
      2900   309.43937     -34407.775      7489.7162      1.4068668      3470.1596    
      3000   286.87577     -34414.375     -6817.5026      1.4064024      3471.3053    
Loop time of 134.028 on 8 procs for 3000 steps with 310 atoms

Performance: 0.967 ns/day, 24.820 hours/ns, 22.383 timesteps/s, 6.939 katom-step/s
98.8% CPU use with 8 MPI tasks x 1 OpenMP threads

MPI task timing breakdown:
Section |  min time  |  avg time  |  max time  |%varavg| %total
---------------------------------------------------------------
Pair    | 77.649     | 105.53     | 112.28     | 105.0 | 78.74
Bond    | 0.0081382  | 0.0091287  | 0.010227   |   0.6 |  0.01
Neigh   | 5.8757     | 7.8532     | 8.2039     |  26.8 |  5.86
Comm    | 1.9558     | 8.7189     | 36.587     | 365.2 |  6.51
Output  | 0.0094526  | 0.011016   | 0.01219    |   0.9 |  0.01
Modify  | 11.466     | 11.825     | 13.828     |  22.1 |  8.82
Other   |            | 0.07672    |            |       |  0.06

Nlocal:          38.75 ave          45 max          33 min
Histogram: 2 0 0 1 1 2 0 0 0 2
Nghost:        3078.75 ave        3130 max        3025 min
Histogram: 1 1 0 1 1 0 2 0 1 1
Neighs:        24266.4 ave       27916 max       20832 min
Histogram: 1 1 0 1 2 0 1 0 0 2

Total # of neighbors = 194131
Ave neighs/atom = 626.22903
Ave special neighs/atom = 0
Neighbor list builds = 300
Dangerous builds not checked
OMP_NUM_THREADS environment is not set. Defaulting to 1 thread. (src/comm.cpp:98)
  using 1 OpenMP thread(s) per MPI task
Reading restart file ...
  restart file = 2 Aug 2023, LAMMPS = 2 Aug 2023
  restoring atom style full from restart
  triclinic box = (0 0 0) to (15.4114 12.7411 17.5034) with tilt (-7.2027 -1.8261 0.3384)
WARNING: Triclinic box skew is large. LAMMPS will run inefficiently. (src/domain.cpp:220)
  2 by 2 by 2 MPI processor grid
  pair style reaxff stores no restart info
  310 atoms
Finding 1-2 1-3 1-4 neighbors ...
  special bond factors lj:    0        0        0       
  special bond factors coul:  0        0        0       
     0 = max # of 1-2 neighbors
     0 = max # of 1-3 neighbors
     0 = max # of 1-4 neighbors
     1 = max # of special neighbors
  special bonds CPU = 0.000 seconds
  read_restart CPU = 0.004 seconds
*****debug*****
xy = -7.2027000000000001023, deltaxy = 0.072027
xz = -1.8261000000000000565, deltaxz = 0.018261
yz = 0.33839999999999997859, deltayz = -0.003384
*****
*****Negative-deform 3 starts.*****
Resetting global fix info from restart file:
  fix style: nvt, fix ID: fnvt
All restart file global fix info was re-assigned
Neighbor list info ...
  update: every = 10 steps, delay = 0 steps, check = no
  max neighbors/atom: 2000, page size: 100000
  master list distance cutoff = 12
  ghost atom cutoff = 12
  binsize = 6, bins = 5 3 3
  2 neighbor lists, perpetual/occasional/extra = 2 0 0
  (1) pair reaxff, perpetual
      attributes: half, newton off, ghost
      pair build: half/bin/newtoff/ghost
      stencil: full/ghost/bin/3d
      bin: standard
  (2) fix qeq/reaxff, perpetual, copy from (1)
      attributes: half, newton off
      pair build: copy
      stencil: none
      bin: none
Setting up Verlet run ...
  Unit style    : real
  Current step  : 0
  Time step     : 0.5
Per MPI rank memory allocation (min/avg/max) = 119 | 120.3 | 121.5 Mbytes
   Step          Temp          PotEng         Press         Density         Volume    
         0   293.7744      -34353.4        12024.801      1.4204665      3436.9359    
       100   324.11703     -34367.497      8619.9923      1.4209401      3435.7903    
       200   303.16317     -34359.687     -12563.275      1.4214141      3434.6446    
       300   315.4278      -34395.644      3614.7244      1.4218884      3433.499     
       400   298.04231     -34396.198     -3769.3404      1.422363       3432.3533    
       500   276.52615     -34383.506     -9941.2199      1.4228379      3431.2077    
       600   277.58589     -34367.888      1082.5588      1.4233131      3430.062     
       700   312.20461     -34364.952      7415.5649      1.4237886      3428.9164    
       800   333.80394     -34375.006      8226.2845      1.4242645      3427.7708    
       900   308.9799      -34377.658     -8124.4477      1.4247407      3426.6251    
      1000   291.88925     -34394.488      4020.7486      1.4252172      3425.4795    
      1100   281.33916     -34399.247     -5576.224       1.425694       3424.3338    
      1200   302.8273      -34410.322     -4249.3326      1.4261712      3423.1882    
      1300   313.50672     -34397.721     -754.09857      1.4266486      3422.0425    
      1400   313.17861     -34383.784      9842.2447      1.4271264      3420.8969    
      1500   323.16972     -34395.876     -14472.306      1.4276045      3419.7512    
      1600   300.10161     -34387.246     -19573.659      1.4280829      3418.6056    
      1700   297.24481     -34394.099     -3504.6749      1.4285617      3417.4599    
      1800   285.3395      -34389.421     -3451.6816      1.4290407      3416.3143    
      1900   299.76316     -34386.359     -3354.2707      1.4295201      3415.1687    
      2000   302.78978     -34368.175      9140.5645      1.4299998      3414.023     
      2100   308.55561     -34374.249     -1285.4209      1.4304798      3412.8774    
      2200   328.22201     -34405.391     -2413.6577      1.4309602      3411.7317    
      2300   302.2719      -34405.082      5911.6974      1.4314409      3410.5861    
      2400   303.36019     -34421.307      10640.693      1.4319218      3409.4404    
      2500   307.65717     -34429.517      3400.7457      1.4324032      3408.2948    
      2600   291.79679     -34399.11       2278.4509      1.4328848      3407.1491    
      2700   310.06778     -34383.312      3284.2944      1.4333668      3406.0035    
      2800   311.15898     -34390.078      8217.8683      1.4338491      3404.8578    
      2900   292.47094     -34395.126      1143.8738      1.4343317      3403.7122    
      3000   282.10247     -34392.835      576.53282      1.4348146      3402.5666    
Loop time of 135.816 on 8 procs for 3000 steps with 310 atoms

Performance: 0.954 ns/day, 25.151 hours/ns, 22.089 timesteps/s, 6.847 katom-step/s
98.8% CPU use with 8 MPI tasks x 1 OpenMP threads

MPI task timing breakdown:
Section |  min time  |  avg time  |  max time  |%varavg| %total
---------------------------------------------------------------
Pair    | 90.241     | 104.42     | 114.23     |  77.5 | 76.88
Bond    | 0.0078886  | 0.0090242  | 0.0099029  |   0.6 |  0.01
Neigh   | 6.7764     | 7.7936     | 8.3358     |  18.5 |  5.74
Comm    | 1.4851     | 11.313     | 25.503     | 235.3 |  8.33
Output  | 0.0090981  | 0.010328   | 0.011348   |   0.8 |  0.01
Modify  | 11.662     | 12.198     | 13.206     |  14.9 |  8.98
Other   |            | 0.07434    |            |       |  0.05

Nlocal:          38.75 ave          44 max          36 min
Histogram: 2 1 1 1 0 2 0 0 0 1
Nghost:           3112 ave        3128 max        3079 min
Histogram: 1 0 0 0 1 0 1 3 0 2
Neighs:        24753.1 ave       27898 max       22997 min
Histogram: 2 1 1 1 0 2 0 0 0 1

Total # of neighbors = 198025
Ave neighs/atom = 638.79032
Ave special neighs/atom = 0
Neighbor list builds = 300
Dangerous builds not checked
OMP_NUM_THREADS environment is not set. Defaulting to 1 thread. (src/comm.cpp:98)
  using 1 OpenMP thread(s) per MPI task
Reading restart file ...
  restart file = 2 Aug 2023, LAMMPS = 2 Aug 2023
  restoring atom style full from restart
  triclinic box = (0 0 0) to (15.4114 12.7411 17.5034) with tilt (-7.2027 -1.8261 0.3384)
WARNING: Triclinic box skew is large. LAMMPS will run inefficiently. (src/domain.cpp:220)
  2 by 2 by 2 MPI processor grid
  pair style reaxff stores no restart info
  310 atoms
Finding 1-2 1-3 1-4 neighbors ...
  special bond factors lj:    0        0        0       
  special bond factors coul:  0        0        0       
     0 = max # of 1-2 neighbors
     0 = max # of 1-3 neighbors
     0 = max # of 1-4 neighbors
     1 = max # of special neighbors
  special bonds CPU = 0.000 seconds
  read_restart CPU = 0.003 seconds
*****Positive-deform 3 starts.*****
Resetting global fix info from restart file:
  fix style: nvt, fix ID: fnvt
All restart file global fix info was re-assigned
Neighbor list info ...
  update: every = 10 steps, delay = 0 steps, check = no
  max neighbors/atom: 2000, page size: 100000
  master list distance cutoff = 12
  ghost atom cutoff = 12
  binsize = 6, bins = 5 3 3
  2 neighbor lists, perpetual/occasional/extra = 2 0 0
  (1) pair reaxff, perpetual
      attributes: half, newton off, ghost
      pair build: half/bin/newtoff/ghost
      stencil: full/ghost/bin/3d
      bin: standard
  (2) fix qeq/reaxff, perpetual, copy from (1)
      attributes: half, newton off
      pair build: copy
      stencil: none
      bin: none
Setting up Verlet run ...
  Unit style    : real
  Current step  : 0
  Time step     : 0.5
Per MPI rank memory allocation (min/avg/max) = 119 | 120.3 | 121.5 Mbytes
   Step          Temp          PotEng         Press         Density         Volume    
         0   293.7744      -34353.4        12024.801      1.4204665      3436.9359    
       100   324.01208     -34367.512      8594.4795      1.4199931      3438.0816    
       200   305.58506     -34362.37      -12549.056      1.4195201      3439.2272    
       300   309.98593     -34389.098      6600.7649      1.4190474      3440.3729    
       400   308.48289     -34403.901     -8389.2828      1.418575       3441.5185    
       500   281.71914     -34389.977     -6978.8221      1.418103       3442.6641    
       600   302.05167     -34392.971      1152.437       1.4176312      3443.8098    
       700   300.23378     -34360.31      -9330.7576      1.4171598      3444.9554    
       800   301.4725      -34346.308     -7682.3852      1.4166886      3446.1011    
       900   323.05753     -34379.9       -13271.492      1.4162178      3447.2467    
      1000   303.0403      -34397.748     -10504.811      1.4157473      3448.3924    
      1100   298.26879     -34421.486     -9044.1857      1.4152771      3449.538     
      1200   279.26876     -34409.278      9054.5903      1.4148072      3450.6837    
      1300   285.18117     -34395.476     -8496.5939      1.4143377      3451.8293    
      1400   322.61739     -34398.489      3419.0603      1.4138684      3452.975     
      1500   319.16553     -34380.313     -8580.0056      1.4133995      3454.1206    
      1600   320.12778     -34391.161      9529.3726      1.4129308      3455.2662    
      1700   319.98287     -34414.186      2313.1935      1.4124625      3456.4119    
      1800   308.30519     -34426.273      3126.138       1.4119945      3457.5575    
      1900   291.30601     -34418.843     -8133.7583      1.4115268      3458.7032    
      2000   293.18931     -34401.274      749.71767      1.4110594      3459.8488    
      2100   296.31083     -34376.391     -11122.496      1.4105923      3460.9945    
      2200   314.85739     -34379.935     -3439.8473      1.4101256      3462.1401    
      2300   303.43641     -34383.772     -3750.5377      1.4096591      3463.2858    
      2400   297.03001     -34398.495     -7687.2093      1.4091929      3464.4314    
      2500   307.97794     -34412.375     -5064.4985      1.4087271      3465.577     
      2600   301.57257     -34395.227     -9596.1656      1.4082615      3466.7227    
      2700   310.88088     -34369.776     -13233.172      1.4077963      3467.8683    
      2800   321.53921     -34376.813     -5545.6363      1.4073314      3469.014     
      2900   324.21115     -34402.583      4913.2077      1.4068668      3470.1596    
      3000   312.84599     -34402.032      2859.0759      1.4064024      3471.3053    
Loop time of 134.064 on 8 procs for 3000 steps with 310 atoms

Performance: 0.967 ns/day, 24.827 hours/ns, 22.377 timesteps/s, 6.937 katom-step/s
98.6% CPU use with 8 MPI tasks x 1 OpenMP threads

MPI task timing breakdown:
Section |  min time  |  avg time  |  max time  |%varavg| %total
---------------------------------------------------------------
Pair    | 79.01      | 102.44     | 112.7      | 108.8 | 76.41
Bond    | 0.0081641  | 0.0091096  | 0.010123   |   0.6 |  0.01
Neigh   | 6.0023     | 7.6766     | 8.2614     |  27.6 |  5.73
Comm    | 1.4771     | 11.754     | 35.174     | 321.3 |  8.77
Output  | 0.0088227  | 0.010028   | 0.010944   |   0.7 |  0.01
Modify  | 11.512     | 12.098     | 13.793     |  22.2 |  9.02
Other   |            | 0.07332    |            |       |  0.05

Nlocal:          38.75 ave          46 max          35 min
Histogram: 2 1 1 2 1 0 0 0 0 1
Nghost:        3087.88 ave        3125 max        3041 min
Histogram: 1 1 1 1 0 0 0 0 1 3
Neighs:        24239.4 ave       28381 max       22026 min
Histogram: 2 0 2 2 1 0 0 0 0 1

Total # of neighbors = 193915
Ave neighs/atom = 625.53226
Ave special neighs/atom = 0
Neighbor list builds = 300
Dangerous builds not checked
OMP_NUM_THREADS environment is not set. Defaulting to 1 thread. (src/comm.cpp:98)
  using 1 OpenMP thread(s) per MPI task
Reading restart file ...
  restart file = 2 Aug 2023, LAMMPS = 2 Aug 2023
  restoring atom style full from restart
  triclinic box = (0 0 0) to (15.4114 12.7411 17.5034) with tilt (-7.2027 -1.8261 0.3384)
WARNING: Triclinic box skew is large. LAMMPS will run inefficiently. (src/domain.cpp:220)
  2 by 2 by 2 MPI processor grid
  pair style reaxff stores no restart info
  310 atoms
Finding 1-2 1-3 1-4 neighbors ...
  special bond factors lj:    0        0        0       
  special bond factors coul:  0        0        0       
     0 = max # of 1-2 neighbors
     0 = max # of 1-3 neighbors
     0 = max # of 1-4 neighbors
     1 = max # of special neighbors
  special bonds CPU = 0.000 seconds
  read_restart CPU = 0.003 seconds
*****debug*****
xy = -7.2027000000000001023, deltaxy = 0.072027
xz = -1.8261000000000000565, deltaxz = 0.018261
yz = 0.33839999999999997859, deltayz = -0.003384
*****
*****Negative-deform 4 starts.*****
Resetting global fix info from restart file:
  fix style: nvt, fix ID: fnvt
All restart file global fix info was re-assigned
Neighbor list info ...
  update: every = 10 steps, delay = 0 steps, check = no
  max neighbors/atom: 2000, page size: 100000
  master list distance cutoff = 12
  ghost atom cutoff = 12
  binsize = 6, bins = 5 3 3
  2 neighbor lists, perpetual/occasional/extra = 2 0 0
  (1) pair reaxff, perpetual
      attributes: half, newton off, ghost
      pair build: half/bin/newtoff/ghost
      stencil: full/ghost/bin/3d
      bin: standard
  (2) fix qeq/reaxff, perpetual, copy from (1)
      attributes: half, newton off
      pair build: copy
      stencil: none
      bin: none
Setting up Verlet run ...
  Unit style    : real
  Current step  : 0
  Time step     : 0.5
Per MPI rank memory allocation (min/avg/max) = 119 | 120.3 | 121.5 Mbytes
   Step          Temp          PotEng         Press         Density         Volume    
         0   293.7744      -34353.4        12024.801      1.4204665      3436.9359    
       100   324.08164     -34367.473      8607.4355      1.4204665      3436.9359    
       200   304.10178     -34360.995     -12255.83       1.4204665      3436.9359    
       300   312.16513     -34391.812      6198.8773      1.4204665      3436.9359    
       400   306.07897     -34402.908      832.02185      1.4204665      3436.9359    
       500   270.3656      -34377.505     -7691.8835      1.4204665      3436.9359    
       600   298.20099     -34382.165      6751.1383      1.4204665      3436.9359    
       700   330.85318     -34378.822     -9999.1554      1.4204665      3436.9359    
       800   313.75057     -34354.988      282.99369      1.4204665      3436.9359    
       900   300.42703     -34366.571     -3244.8566      1.4204665      3436.9359    
      1000   279.69691     -34383.503      1507.1655      1.4204665      3436.9359    
      1100   313.02704     -34429.685     -3893.2063      1.4204665      3436.9359    
      1200   310.71577     -34424.152      5270.9812      1.4204665      3436.9359    
      1300   295.11128     -34390.2        10803.753      1.4204665      3436.9359    
      1400   305.07055     -34376.571      8155.8201      1.4204665      3436.9359    
      1500   305.67813     -34363.226     -611.43085      1.4204665      3436.9359    
      1600   316.67504     -34376.583      5043.1431      1.4204665      3436.9359    
      1700   317.34595     -34404.214     -12680.518      1.4204665      3436.9359    
      1800   295.91773     -34406.62      -1800.7645      1.4204665      3436.9359    
      1900   284.38014     -34394.46      -4294.6366      1.4204665      3436.9359    
      2000   289.32219     -34380.206     -11721.077      1.4204665      3436.9359    
      2100   313.96976     -34386.567     -2807.9674      1.4204665      3436.9359    
      2200   327.81523     -34408.633     -4596.044       1.4204665      3436.9359    
      2300   302.95395     -34406.624     -10010.685      1.4204665      3436.9359    
      2400   265.46056     -34382.759     -10273.96       1.4204665      3436.9359    
      2500   303.43762     -34403.142      2499.0866      1.4204665      3436.9359    
      2600   310.26677     -34387.219     -7188.3975      1.4204665      3436.9359    
      2700   312.4189      -34384.566     -6807.0522      1.4204665      3436.9359    
      2800   286.87268     -34393.033     -3640.1638      1.4204665      3436.9359    
      2900   289.91484     -34415.029     -15243.35       1.4204665      3436.9359    
      3000   282.23845     -34396.672     -662.96885      1.4204665      3436.9359    
Loop time of 135.279 on 8 procs for 3000 steps with 310 atoms

Performance: 0.958 ns/day, 25.052 hours/ns, 22.176 timesteps/s, 6.875 katom-step/s
98.7% CPU use with 8 MPI tasks x 1 OpenMP threads

MPI task timing breakdown:
Section |  min time  |  avg time  |  max time  |%varavg| %total
---------------------------------------------------------------
Pair    | 106.64     | 110.22     | 113.8      |  21.7 | 81.48
Bond    | 0.008268   | 0.0093266  | 0.010337   |   0.7 |  0.01
Neigh   | 8.0403     | 8.1672     | 8.388      |   3.8 |  6.04
Comm    | 1.4708     | 5.0585     | 8.6424     | 101.6 |  3.74
Output  | 0.00899    | 0.010368   | 0.011462   |   0.9 |  0.01
Modify  | 11.521     | 11.734     | 11.869     |   3.1 |  8.67
Other   |            | 0.07789    |            |       |  0.06

Nlocal:          38.75 ave          47 max          34 min
Histogram: 3 0 0 2 0 1 1 0 0 1
Nghost:        3101.25 ave        3125 max        3080 min
Histogram: 1 0 2 2 0 0 0 2 0 1
Neighs:        24499.1 ave       29372 max       21623 min
Histogram: 3 0 0 2 0 1 1 0 0 1

Total # of neighbors = 195993
Ave neighs/atom = 632.23548
Ave special neighs/atom = 0
Neighbor list builds = 300
Dangerous builds not checked
OMP_NUM_THREADS environment is not set. Defaulting to 1 thread. (src/comm.cpp:98)
  using 1 OpenMP thread(s) per MPI task
Reading restart file ...
  restart file = 2 Aug 2023, LAMMPS = 2 Aug 2023
  restoring atom style full from restart
  triclinic box = (0 0 0) to (15.4114 12.7411 17.5034) with tilt (-7.2027 -1.8261 0.3384)
WARNING: Triclinic box skew is large. LAMMPS will run inefficiently. (src/domain.cpp:220)
  2 by 2 by 2 MPI processor grid
  pair style reaxff stores no restart info
  310 atoms
Finding 1-2 1-3 1-4 neighbors ...
  special bond factors lj:    0        0        0       
  special bond factors coul:  0        0        0       
     0 = max # of 1-2 neighbors
     0 = max # of 1-3 neighbors
     0 = max # of 1-4 neighbors
     1 = max # of special neighbors
  special bonds CPU = 0.000 seconds
  read_restart CPU = 0.003 seconds
*****Positive-deform 4 starts.*****
Resetting global fix info from restart file:
  fix style: nvt, fix ID: fnvt
All restart file global fix info was re-assigned
Neighbor list info ...
  update: every = 10 steps, delay = 0 steps, check = no
  max neighbors/atom: 2000, page size: 100000
  master list distance cutoff = 12
  ghost atom cutoff = 12
  binsize = 6, bins = 5 3 3
  2 neighbor lists, perpetual/occasional/extra = 2 0 0
  (1) pair reaxff, perpetual
      attributes: half, newton off, ghost
      pair build: half/bin/newtoff/ghost
      stencil: full/ghost/bin/3d
      bin: standard
  (2) fix qeq/reaxff, perpetual, copy from (1)
      attributes: half, newton off
      pair build: copy
      stencil: none
      bin: none
Setting up Verlet run ...
  Unit style    : real
  Current step  : 0
  Time step     : 0.5
Per MPI rank memory allocation (min/avg/max) = 119 | 120.3 | 121.5 Mbytes
   Step          Temp          PotEng         Press         Density         Volume    
         0   293.7744      -34353.4        12024.801      1.4204665      3436.9359    
       100   324.0532      -34367.537      8606.8759      1.4204665      3436.9359    
       200   304.27825     -34361.101     -12519.699      1.4204665      3436.9359    
       300   313.12725     -34392.548      3235.9708      1.4204665      3436.9359    
       400   304.10677     -34400.637      729.72162      1.4204665      3436.9359    
       500   262.92095     -34370.892     -17290.092      1.4204665      3436.9359    
       600   295.88751     -34384.563      3352.0721      1.4204665      3436.9359    
       700   330.00882     -34385.585     -2791.6711      1.4204665      3436.9359    
       800   319.07219     -34369.622      5531.4104      1.4204665      3436.9359    
       900   297.71116     -34373.626      321.5358       1.4204665      3436.9359    
      1000   289.19292     -34392.292      9915.7927      1.4204665      3436.9359    
      1100   291.99352     -34399.274      784.07577      1.4204665      3436.9359    
      1200   308.04619     -34393.215      8600.5939      1.4204665      3436.9359    
      1300   316.89507     -34379.274     -10758.048      1.4204665      3436.9359    
      1400   300.50989     -34359.49      -486.46081      1.4204665      3436.9359    
      1500   309.18047     -34365.076      9883.8364      1.4204665      3436.9359    
      1600   301.02983     -34370.205      6745.5246      1.4204665      3436.9359    
      1700   296.42604     -34383.788     -5928.7759      1.4204665      3436.9359    
      1800   299.61337     -34394.116     -14569.444      1.4204665      3436.9359    
      1900   308.73256     -34400.9        5236.3203      1.4204665      3436.9359    
      2000   286.66178     -34382.611     -9150.1013      1.4204665      3436.9359    
      2100   313.81853     -34399.004     -10851.712      1.4204665      3436.9359    
      2200   326.04133     -34401.382     -6172.868       1.4204665      3436.9359    
      2300   306.99638     -34410.095     -6411.5472      1.4204665      3436.9359    
      2400   303.65545     -34426.068     -6377.8464      1.4204665      3436.9359    
      2500   287.68502     -34419.848     -816.88564      1.4204665      3436.9359    
      2600   316.95876     -34441.159     -8307.2751      1.4204665      3436.9359    
      2700   322.15403     -34412.967     -11980.576      1.4204665      3436.9359    
      2800   334.51003     -34418.315      922.56453      1.4204665      3436.9359    
      2900   291.28766     -34391.346     -15020.184      1.4204665      3436.9359    
      3000   295.54167     -34409.312     -7328.6212      1.4204665      3436.9359    
Loop time of 135.178 on 8 procs for 3000 steps with 310 atoms

Performance: 0.959 ns/day, 25.033 hours/ns, 22.193 timesteps/s, 6.880 katom-step/s
98.7% CPU use with 8 MPI tasks x 1 OpenMP threads

MPI task timing breakdown:
Section |  min time  |  avg time  |  max time  |%varavg| %total
---------------------------------------------------------------
Pair    | 101.03     | 107.33     | 111.43     |  39.0 | 79.40
Bond    | 0.0081722  | 0.0091846  | 0.010118   |   0.6 |  0.01
Neigh   | 7.6993     | 8.0401     | 8.396      |   7.5 |  5.95
Comm    | 3.5481     | 7.6596     | 13.953     | 146.1 |  5.67
Output  | 0.0099769  | 0.01163    | 0.012934   |   0.9 |  0.01
Modify  | 11.691     | 12.046     | 12.386     |   6.2 |  8.91
Other   |            | 0.07881    |            |       |  0.06

Nlocal:          38.75 ave          46 max          33 min
Histogram: 1 0 1 2 1 1 1 0 0 1
Nghost:        3084.62 ave        3126 max        3028 min
Histogram: 1 0 1 0 1 1 0 2 1 1
Neighs:        24503.6 ave       28853 max       21152 min
Histogram: 1 0 2 1 1 1 1 0 0 1

Total # of neighbors = 196029
Ave neighs/atom = 632.35161
Ave special neighs/atom = 0
Neighbor list builds = 300
Dangerous builds not checked
OMP_NUM_THREADS environment is not set. Defaulting to 1 thread. (src/comm.cpp:98)
  using 1 OpenMP thread(s) per MPI task
Reading restart file ...
  restart file = 2 Aug 2023, LAMMPS = 2 Aug 2023
  restoring atom style full from restart
  triclinic box = (0 0 0) to (15.4114 12.7411 17.5034) with tilt (-7.2027 -1.8261 0.3384)
WARNING: Triclinic box skew is large. LAMMPS will run inefficiently. (src/domain.cpp:220)
  2 by 2 by 2 MPI processor grid
  pair style reaxff stores no restart info
  310 atoms
Finding 1-2 1-3 1-4 neighbors ...
  special bond factors lj:    0        0        0       
  special bond factors coul:  0        0        0       
     0 = max # of 1-2 neighbors
     0 = max # of 1-3 neighbors
     0 = max # of 1-4 neighbors
     1 = max # of special neighbors
  special bonds CPU = 0.000 seconds
  read_restart CPU = 0.003 seconds
*****debug*****
xy = -7.2027000000000001023, deltaxy = 0.072027
xz = -1.8261000000000000565, deltaxz = 0.018261
yz = 0.33839999999999997859, deltayz = -0.003384
*****
*****Negative-deform 5 starts.*****
Resetting global fix info from restart file:
  fix style: nvt, fix ID: fnvt
All restart file global fix info was re-assigned
Neighbor list info ...
  update: every = 10 steps, delay = 0 steps, check = no
  max neighbors/atom: 2000, page size: 100000
  master list distance cutoff = 12
  ghost atom cutoff = 12
  binsize = 6, bins = 5 3 3
  2 neighbor lists, perpetual/occasional/extra = 2 0 0
  (1) pair reaxff, perpetual
      attributes: half, newton off, ghost
      pair build: half/bin/newtoff/ghost
      stencil: full/ghost/bin/3d
      bin: standard
  (2) fix qeq/reaxff, perpetual, copy from (1)
      attributes: half, newton off
      pair build: copy
      stencil: none
      bin: none
Setting up Verlet run ...
  Unit style    : real
  Current step  : 0
  Time step     : 0.5
Per MPI rank memory allocation (min/avg/max) = 119 | 120.3 | 121.5 Mbytes
   Step          Temp          PotEng         Press         Density         Volume    
         0   293.7744      -34353.4        12024.801      1.4204665      3436.9359    
       100   324.08879     -34367.497      8603.0197      1.4204665      3436.9359    
       200   304.11701     -34361.07      -13039.395      1.4204665      3436.9359    
       300   311.84428     -34391.368      5317.2772      1.4204665      3436.9359    
       400   301.17602     -34399.111      1294.3364      1.4204665      3436.9359    
       500   265.14113     -34374.384     -10710.626      1.4204665      3436.9359    
       600   297.12075     -34387.001      4339.2175      1.4204665      3436.9359    
       700   326.12261     -34380.832     -10597.179      1.4204665      3436.9359    
       800   306.89146     -34352.81       4455.4604      1.4204665      3436.9359    
       900   295.73309     -34356.737     -8604.5967      1.4204665      3436.9359    
      1000   283.24117     -34378.776     -7307.3559      1.4204665      3436.9359    
      1100   285.57896     -34398.124     -17692.938      1.4204665      3436.9359    
      1200   292.00468     -34405.258      2563.2978      1.4204665      3436.9359    
      1300   297.93573     -34401.04      -16828.736      1.4204665      3436.9359    
      1400   291.73262     -34380.225     -4538.9502      1.4204665      3436.9359    
      1500   308.65447     -34399.803      1435.3974      1.4204665      3436.9359    
      1600   305.49209     -34412.817      5887.5517      1.4204665      3436.9359    
      1700   312.8756      -34441.149     -2282.6043      1.4204665      3436.9359    
      1800   310.63102     -34458.759      2938.0137      1.4204665      3436.9359    
      1900   298.81313     -34447.699     -22029.881      1.4204665      3436.9359    
      2000   307.30517     -34431.42      -7436.5326      1.4204665      3436.9359    
      2100   317.62041     -34414.041     -7273.9949      1.4204665      3436.9359    
      2200   304.13079     -34392.696      9074.7688      1.4204665      3436.9359    
      2300   299.82307     -34406.562     -4449.8908      1.4204665      3436.9359    
      2400   291.62057     -34421.62      -2565.3483      1.4204665      3436.9359    
      2500   301.56316     -34432.349      2572.2457      1.4204665      3436.9359    
      2600   314.43196     -34430.104     -12712.221      1.4204665      3436.9359    
      2700   333.69305     -34420.143     -16115.392      1.4204665      3436.9359    
      2800   313.3993      -34408.668     -10982.953      1.4204665      3436.9359    
      2900   301.65208     -34439.349     -9375.233       1.4204665      3436.9359    
      3000   304.18674     -34445.266      3750.5259      1.4204665      3436.9359    
Loop time of 136.462 on 8 procs for 3000 steps with 310 atoms

Performance: 0.950 ns/day, 25.271 hours/ns, 21.984 timesteps/s, 6.815 katom-step/s
98.8% CPU use with 8 MPI tasks x 1 OpenMP threads

MPI task timing breakdown:
Section |  min time  |  avg time  |  max time  |%varavg| %total
---------------------------------------------------------------
Pair    | 73.654     | 106.21     | 115.09     | 122.6 | 77.83
Bond    | 0.0082347  | 0.0091715  | 0.0097619  |   0.6 |  0.01
Neigh   | 5.7678     | 8.0064     | 8.6591     |  30.8 |  5.87
Comm    | 0.99639    | 9.8739     | 42.446     | 402.1 |  7.24
Output  | 0.0089099  | 0.010564   | 0.011953   |   1.0 |  0.01
Modify  | 11.6       | 12.269     | 14.506     |  24.9 |  8.99
Other   |            | 0.07998    |            |       |  0.06

Nlocal:          38.75 ave          45 max          32 min
Histogram: 1 0 0 0 2 3 1 0 0 1
Nghost:        3090.62 ave        3139 max        3029 min
Histogram: 1 1 0 2 0 0 0 2 0 2
Neighs:        24499.8 ave       28151 max       20537 min
Histogram: 1 0 0 0 2 3 1 0 0 1

Total # of neighbors = 195998
Ave neighs/atom = 632.25161
Ave special neighs/atom = 0
Neighbor list builds = 300
Dangerous builds not checked
OMP_NUM_THREADS environment is not set. Defaulting to 1 thread. (src/comm.cpp:98)
  using 1 OpenMP thread(s) per MPI task
Reading restart file ...
  restart file = 2 Aug 2023, LAMMPS = 2 Aug 2023
  restoring atom style full from restart
  triclinic box = (0 0 0) to (15.4114 12.7411 17.5034) with tilt (-7.2027 -1.8261 0.3384)
WARNING: Triclinic box skew is large. LAMMPS will run inefficiently. (src/domain.cpp:220)
  2 by 2 by 2 MPI processor grid
  pair style reaxff stores no restart info
  310 atoms
Finding 1-2 1-3 1-4 neighbors ...
  special bond factors lj:    0        0        0       
  special bond factors coul:  0        0        0       
     0 = max # of 1-2 neighbors
     0 = max # of 1-3 neighbors
     0 = max # of 1-4 neighbors
     1 = max # of special neighbors
  special bonds CPU = 0.000 seconds
  read_restart CPU = 0.003 seconds
*****Positive-deform 5 starts.*****
Resetting global fix info from restart file:
  fix style: nvt, fix ID: fnvt
All restart file global fix info was re-assigned
Neighbor list info ...
  update: every = 10 steps, delay = 0 steps, check = no
  max neighbors/atom: 2000, page size: 100000
  master list distance cutoff = 12
  ghost atom cutoff = 12
  binsize = 6, bins = 5 3 3
  2 neighbor lists, perpetual/occasional/extra = 2 0 0
  (1) pair reaxff, perpetual
      attributes: half, newton off, ghost
      pair build: half/bin/newtoff/ghost
      stencil: full/ghost/bin/3d
      bin: standard
  (2) fix qeq/reaxff, perpetual, copy from (1)
      attributes: half, newton off
      pair build: copy
      stencil: none
      bin: none
Setting up Verlet run ...
  Unit style    : real
  Current step  : 0
  Time step     : 0.5
Per MPI rank memory allocation (min/avg/max) = 119 | 120.3 | 121.5 Mbytes
   Step          Temp          PotEng         Press         Density         Volume    
         0   293.7744      -34353.4        12024.801      1.4204665      3436.9359    
       100   324.04163     -34367.514      8611.6043      1.4204665      3436.9359    
       200   304.01857     -34360.734     -11856.488      1.4204665      3436.9359    
       300   312.6248      -34392.413      4489.2156      1.4204665      3436.9359    
       400   301.80367     -34399.417     -314.57625      1.4204665      3436.9359    
       500   265.6911      -34374.86      -13299.608      1.4204665      3436.9359    
       600   298.94282     -34386.735     -4912.0707      1.4204665      3436.9359    
       700   321.25689     -34373.688     -4920.2731      1.4204665      3436.9359    
       800   342.53842     -34382.237     -10042.653      1.4204665      3436.9359    
       900   289.58988     -34356.341     -13365.318      1.4204665      3436.9359    
      1000   289.02257     -34385.915     -9571.555       1.4204665      3436.9359    
      1100   300.96394     -34414.383      5364.4786      1.4204665      3436.9359    
      1200   294.23624     -34401.955      4359.8784      1.4204665      3436.9359    
      1300   310.96598     -34395.676     -10400.685      1.4204665      3436.9359    
      1400   318.44885     -34385.747     -9842.5523      1.4204665      3436.9359    
      1500   284.03563     -34356.363     -13360.786      1.4204665      3436.9359    
      1600   307.28615     -34384.545      10842.77       1.4204665      3436.9359    
      1700   301.36259     -34386.756      1481.0572      1.4204665      3436.9359    
      1800   279.47736     -34374.289     -5272.6502      1.4204665      3436.9359    
      1900   300.15082     -34387.906     -21455.892      1.4204665      3436.9359    
      2000   301.5108      -34390.478     -17803.905      1.4204665      3436.9359    
      2100   287.40359     -34397.057     -18619.508      1.4204665      3436.9359    
      2200   295.69047     -34412.39      -1745.2529      1.4204665      3436.9359    
      2300   291.46012     -34414.805     -12260.952      1.4204665      3436.9359    
      2400   307.34083     -34429.464     -6233.3528      1.4204665      3436.9359    
      2500   318.95322     -34420.848     -7116.5953      1.4204665      3436.9359    
      2600   301.29881     -34391.394      4368.6393      1.4204665      3436.9359    
      2700   308.34009     -34389.998     -533.43065      1.4204665      3436.9359    
      2800   299.57254     -34370.633     -169.3524       1.4204665      3436.9359    
      2900   312.78156     -34380.056     -17617.207      1.4204665      3436.9359    
      3000   302.25577     -34398.298     -4023.2896      1.4204665      3436.9359    
Loop time of 136.439 on 8 procs for 3000 steps with 310 atoms

Performance: 0.950 ns/day, 25.267 hours/ns, 21.988 timesteps/s, 6.816 katom-step/s
98.8% CPU use with 8 MPI tasks x 1 OpenMP threads

MPI task timing breakdown:
Section |  min time  |  avg time  |  max time  |%varavg| %total
---------------------------------------------------------------
Pair    | 83.933     | 105.27     | 115.24     |  93.0 | 77.15
Bond    | 0.0085084  | 0.0092493  | 0.010036   |   0.5 |  0.01
Neigh   | 6.43       | 7.8567     | 8.4819     |  23.6 |  5.76
Comm    | 1.0646     | 11.047     | 32.385     | 287.3 |  8.10
Output  | 0.0096442  | 0.010986   | 0.012222   |   0.9 |  0.01
Modify  | 11.528     | 12.167     | 13.598     |  19.0 |  8.92
Other   |            | 0.08068    |            |       |  0.06

Nlocal:          38.75 ave          47 max          35 min
Histogram: 3 0 1 2 1 0 0 0 0 1
Nghost:         3099.5 ave        3129 max        3066 min
Histogram: 1 0 1 2 0 0 1 0 1 2
Neighs:        24488.9 ave       29378 max       22200 min
Histogram: 2 1 1 2 1 0 0 0 0 1

Total # of neighbors = 195911
Ave neighs/atom = 631.97097
Ave special neighs/atom = 0
Neighbor list builds = 300
Dangerous builds not checked
OMP_NUM_THREADS environment is not set. Defaulting to 1 thread. (src/comm.cpp:98)
  using 1 OpenMP thread(s) per MPI task
Reading restart file ...
  restart file = 2 Aug 2023, LAMMPS = 2 Aug 2023
  restoring atom style full from restart
  triclinic box = (0 0 0) to (15.4114 12.7411 17.5034) with tilt (-7.2027 -1.8261 0.3384)
WARNING: Triclinic box skew is large. LAMMPS will run inefficiently. (src/domain.cpp:220)
  2 by 2 by 2 MPI processor grid
  pair style reaxff stores no restart info
  310 atoms
Finding 1-2 1-3 1-4 neighbors ...
  special bond factors lj:    0        0        0       
  special bond factors coul:  0        0        0       
     0 = max # of 1-2 neighbors
     0 = max # of 1-3 neighbors
     0 = max # of 1-4 neighbors
     1 = max # of special neighbors
  special bonds CPU = 0.000 seconds
  read_restart CPU = 0.003 seconds
*****debug*****
xy = -7.2027000000000001023, deltaxy = 0.072027
xz = -1.8261000000000000565, deltaxz = 0.018261
yz = 0.33839999999999997859, deltayz = -0.003384
*****
*****Negative-deform 6 starts.*****
Resetting global fix info from restart file:
  fix style: nvt, fix ID: fnvt
All restart file global fix info was re-assigned
Neighbor list info ...
  update: every = 10 steps, delay = 0 steps, check = no
  max neighbors/atom: 2000, page size: 100000
  master list distance cutoff = 12
  ghost atom cutoff = 12
  binsize = 6, bins = 5 3 3
  2 neighbor lists, perpetual/occasional/extra = 2 0 0
  (1) pair reaxff, perpetual
      attributes: half, newton off, ghost
      pair build: half/bin/newtoff/ghost
      stencil: full/ghost/bin/3d
      bin: standard
  (2) fix qeq/reaxff, perpetual, copy from (1)
      attributes: half, newton off
      pair build: copy
      stencil: none
      bin: none
Setting up Verlet run ...
  Unit style    : real
  Current step  : 0
  Time step     : 0.5
Per MPI rank memory allocation (min/avg/max) = 119 | 120.3 | 121.5 Mbytes
   Step          Temp          PotEng         Press         Density         Volume    
         0   293.7744      -34353.4        12024.801      1.4204665      3436.9359    
       100   324.1061      -34367.514      8611.2191      1.4204665      3436.9359    
       200   306.60554     -34362.975     -11890.16       1.4204665      3436.9359    
       300   311.61119     -34390.362      9008.8479      1.4204665      3436.9359    
       400   299.62232     -34398.125     -887.58015      1.4204665      3436.9359    
       500   267.71438     -34376.884     -17455.205      1.4204665      3436.9359    
       600   310.14763     -34394.64       5772.5305      1.4204665      3436.9359    
       700   324.93868     -34376.314     -7497.5928      1.4204665      3436.9359    
       800   309.91524     -34361.958      1643.7107      1.4204665      3436.9359    
       900   306.13673     -34382.622     -2184.4881      1.4204665      3436.9359    
      1000   288.60541     -34392.587      9583.5044      1.4204665      3436.9359    
      1100   303.81157     -34412.319      3986.2468      1.4204665      3436.9359    
      1200   295.56866     -34395.203     -2507.3035      1.4204665      3436.9359    
      1300   303.8895      -34380.727      7129.9367      1.4204665      3436.9359    
      1400   299.81976     -34361.874     -10267.982      1.4204665      3436.9359    
      1500   307.22993     -34373.069      5465.2231      1.4204665      3436.9359    
      1600   307.41082     -34380.736     -6568.5127      1.4204665      3436.9359    
      1700   300.73258     -34389.486      12480.323      1.4204665      3436.9359    
      1800   295.47312     -34400.671     -3460.1568      1.4204665      3436.9359    
      1900   283.53495     -34390.38       5046.8033      1.4204665      3436.9359    
      2000   309.52292     -34385.454      734.29554      1.4204665      3436.9359    
      2100   306.27102     -34369.358      4314.106       1.4204665      3436.9359    
      2200   313.77797     -34376.355     -2138.6133      1.4204665      3436.9359    
      2300   290.603       -34362.064     -983.25733      1.4204665      3436.9359    
      2400   300.99861     -34387.669      13156.838      1.4204665      3436.9359    
      2500   290.35601     -34392.442     -2487.5926      1.4204665      3436.9359    
      2600   297.56363     -34413.33      -3370.1917      1.4204665      3436.9359    
      2700   275.53145     -34401.835     -15515.288      1.4204665      3436.9359    
      2800   312.23045     -34421.339      3398.6677      1.4204665      3436.9359    
      2900   303.71838     -34387.683      6415.034       1.4204665      3436.9359    
      3000   301.36578     -34388.559      5587.786       1.4204665      3436.9359    
Loop time of 134.312 on 8 procs for 3000 steps with 310 atoms

Performance: 0.965 ns/day, 24.873 hours/ns, 22.336 timesteps/s, 6.924 katom-step/s
98.8% CPU use with 8 MPI tasks x 1 OpenMP threads

MPI task timing breakdown:
Section |  min time  |  avg time  |  max time  |%varavg| %total
---------------------------------------------------------------
Pair    | 77.719     | 105.75     | 112.03     | 104.9 | 78.73
Bond    | 0.0081293  | 0.0091251  | 0.010018   |   0.6 |  0.01
Neigh   | 5.897      | 7.884      | 8.2329     |  26.8 |  5.87
Comm    | 2.3991     | 8.6798     | 36.696     | 366.0 |  6.46
Output  | 0.0087306  | 0.010069   | 0.011171   |   0.9 |  0.01
Modify  | 11.568     | 11.907     | 13.913     |  22.0 |  8.87
Other   |            | 0.07592    |            |       |  0.06

Nlocal:          38.75 ave          42 max          34 min
Histogram: 1 0 0 1 0 0 4 0 1 1
Nghost:        3078.75 ave        3113 max        3047 min
Histogram: 2 1 1 0 0 0 0 2 1 1
Neighs:        24460.6 ave       26347 max       21803 min
Histogram: 1 0 0 1 0 1 3 0 1 1

Total # of neighbors = 195685
Ave neighs/atom = 631.24194
Ave special neighs/atom = 0
Neighbor list builds = 300
Dangerous builds not checked
OMP_NUM_THREADS environment is not set. Defaulting to 1 thread. (src/comm.cpp:98)
  using 1 OpenMP thread(s) per MPI task
Reading restart file ...
  restart file = 2 Aug 2023, LAMMPS = 2 Aug 2023
  restoring atom style full from restart
  triclinic box = (0 0 0) to (15.4114 12.7411 17.5034) with tilt (-7.2027 -1.8261 0.3384)
WARNING: Triclinic box skew is large. LAMMPS will run inefficiently. (src/domain.cpp:220)
  2 by 2 by 2 MPI processor grid
  pair style reaxff stores no restart info
  310 atoms
Finding 1-2 1-3 1-4 neighbors ...
  special bond factors lj:    0        0        0       
  special bond factors coul:  0        0        0       
     0 = max # of 1-2 neighbors
     0 = max # of 1-3 neighbors
     0 = max # of 1-4 neighbors
     1 = max # of special neighbors
  special bonds CPU = 0.000 seconds
  read_restart CPU = 0.003 seconds
*****Positive-deform 6 starts.*****
Resetting global fix info from restart file:
  fix style: nvt, fix ID: fnvt
All restart file global fix info was re-assigned
Neighbor list info ...
  update: every = 10 steps, delay = 0 steps, check = no
  max neighbors/atom: 2000, page size: 100000
  master list distance cutoff = 12
  ghost atom cutoff = 12
  binsize = 6, bins = 5 3 3
  2 neighbor lists, perpetual/occasional/extra = 2 0 0
  (1) pair reaxff, perpetual
      attributes: half, newton off, ghost
      pair build: half/bin/newtoff/ghost
      stencil: full/ghost/bin/3d
      bin: standard
  (2) fix qeq/reaxff, perpetual, copy from (1)
      attributes: half, newton off
      pair build: copy
      stencil: none
      bin: none
Setting up Verlet run ...
  Unit style    : real
  Current step  : 0
  Time step     : 0.5
Per MPI rank memory allocation (min/avg/max) = 119 | 120.3 | 121.5 Mbytes
   Step          Temp          PotEng         Press         Density         Volume    
         0   293.7744      -34353.4        12024.801      1.4204665      3436.9359    
       100   324.00936     -34367.522      8613.4668      1.4204665      3436.9359    
       200   302.35658     -34359.466     -12948.232      1.4204665      3436.9359    
       300   315.73059     -34394.849      5034.7884      1.4204665      3436.9359    
       400   309.8292      -34404.723     -4159.4503      1.4204665      3436.9359    
       500   272.99613     -34381.975     -16044.953      1.4204665      3436.9359    
       600   284.95551     -34376.598     -3486.1246      1.4204665      3436.9359    
       700   313.22573     -34368.05      -5292.1804      1.4204665      3436.9359    
       800   333.19775     -34371.959      13319.678      1.4204665      3436.9359    
       900   307.44451     -34376.265     -7128.643       1.4204665      3436.9359    
      1000   282.90962     -34386.464      11777.116      1.4204665      3436.9359    
      1100   290.89381     -34404.92      -9534.6907      1.4204665      3436.9359    
      1200   290.08448     -34396.063     -2994.6523      1.4204665      3436.9359    
      1300   307.74192     -34392.673     -9518.5382      1.4204665      3436.9359    
      1400   301.62421     -34379.242      4775.4297      1.4204665      3436.9359    
      1500   298.29711     -34383.736     -7372.5119      1.4204665      3436.9359    
      1600   308.14746     -34403.412     -10793.411      1.4204665      3436.9359    
      1700   298.07523     -34417.714     -2374.797       1.4204665      3436.9359    
      1800   305.04781     -34424.57      -835.37696      1.4204665      3436.9359    
      1900   286.48455     -34388.325     -5571.1845      1.4204665      3436.9359    
      2000   335.83677     -34410.61       1379.2535      1.4204665      3436.9359    
      2100   315.72531     -34401.458      2670.4495      1.4204665      3436.9359    
      2200   288.45729     -34397.19      -111.34102      1.4204665      3436.9359    
      2300   284.28705     -34394.858      15521.588      1.4204665      3436.9359    
      2400   297.36203     -34385.195     -4729.4802      1.4204665      3436.9359    
      2500   304.63519     -34385.477     -2796.3735      1.4204665      3436.9359    
      2600   287.54121     -34388.211     -7200.8244      1.4204665      3436.9359    
      2700   282.76305     -34413.465     -2030.4737      1.4204665      3436.9359    
      2800   291.15692     -34419.694     -4980.1344      1.4204665      3436.9359    
      2900   302.08786     -34416.011     -5827.2404      1.4204665      3436.9359    
      3000   310.89407     -34414.089      4396.9763      1.4204665      3436.9359    
Loop time of 133.992 on 8 procs for 3000 steps with 310 atoms

Performance: 0.967 ns/day, 24.813 hours/ns, 22.389 timesteps/s, 6.941 katom-step/s
98.8% CPU use with 8 MPI tasks x 1 OpenMP threads

MPI task timing breakdown:
Section |  min time  |  avg time  |  max time  |%varavg| %total
---------------------------------------------------------------
Pair    | 93.529     | 104.28     | 112.42     |  73.9 | 77.82
Bond    | 0.0078818  | 0.0090732  | 0.010027   |   0.6 |  0.01
Neigh   | 6.8945     | 7.7289     | 8.1763     |  17.8 |  5.77
Comm    | 1.8973     | 10.036     | 20.763     | 237.9 |  7.49
Output  | 0.0094911  | 0.010892   | 0.01206    |   0.9 |  0.01
Modify  | 11.419     | 11.854     | 12.71      |  14.6 |  8.85
Other   |            | 0.07676    |            |       |  0.06

Nlocal:          38.75 ave          48 max          33 min
Histogram: 2 1 0 0 3 1 0 0 0 1
Nghost:        3074.88 ave        3119 max        3021 min
Histogram: 1 1 1 1 0 0 0 0 2 2
Neighs:        24470.8 ave       29951 max       20948 min
Histogram: 2 1 0 0 3 1 0 0 0 1

Total # of neighbors = 195766
Ave neighs/atom = 631.50323
Ave special neighs/atom = 0
Neighbor list builds = 300
Dangerous builds not checked
Total wall time: 0:29:15
