LAMMPS (2 Aug 2023 - Update 2)
OMP_NUM_THREADS environment is not set. Defaulting to 1 thread. (src/comm.cpp:98)
  using 1 OpenMP thread(s) per MPI task
Reading data file ...
  triclinic box = (0 0 0) to (15.4114 12.7411 17.5034) with tilt (-7.2027 -1.8261 0.3384)
WARNING: Triclinic box skew is large. LAMMPS will run inefficiently. (src/domain.cpp:220)
  2 by 2 by 2 MPI processor grid
  reading atoms ...
  310 atoms
Finding 1-2 1-3 1-4 neighbors ...
  special bond factors lj:    0        0        0       
  special bond factors coul:  0        0        0       
     0 = max # of 1-2 neighbors
     0 = max # of 1-3 neighbors
     0 = max # of 1-4 neighbors
     1 = max # of special neighbors
  special bonds CPU = 0.001 seconds
  read_data CPU = 0.007 seconds
*****Minimization starts.*****
Setting up cg style minimization ...
  Unit style    : real
  Current step  : 0
WARNING: No pairwise cutoff or binsize set. Atom sorting therefore disabled. (src/atom.cpp:2366)
WARNING: Communication cutoff is 0.0. No ghost atoms will be generated. Atoms may get lost. (src/comm_brick.cpp:210)
Per MPI rank memory allocation (min/avg/max) = 6.365 | 6.365 | 6.365 Mbytes
   Step          Temp          E_pair         E_mol          TotEng         Press     
         0   0              0              0              0              0            
         1   0              0              0              0              0            
Loop time of 5.23909e-05 on 8 procs for 1 steps with 310 atoms

58.2% CPU use with 8 MPI tasks x 1 OpenMP threads

Minimization stats:
  Stopping criterion = search direction is not downhill
  Energy initial, next-to-last, final = 
                     0                  0                  0
  Force two-norm initial, final = 0 0
  Force max component initial, final = 0 0
  Final line search alpha, max atom move = 0 0
  Iterations, force evaluations = 1 0

MPI task timing breakdown:
Section |  min time  |  avg time  |  max time  |%varavg| %total
---------------------------------------------------------------
Pair    | 0          | 0          | 0          |   0.0 |  0.00
Bond    | 1.57e-07   | 2.3013e-07 | 3.61e-07   |   0.0 |  0.44
Neigh   | 0          | 0          | 0          |   0.0 |  0.00
Comm    | 1.091e-06  | 1.2524e-06 | 1.613e-06  |   0.0 |  2.39
Output  | 0          | 0          | 0          |   0.0 |  0.00
Modify  | 0          | 0          | 0          |   0.0 |  0.00
Other   |            | 5.091e-05  |            |       | 97.17

Nlocal:          38.75 ave          46 max          34 min
Histogram: 1 2 0 1 2 0 1 0 0 1
Nghost:              0 ave           0 max           0 min
Histogram: 8 0 0 0 0 0 0 0 0 0
Neighs:              0 ave           0 max           0 min
Histogram: 8 0 0 0 0 0 0 0 0 0

Total # of neighbors = 0
Ave neighs/atom = 0
Ave special neighs/atom = 0
Neighbor list builds = 0
Dangerous builds = 0
System init for write_data ...
WARNING: Communication cutoff is 0.0. No ghost atoms will be generated. Atoms may get lost. (src/comm_brick.cpp:210)
WARNING: New thermo_style command, previous thermo_modify settings will be lost (src/output.cpp:903)

CITE-CITE-CITE-CITE-CITE-CITE-CITE-CITE-CITE-CITE-CITE-CITE-CITE

Your simulation uses code contributions which should be cited:
- pair reaxff command: doi:10.1016/j.parco.2011.08.005
- fix qeq/reaxff command: doi:10.1016/j.parco.2011.08.005
The log file lists these citations in BibTeX format.

CITE-CITE-CITE-CITE-CITE-CITE-CITE-CITE-CITE-CITE-CITE-CITE-CITE

WARNING: Fix qeq/reaxff group is not charge neutral, net charge = 22.14 (src/REAXFF/fix_qeq_reaxff.cpp:392)
Neighbor list info ...
  update: every = 10 steps, delay = 0 steps, check = no
  max neighbors/atom: 2000, page size: 100000
  master list distance cutoff = 12
  ghost atom cutoff = 12
  binsize = 6, bins = 5 3 3
  2 neighbor lists, perpetual/occasional/extra = 2 0 0
  (1) pair reaxff, perpetual
      attributes: half, newton off, ghost
      pair build: half/bin/newtoff/ghost
      stencil: full/ghost/bin/3d
      bin: standard
  (2) fix qeq/reaxff, perpetual, copy from (1)
      attributes: half, newton off
      pair build: copy
      stencil: none
      bin: none
Setting up Verlet run ...
  Unit style    : real
  Current step  : 0
  Time step     : 0.5
Per MPI rank memory allocation (min/avg/max) = 121 | 121.6 | 122.5 Mbytes
   Step          Temp          PotEng         Press         Density         Volume    
         0   300           -32388.564      119735.25      1.4204665      3436.9359    
       100   826.21848     -33370.206     -34153.459      1.4204665      3436.9359    
       200   604.64313     -33652.984     -23357.291      1.4204665      3436.9359    
       300   465.54625     -33876.865      44.965454      1.4204665      3436.9359    
       400   399.37626     -34043.579     -1989.4513      1.4204665      3436.9359    
       500   311.7999      -34116.163      20211.59       1.4204665      3436.9359    
       600   286.41955     -34190.476      6298.2812      1.4204665      3436.9359    
       700   293.04756     -34250.499     -5385.4937      1.4204665      3436.9359    
       800   315.2187      -34288.078     -13872.111      1.4204665      3436.9359    
       900   296.85319     -34277.216     -293.91465      1.4204665      3436.9359    
      1000   325.84368     -34312.491     -388.81292      1.4204665      3436.9359    
      1100   296.98178     -34298.167      4917.4619      1.4204665      3436.9359    
      1200   313.94806     -34333.653      5759.7625      1.4204665      3436.9359    
      1300   286.29838     -34332.402      1147.5279      1.4204665      3436.9359    
      1400   299.88672     -34345.993      8313.5888      1.4204665      3436.9359    
      1500   314.0539      -34352.758      12676.746      1.4204665      3436.9359    
      1600   308.7959      -34341.532     -5185.8517      1.4204665      3436.9359    
      1700   315.75942     -34336.158     -8060.5058      1.4204665      3436.9359    
      1800   301.26072     -34326.253     -3628.4647      1.4204665      3436.9359    
      1900   306.14107     -34346.982     -3949.8385      1.4204665      3436.9359    
      2000   297.28055     -34358.755      15824.21       1.4204665      3436.9359    
      2100   289.0004      -34361.916      10993.438      1.4204665      3436.9359    
      2200   289.76911     -34351.469      795.36954      1.4204665      3436.9359    
      2300   318.4501      -34360.164     -9424.3303      1.4204665      3436.9359    
      2400   301.58268     -34327.7        4574.119       1.4204665      3436.9359    
      2500   315.91539     -34344.135     -662.15945      1.4204665      3436.9359    
      2600   309.40156     -34363.754     -10319.725      1.4204665      3436.9359    
      2700   287.04496     -34372.336      8138.1091      1.4204665      3436.9359    
      2800   284.98128     -34377.549     -9135.8395      1.4204665      3436.9359    
      2900   285.91652     -34367.357      3113.9802      1.4204665      3436.9359    
      3000   293.7744      -34353.4        12024.799      1.4204665      3436.9359    
      3100   324.05065     -34367.521      8609.5818      1.4204665      3436.9359    
      3200   304.16434     -34361.037     -12399.167      1.4204665      3436.9359    
      3300   313.68304     -34393.012      5165.1854      1.4204665      3436.9359    
      3400   296.12172     -34394.422      2983.1842      1.4204665      3436.9359    
      3500   273.54504     -34381.032     -12662.768      1.4204665      3436.9359    
      3600   316.56892     -34398.778     -5164.6996      1.4204665      3436.9359    
      3700   341.08209     -34389.638     -5781.0308      1.4204665      3436.9359    
      3800   312.73563     -34356.251     -18257.05       1.4204665      3436.9359    
      3900   302.13303     -34368.486     -19615.387      1.4204665      3436.9359    
      4000   279.679       -34379.229     -4839.9633      1.4204665      3436.9359    
      4100   284.48883     -34401.445     -11826.02       1.4204665      3436.9359    
      4200   298.10298     -34410.963      16931.557      1.4204665      3436.9359    
      4300   288.1516      -34379.937     -1696.6265      1.4204665      3436.9359    
      4400   309.3669      -34375.827     -8422.9796      1.4204665      3436.9359    
      4500   320.37797     -34386.104     -6480.6928      1.4204665      3436.9359    
      4600   314.59392     -34413.888     -6929.6371      1.4204665      3436.9359    
      4700   284.04502     -34413.758     -10533.38       1.4204665      3436.9359    
      4800   273.06281     -34402.645     -6383.8921      1.4204665      3436.9359    
      4900   305.63538     -34407.569      1105.6915      1.4204665      3436.9359    
      5000   295.8757      -34371.964     -25608.111      1.4204665      3436.9359    
Loop time of 222.857 on 8 procs for 5000 steps with 310 atoms

Performance: 0.969 ns/day, 24.762 hours/ns, 22.436 timesteps/s, 6.955 katom-step/s
98.7% CPU use with 8 MPI tasks x 1 OpenMP threads

MPI task timing breakdown:
Section |  min time  |  avg time  |  max time  |%varavg| %total
---------------------------------------------------------------
Pair    | 125.68     | 168.64     | 187.17     | 183.9 | 75.67
Bond    | 0.0015082  | 0.001948   | 0.0024086  |   0.6 |  0.00
Neigh   | 9.401      | 12.74      | 14.33      |  54.1 |  5.72
Comm    | 2.5306     | 21.058     | 64.019     | 520.2 |  9.45
Output  | 0.0029099  | 0.0031877  | 0.0045963  |   0.9 |  0.00
Modify  | 18.673     | 20.311     | 23.676     |  43.2 |  9.11
Other   |            | 0.1035     |            |       |  0.05

Nlocal:          38.75 ave          42 max          34 min
Histogram: 1 1 0 1 0 0 0 2 2 1
Nghost:        3066.38 ave        3082 max        3038 min
Histogram: 1 0 0 1 1 0 1 1 0 3
Neighs:        24530.1 ave       26465 max       21624 min
Histogram: 1 1 0 1 0 0 0 2 1 2

Total # of neighbors = 196241
Ave neighs/atom = 633.03548
Ave special neighs/atom = 0
Neighbor list builds = 500
Dangerous builds not checked
System init for write_data ...
System init for write_restart ...
OMP_NUM_THREADS environment is not set. Defaulting to 1 thread. (src/comm.cpp:98)
  using 1 OpenMP thread(s) per MPI task
Reading restart file ...
  restart file = 2 Aug 2023, LAMMPS = 2 Aug 2023
  restoring atom style full from restart
  triclinic box = (0 0 0) to (15.4114 12.7411 17.5034) with tilt (-7.2027 -1.8261 0.3384)
WARNING: Triclinic box skew is large. LAMMPS will run inefficiently. (src/domain.cpp:220)
  2 by 2 by 2 MPI processor grid
  pair style reaxff stores no restart info
  310 atoms
Finding 1-2 1-3 1-4 neighbors ...
  special bond factors lj:    0        0        0       
  special bond factors coul:  0        0        0       
     0 = max # of 1-2 neighbors
     0 = max # of 1-3 neighbors
     0 = max # of 1-4 neighbors
     1 = max # of special neighbors
  special bonds CPU = 0.000 seconds
  read_restart CPU = 0.003 seconds
*****debug*****
xy = -7.2027000000000001023, deltaxy = 0.72027
xz = -1.8261000000000000565, deltaxz = 0.18261
yz = 0.33839999999999997859, deltayz = -0.03384
*****
*****Negative-deform 1 starts.*****
Resetting global fix info from restart file:
  fix style: nvt, fix ID: fnvt
All restart file global fix info was re-assigned
Neighbor list info ...
  update: every = 10 steps, delay = 0 steps, check = no
  max neighbors/atom: 2000, page size: 100000
  master list distance cutoff = 12
  ghost atom cutoff = 12
  binsize = 6, bins = 5 3 3
  2 neighbor lists, perpetual/occasional/extra = 2 0 0
  (1) pair reaxff, perpetual
      attributes: half, newton off, ghost
      pair build: half/bin/newtoff/ghost
      stencil: full/ghost/bin/3d
      bin: standard
  (2) fix qeq/reaxff, perpetual, copy from (1)
      attributes: half, newton off
      pair build: copy
      stencil: none
      bin: none
Setting up Verlet run ...
  Unit style    : real
  Current step  : 0
  Time step     : 0.5
Per MPI rank memory allocation (min/avg/max) = 118.7 | 119.5 | 120.1 Mbytes
   Step          Temp          PotEng         Press          Volume           Lx             Ly             Lz      
         0   295.8757      -34371.964     -25608.106      3436.9359      15.4114        12.7411        17.5034      
       100   312.253       -34368.879     -8651.1829      3430.062       15.380577      12.7411        17.5034      
       200   315.2002      -34385.012     -11895.041      3423.1882      15.349754      12.7411        17.5034      
       300   291.38646     -34391.229     -57.648024      3416.3143      15.318932      12.7411        17.5034      
       400   285.15448     -34395.375      3317.6511      3409.4404      15.288109      12.7411        17.5034      
       500   292.97287     -34404.779     -2074.0971      3402.5666      15.257286      12.7411        17.5034      
       600   295.59732     -34397.007      1241.2843      3395.6927      15.226463      12.7411        17.5034      
       700   307.93408     -34388.159     -4595.6394      3388.8188      15.19564       12.7411        17.5034      
       800   323.33821     -34381.693     -345.92275      3381.9449      15.164818      12.7411        17.5034      
       900   328.71028     -34394.786     -113.20383      3375.0711      15.133995      12.7411        17.5034      
      1000   313.09595     -34403.664      3394.9617      3368.1972      15.103172      12.7411        17.5034      
      1100   309.3928      -34404.355     -2910.3407      3361.3233      15.072349      12.7411        17.5034      
      1200   282.50606     -34383.4        914.50886      3354.4495      15.041526      12.7411        17.5034      
      1300   305.93907     -34414.353     -2289.131       3347.5756      15.010704      12.7411        17.5034      
      1400   278.79711     -34390.769      2043.9129      3340.7017      14.979881      12.7411        17.5034      
      1500   316.62966     -34393.376      5655.3323      3333.8278      14.949058      12.7411        17.5034      
      1600   323.35511     -34366.415      10938.51       3326.954       14.918235      12.7411        17.5034      
      1700   308.99606     -34370.888     -1191.5272      3320.0801      14.887412      12.7411        17.5034      
      1800   311.8926      -34393.064     -5876.4772      3313.2062      14.85659       12.7411        17.5034      
      1900   317.12865     -34407.2        1983.9432      3306.3324      14.825767      12.7411        17.5034      
      2000   289.68347     -34384.783      7925.3999      3299.4585      14.794944      12.7411        17.5034      
      2100   302.91673     -34393.818      1.4123793      3292.5846      14.764121      12.7411        17.5034      
      2200   297.34251     -34413.207      10768.745      3285.7107      14.733298      12.7411        17.5034      
      2300   283.2258      -34410.455      7586.7693      3278.8369      14.702476      12.7411        17.5034      
      2400   276.93722     -34384.215     -3621.7188      3271.963       14.671653      12.7411        17.5034      
      2500   293.68918     -34378.915     -560.82018      3265.0891      14.64083       12.7411        17.5034      
      2600   322.09705     -34382.339      2820.4122      3258.2152      14.610007      12.7411        17.5034      
      2700   317.3503      -34382.11       7862.9497      3251.3414      14.579184      12.7411        17.5034      
      2800   304.52572     -34384.773      5588.7728      3244.4675      14.548362      12.7411        17.5034      
      2900   298.24743     -34381.468      5529.1801      3237.5936      14.517539      12.7411        17.5034      
      3000   294.06378     -34385.388     -2049.6009      3230.7198      14.486716      12.7411        17.5034      
      3100   307.42752     -34398.406      3538.1757      3223.8459      14.455893      12.7411        17.5034      
      3200   316.48532     -34400.851     -8598.5124      3216.972       14.42507       12.7411        17.5034      
      3300   292.8862      -34383.909      14270          3210.0981      14.394248      12.7411        17.5034      
      3400   307.98536     -34403.201      24357.929      3203.2243      14.363425      12.7411        17.5034      
      3500   298.03739     -34389.993      12608.02       3196.3504      14.332602      12.7411        17.5034      
      3600   310.6687      -34392.93       4216.6004      3189.4765      14.301779      12.7411        17.5034      
      3700   305.15237     -34391.056     -5080.0887      3182.6027      14.270956      12.7411        17.5034      
      3800   297.14326     -34395.984     -4057.6312      3175.7288      14.240134      12.7411        17.5034      
      3900   298.8737      -34394.797      20046.938      3168.8549      14.209311      12.7411        17.5034      
      4000   285.16248     -34378.352      8910.6064      3161.981       14.178488      12.7411        17.5034      
      4100   279.61305     -34396.778      7563.3413      3155.1072      14.147665      12.7411        17.5034      
      4200   271.62609     -34391.869      3134.16        3148.2333      14.116842      12.7411        17.5034      
      4300   301.304       -34386.826      5835.2957      3141.3594      14.08602       12.7411        17.5034      
      4400   314.35844     -34369.984      12309.083      3134.4856      14.055197      12.7411        17.5034      
      4500   315.0167      -34365.456      2548.5458      3127.6117      14.024374      12.7411        17.5034      
      4600   299.44924     -34377.432      10127.693      3120.7378      13.993551      12.7411        17.5034      
      4700   280.96568     -34362.127      24211.498      3113.8639      13.962728      12.7411        17.5034      
      4800   306.9551      -34366.446      1422.0139      3106.9901      13.931906      12.7411        17.5034      
      4900   331.72041     -34368.741      24886.262      3100.1162      13.901083      12.7411        17.5034      
      5000   314.90339     -34366.415      1632.7588      3093.2423      13.87026       12.7411        17.5034      
Loop time of 244.952 on 8 procs for 5000 steps with 310 atoms

Performance: 0.882 ns/day, 27.217 hours/ns, 20.412 timesteps/s, 6.328 katom-step/s
98.6% CPU use with 8 MPI tasks x 1 OpenMP threads

MPI task timing breakdown:
Section |  min time  |  avg time  |  max time  |%varavg| %total
---------------------------------------------------------------
Pair    | 146.78     | 180.6      | 200.28     | 149.6 | 73.73
Bond    | 0.0015097  | 0.0019779  | 0.0024169  |   0.6 |  0.00
Neigh   | 11.859     | 14.8       | 16.502     |  45.2 |  6.04
Comm    | 6.8574     | 26.615     | 60.485     | 390.5 | 10.87
Output  | 0.016549   | 0.019035   | 0.020773   |   1.0 |  0.01
Modify  | 21.164     | 22.808     | 25.708     |  35.6 |  9.31
Other   |            | 0.1044     |            |       |  0.04

Nlocal:          38.75 ave          42 max          33 min
Histogram: 1 0 1 0 0 1 1 1 1 2
Nghost:        3270.12 ave        3337 max        3212 min
Histogram: 2 0 0 1 2 0 1 0 1 1
Neighs:        27221.1 ave       29342 max       23451 min
Histogram: 1 0 1 0 0 1 1 1 1 2

Total # of neighbors = 217769
Ave neighs/atom = 702.48065
Ave special neighs/atom = 0
Neighbor list builds = 500
Dangerous builds not checked
OMP_NUM_THREADS environment is not set. Defaulting to 1 thread. (src/comm.cpp:98)
  using 1 OpenMP thread(s) per MPI task
Reading restart file ...
  restart file = 2 Aug 2023, LAMMPS = 2 Aug 2023
  restoring atom style full from restart
  triclinic box = (0 0 0) to (15.4114 12.7411 17.5034) with tilt (-7.2027 -1.8261 0.3384)
WARNING: Triclinic box skew is large. LAMMPS will run inefficiently. (src/domain.cpp:220)
  2 by 2 by 2 MPI processor grid
  pair style reaxff stores no restart info
  310 atoms
Finding 1-2 1-3 1-4 neighbors ...
  special bond factors lj:    0        0        0       
  special bond factors coul:  0        0        0       
     0 = max # of 1-2 neighbors
     0 = max # of 1-3 neighbors
     0 = max # of 1-4 neighbors
     1 = max # of special neighbors
  special bonds CPU = 0.000 seconds
  read_restart CPU = 0.004 seconds
*****Positive-deform 1 starts.*****
Resetting global fix info from restart file:
  fix style: nvt, fix ID: fnvt
All restart file global fix info was re-assigned
Neighbor list info ...
  update: every = 10 steps, delay = 0 steps, check = no
  max neighbors/atom: 2000, page size: 100000
  master list distance cutoff = 12
  ghost atom cutoff = 12
  binsize = 6, bins = 5 3 3
  2 neighbor lists, perpetual/occasional/extra = 2 0 0
  (1) pair reaxff, perpetual
      attributes: half, newton off, ghost
      pair build: half/bin/newtoff/ghost
      stencil: full/ghost/bin/3d
      bin: standard
  (2) fix qeq/reaxff, perpetual, copy from (1)
      attributes: half, newton off
      pair build: copy
      stencil: none
      bin: none
Setting up Verlet run ...
  Unit style    : real
  Current step  : 0
  Time step     : 0.5
Per MPI rank memory allocation (min/avg/max) = 118.7 | 119.6 | 120.1 Mbytes
   Step          Temp          PotEng         Press          Volume           Lx             Ly             Lz      
         0   295.8757      -34371.964     -25608.106      3436.9359      15.4114        12.7411        17.5034      
       100   312.52811     -34368.954     -9048.0187      3443.8098      15.442223      12.7411        17.5034      
       200   320.96334     -34388.617     -5178.3845      3450.6837      15.473046      12.7411        17.5034      
       300   303.39312     -34395.571     -10638.177      3457.5575      15.503868      12.7411        17.5034      
       400   314.00115     -34418.837     -1788.2648      3464.4314      15.534691      12.7411        17.5034      
       500   285.03744     -34398.303     -9582.5396      3471.3053      15.565514      12.7411        17.5034      
       600   278.59558     -34390.559     -1118.9009      3478.1791      15.596337      12.7411        17.5034      
       700   289.98426     -34389.775     -2197.0842      3485.053       15.62716       12.7411        17.5034      
       800   294.10311     -34372.604     -1731.7135      3491.9269      15.657982      12.7411        17.5034      
       900   316.07158     -34372.154     -5963.7874      3498.8008      15.688805      12.7411        17.5034      
      1000   308.7951      -34382.889      7975.8576      3505.6746      15.719628      12.7411        17.5034      
      1100   300.3111      -34397.803      1883.2134      3512.5485      15.750451      12.7411        17.5034      
      1200   312.60254     -34412.044     -15058.142      3519.4224      15.781274      12.7411        17.5034      
      1300   286.12453     -34388.841      3235.8782      3526.2963      15.812096      12.7411        17.5034      
      1400   284.81285     -34378.273     -3045.9822      3533.1701      15.842919      12.7411        17.5034      
      1500   312.91669     -34394.321     -11296.613      3540.044       15.873742      12.7411        17.5034      
      1600   303.18093     -34399.516      2786.7926      3546.9179      15.904565      12.7411        17.5034      
      1700   279.1117      -34393.756      1428.4425      3553.7917      15.935388      12.7411        17.5034      
      1800   295.87919     -34402.373     -9227.2276      3560.6656      15.96621       12.7411        17.5034      
      1900   309.87896     -34384.258     -8852.7399      3567.5395      15.997033      12.7411        17.5034      
      2000   322.64527     -34370.129      2442.7619      3574.4134      16.027856      12.7411        17.5034      
      2100   329.19753     -34380.529     -14467.434      3581.2872      16.058679      12.7411        17.5034      
      2200   310.09148     -34393.545     -19017.665      3588.1611      16.089502      12.7411        17.5034      
      2300   290.89372     -34383.69      -27295.185      3595.035       16.120324      12.7411        17.5034      
      2400   307.54831     -34403.52      -10446.371      3601.9088      16.151147      12.7411        17.5034      
      2500   286.23189     -34392.596      916.30573      3608.7827      16.18197       12.7411        17.5034      
      2600   290.6615      -34412.642     -15203.902      3615.6566      16.212793      12.7411        17.5034      
      2700   271.58015     -34402.612     -13246.602      3622.5305      16.243616      12.7411        17.5034      
      2800   293.14958     -34405.102     -6182.0426      3629.4043      16.274438      12.7411        17.5034      
      2900   299.33894     -34393.575     -15680.63       3636.2782      16.305261      12.7411        17.5034      
      3000   298.28118     -34385.317     -206.80525      3643.1521      16.336084      12.7411        17.5034      
      3100   301.99916     -34388.135     -7952.163       3650.0259      16.366907      12.7411        17.5034      
      3200   308.5398      -34416.901     -4950.7618      3656.8998      16.39773       12.7411        17.5034      
      3300   280.25172     -34402.016     -13519.762      3663.7737      16.428552      12.7411        17.5034      
      3400   300.86296     -34404.871     -6476.4648      3670.6476      16.459375      12.7411        17.5034      
      3500   311.96684     -34390.89      -24576.631      3677.5214      16.490198      12.7411        17.5034      
      3600   326.24821     -34399.426     -22337.899      3684.3953      16.521021      12.7411        17.5034      
      3700   280.43501     -34360.123     -14973.416      3691.2692      16.551844      12.7411        17.5034      
      3800   312.77174     -34385.564     -20596.164      3698.143       16.582666      12.7411        17.5034      
      3900   294.37479     -34377.093     -8625.5334      3705.0169      16.613489      12.7411        17.5034      
      4000   272.22709     -34377.795     -14262.88       3711.8908      16.644312      12.7411        17.5034      
      4100   293.22091     -34397.756     -11609.294      3718.7647      16.675135      12.7411        17.5034      
      4200   314.59758     -34402.639     -6425.5385      3725.6385      16.705958      12.7411        17.5034      
      4300   313.26338     -34378.609     -11949.602      3732.5124      16.73678       12.7411        17.5034      
      4400   328.36314     -34374.886     -2033.336       3739.3863      16.767603      12.7411        17.5034      
      4500   320.19044     -34395.223     -14711.393      3746.2601      16.798426      12.7411        17.5034      
      4600   294.0826      -34384.609     -7766.8383      3753.134       16.829249      12.7411        17.5034      
      4700   306.4409      -34396.732     -8472.3849      3760.0079      16.860072      12.7411        17.5034      
      4800   292.79369     -34383.649     -8752.7609      3766.8818      16.890894      12.7411        17.5034      
      4900   284.20569     -34395.878     -23197.92       3773.7556      16.921717      12.7411        17.5034      
      5000   280.67064     -34396.782     -9434.8996      3780.6295      16.95254       12.7411        17.5034      
Loop time of 218.973 on 8 procs for 5000 steps with 310 atoms

Performance: 0.986 ns/day, 24.330 hours/ns, 22.834 timesteps/s, 7.078 katom-step/s
98.7% CPU use with 8 MPI tasks x 1 OpenMP threads

MPI task timing breakdown:
Section |  min time  |  avg time  |  max time  |%varavg| %total
---------------------------------------------------------------
Pair    | 116.87     | 166.9      | 183.35     | 152.0 | 76.22
Bond    | 0.0015263  | 0.0019695  | 0.002479   |   0.7 |  0.00
Neigh   | 8.9316     | 12.617     | 13.794     |  40.6 |  5.76
Comm    | 1.6536     | 18.136     | 68.116     | 460.9 |  8.28
Output  | 0.016386   | 0.018522   | 0.020555   |   1.0 |  0.01
Modify  | 20.039     | 21.206     | 24.947     |  31.8 |  9.68
Other   |            | 0.09809    |            |       |  0.04

Nlocal:          38.75 ave          47 max          31 min
Histogram: 1 0 0 2 0 3 1 0 0 1
Nghost:        2906.12 ave        2983 max        2822 min
Histogram: 2 0 0 0 0 4 0 0 0 2
Neighs:        22231.2 ave       26491 max       17922 min
Histogram: 1 0 0 1 1 3 1 0 0 1

Total # of neighbors = 177850
Ave neighs/atom = 573.70968
Ave special neighs/atom = 0
Neighbor list builds = 500
Dangerous builds not checked
OMP_NUM_THREADS environment is not set. Defaulting to 1 thread. (src/comm.cpp:98)
  using 1 OpenMP thread(s) per MPI task
Reading restart file ...
  restart file = 2 Aug 2023, LAMMPS = 2 Aug 2023
  restoring atom style full from restart
  triclinic box = (0 0 0) to (15.4114 12.7411 17.5034) with tilt (-7.2027 -1.8261 0.3384)
WARNING: Triclinic box skew is large. LAMMPS will run inefficiently. (src/domain.cpp:220)
  2 by 2 by 2 MPI processor grid
  pair style reaxff stores no restart info
  310 atoms
Finding 1-2 1-3 1-4 neighbors ...
  special bond factors lj:    0        0        0       
  special bond factors coul:  0        0        0       
     0 = max # of 1-2 neighbors
     0 = max # of 1-3 neighbors
     0 = max # of 1-4 neighbors
     1 = max # of special neighbors
  special bonds CPU = 0.000 seconds
  read_restart CPU = 0.003 seconds
*****debug*****
xy = -7.2027000000000001023, deltaxy = 0.72027
xz = -1.8261000000000000565, deltaxz = 0.18261
yz = 0.33839999999999997859, deltayz = -0.03384
*****
*****Negative-deform 2 starts.*****
Resetting global fix info from restart file:
  fix style: nvt, fix ID: fnvt
All restart file global fix info was re-assigned
Neighbor list info ...
  update: every = 10 steps, delay = 0 steps, check = no
  max neighbors/atom: 2000, page size: 100000
  master list distance cutoff = 12
  ghost atom cutoff = 12
  binsize = 6, bins = 5 3 3
  2 neighbor lists, perpetual/occasional/extra = 2 0 0
  (1) pair reaxff, perpetual
      attributes: half, newton off, ghost
      pair build: half/bin/newtoff/ghost
      stencil: full/ghost/bin/3d
      bin: standard
  (2) fix qeq/reaxff, perpetual, copy from (1)
      attributes: half, newton off
      pair build: copy
      stencil: none
      bin: none
Setting up Verlet run ...
  Unit style    : real
  Current step  : 0
  Time step     : 0.5
Per MPI rank memory allocation (min/avg/max) = 118.7 | 119.5 | 120.1 Mbytes
   Step          Temp          PotEng         Press          Volume           Lx             Ly             Lz      
         0   295.8757      -34371.964     -25608.106      3436.9359      15.4114        12.7411        17.5034      
       100   312.7625      -34369.051     -8932.891       3430.062       15.4114        12.715618      17.5034      
       200   313.41467     -34384.886     -8153.3759      3423.1882      15.4114        12.690136      17.5034      
       300   287.70157     -34390.825      7364.0184      3416.3143      15.4114        12.664653      17.5034      
       400   281.76308     -34394.899     -781.53623      3409.4404      15.4114        12.639171      17.5034      
       500   310.18565     -34417.819     -1960.7504      3402.5666      15.4114        12.613689      17.5034      
       600   308.65631     -34412.48       304.45083      3395.6927      15.4114        12.588207      17.5034      
       700   307.00932     -34428.172      841.75574      3388.8188      15.4114        12.562725      17.5034      
       800   282.91592     -34416.714     -5633.8971      3381.9449      15.4114        12.537242      17.5034      
       900   299.95859     -34429.465      5881.7754      3375.0711      15.4114        12.51176       17.5034      
      1000   293.50901     -34413.39       227.09234      3368.1972      15.4114        12.486278      17.5034      
      1100   319.70286     -34404.274     -15414.236      3361.3233      15.4114        12.460796      17.5034      
      1200   333.34362     -34392.235     -4591.0526      3354.4495      15.4114        12.435314      17.5034      
      1300   311.81931     -34394.011     -13476.898      3347.5756      15.4114        12.409831      17.5034      
      1400   295.40899     -34401.418     -5509.9483      3340.7017      15.4114        12.384349      17.5034      
      1500   287.70476     -34406.03       2278.9935      3333.8278      15.4114        12.358867      17.5034      
      1600   307.95389     -34429.933     -5706.4889      3326.954       15.4114        12.333385      17.5034      
      1700   294.8334      -34421.372      1293.7287      3320.0801      15.4114        12.307903      17.5034      
      1800   306.60736     -34440.113      11330.16       3313.2062      15.4114        12.28242       17.5034      
      1900   288.0743      -34442.26       4135.1799      3306.3324      15.4114        12.256938      17.5034      
      2000   271.02554     -34417.714      781.06587      3299.4585      15.4114        12.231456      17.5034      
      2100   278.6128      -34390.598      12603.245      3292.5846      15.4114        12.205974      17.5034      
      2200   307.80752     -34398.844      8492.256       3285.7107      15.4114        12.180492      17.5034      
      2300   292.53843     -34386.709     -3842.9765      3278.8369      15.4114        12.155009      17.5034      
      2400   280.27878     -34392.998     -9575.155       3271.963       15.4114        12.129527      17.5034      
      2500   288.6678      -34408.607     -4714.5169      3265.0891      15.4114        12.104045      17.5034      
      2600   283.67936     -34394.508      9584.8582      3258.2152      15.4114        12.078563      17.5034      
      2700   300.59801     -34395.272      4094.5757      3251.3414      15.4114        12.053081      17.5034      
      2800   332.09099     -34381.739      10136.069      3244.4675      15.4114        12.027598      17.5034      
      2900   322.81425     -34391.32       11198.654      3237.5936      15.4114        12.002116      17.5034      
      3000   301.56588     -34394.737      5650.4319      3230.7198      15.4114        11.976634      17.5034      
      3100   296.34913     -34403.849     -728.50525      3223.8459      15.4114        11.951152      17.5034      
      3200   289.24483     -34400.989     -146.15304      3216.972       15.4114        11.92567       17.5034      
      3300   298.63057     -34411.491      5197.3956      3210.0981      15.4114        11.900187      17.5034      
      3400   312.71002     -34404.575      30.890143      3203.2243      15.4114        11.874705      17.5034      
      3500   304.10901     -34370.778      12422.478      3196.3504      15.4114        11.849223      17.5034      
      3600   300.39049     -34368.929      3520.2161      3189.4765      15.4114        11.823741      17.5034      
      3700   308.95437     -34408.174      540.61918      3182.6027      15.4114        11.798259      17.5034      
      3800   295.58495     -34405.584      4744.2502      3175.7288      15.4114        11.772776      17.5034      
      3900   289.52663     -34396.395      3831.8147      3168.8549      15.4114        11.747294      17.5034      
      4000   306.56579     -34397.947     -5452.7192      3161.981       15.4114        11.721812      17.5034      
      4100   329.96783     -34394.517      195.8923       3155.1072      15.4114        11.69633       17.5034      
      4200   296.55383     -34384.085      14857.081      3148.2333      15.4114        11.670848      17.5034      
      4300   290.85215     -34395.526      14642.336      3141.3594      15.4114        11.645365      17.5034      
      4400   286.79798     -34401.662      9105.9981      3134.4856      15.4114        11.619883      17.5034      
      4500   307.77683     -34422.36       5552.4224      3127.6117      15.4114        11.594401      17.5034      
      4600   277.71659     -34388.462      11853.897      3120.7378      15.4114        11.568919      17.5034      
      4700   293.71567     -34401.894      10593.54       3113.8639      15.4114        11.543437      17.5034      
      4800   290.656       -34386.935      16698.979      3106.9901      15.4114        11.517954      17.5034      
      4900   311.93187     -34402.263      19061.982      3100.1162      15.4114        11.492472      17.5034      
      5000   306.40244     -34421.784      6050.038       3093.2423      15.4114        11.46699       17.5034      
Loop time of 250.958 on 8 procs for 5000 steps with 310 atoms

Performance: 0.861 ns/day, 27.884 hours/ns, 19.924 timesteps/s, 6.176 katom-step/s
98.8% CPU use with 8 MPI tasks x 1 OpenMP threads

MPI task timing breakdown:
Section |  min time  |  avg time  |  max time  |%varavg| %total
---------------------------------------------------------------
Pair    | 138.76     | 195.69     | 212.15     | 157.8 | 77.98
Bond    | 0.0014632  | 0.0020261  | 0.0024705  |   0.8 |  0.00
Neigh   | 10.335     | 14.639     | 15.867     |  43.3 |  5.83
Comm    | 1.635      | 18.122     | 75.002     | 518.0 |  7.22
Output  | 0.017149   | 0.019283   | 0.021441   |   1.0 |  0.01
Modify  | 21.16      | 22.382     | 26.752     |  35.6 |  8.92
Other   |            | 0.1019     |            |       |  0.04

Nlocal:          38.75 ave          45 max          35 min
Histogram: 2 1 1 1 0 1 0 0 0 2
Nghost:         3461.5 ave        3489 max        3425 min
Histogram: 2 0 0 0 1 1 0 1 2 1
Neighs:        27246.6 ave       31536 max       24600 min
Histogram: 2 1 1 1 1 0 0 0 1 1

Total # of neighbors = 217973
Ave neighs/atom = 703.13871
Ave special neighs/atom = 0
Neighbor list builds = 500
Dangerous builds not checked
OMP_NUM_THREADS environment is not set. Defaulting to 1 thread. (src/comm.cpp:98)
  using 1 OpenMP thread(s) per MPI task
Reading restart file ...
  restart file = 2 Aug 2023, LAMMPS = 2 Aug 2023
  restoring atom style full from restart
  triclinic box = (0 0 0) to (15.4114 12.7411 17.5034) with tilt (-7.2027 -1.8261 0.3384)
WARNING: Triclinic box skew is large. LAMMPS will run inefficiently. (src/domain.cpp:220)
  2 by 2 by 2 MPI processor grid
  pair style reaxff stores no restart info
  310 atoms
Finding 1-2 1-3 1-4 neighbors ...
  special bond factors lj:    0        0        0       
  special bond factors coul:  0        0        0       
     0 = max # of 1-2 neighbors
     0 = max # of 1-3 neighbors
     0 = max # of 1-4 neighbors
     1 = max # of special neighbors
  special bonds CPU = 0.000 seconds
  read_restart CPU = 0.003 seconds
*****Positive-deform 2 starts.*****
Resetting global fix info from restart file:
  fix style: nvt, fix ID: fnvt
All restart file global fix info was re-assigned
Neighbor list info ...
  update: every = 10 steps, delay = 0 steps, check = no
  max neighbors/atom: 2000, page size: 100000
  master list distance cutoff = 12
  ghost atom cutoff = 12
  binsize = 6, bins = 5 3 3
  2 neighbor lists, perpetual/occasional/extra = 2 0 0
  (1) pair reaxff, perpetual
      attributes: half, newton off, ghost
      pair build: half/bin/newtoff/ghost
      stencil: full/ghost/bin/3d
      bin: standard
  (2) fix qeq/reaxff, perpetual, copy from (1)
      attributes: half, newton off
      pair build: copy
      stencil: none
      bin: none
Setting up Verlet run ...
  Unit style    : real
  Current step  : 0
  Time step     : 0.5
Per MPI rank memory allocation (min/avg/max) = 118.7 | 119.6 | 120.1 Mbytes
   Step          Temp          PotEng         Press          Volume           Lx             Ly             Lz      
         0   295.8757      -34371.964     -25608.106      3436.9359      15.4114        12.7411        17.5034      
       100   312.04603     -34368.84      -8927.6742      3443.8098      15.4114        12.766582      17.5034      
       200   313.10723     -34383.921     -11079.551      3450.6837      15.4114        12.792064      17.5034      
       300   312.55087     -34405.579     -7841.6873      3457.5575      15.4114        12.817547      17.5034      
       400   300.81642     -34407.884      5992.7944      3464.4314      15.4114        12.843029      17.5034      
       500   301.80469     -34409.479     -16638.812      3471.3053      15.4114        12.868511      17.5034      
       600   311.43699     -34403.588     -786.86141      3478.1791      15.4114        12.893993      17.5034      
       700   307.03012     -34368.245     -12867.061      3485.053       15.4114        12.919475      17.5034      
       800   311.42887     -34358.443     -14999.672      3491.9269      15.4114        12.944958      17.5034      
       900   331.18182     -34410.528     -11301.792      3498.8008      15.4114        12.97044       17.5034      
      1000   300.96831     -34397.38      -7672.9953      3505.6746      15.4114        12.995922      17.5034      
      1100   299.53035     -34404.43      -11495.588      3512.5485      15.4114        13.021404      17.5034      
      1200   260.86556     -34362.205     -1618.6848      3519.4224      15.4114        13.046886      17.5034      
      1300   290.37177     -34370.159     -3969.9029      3526.2963      15.4114        13.072369      17.5034      
      1400   308.43109     -34366.187     -7411.5154      3533.1701      15.4114        13.097851      17.5034      
      1500   321.90104     -34362.573     -18273.938      3540.044       15.4114        13.123333      17.5034      
      1600   327.70052     -34384.719     -19304.008      3546.9179      15.4114        13.148815      17.5034      
      1700   309.95507     -34392.9       -21204.347      3553.7917      15.4114        13.174297      17.5034      
      1800   290.27955     -34373.836     -25083.077      3560.6656      15.4114        13.19978       17.5034      
      1900   286.27526     -34366.367     -11580.065      3567.5395      15.4114        13.225262      17.5034      
      2000   291.38184     -34374.96      -10291.584      3574.4134      15.4114        13.250744      17.5034      
      2100   295.25742     -34402.905     -12485.626      3581.2872      15.4114        13.276226      17.5034      
      2200   301.65222     -34407.709     -16427.406      3588.1611      15.4114        13.301708      17.5034      
      2300   315.02103     -34406.802     -3968.3975      3595.035       15.4114        13.327191      17.5034      
      2400   297.01538     -34364.518     -8437.2669      3601.9088      15.4114        13.352673      17.5034      
      2500   331.25689     -34359.164     -17661.427      3608.7827      15.4114        13.378155      17.5034      
      2600   325.14508     -34340.085     -16703.974      3615.6566      15.4114        13.403637      17.5034      
      2700   301.94058     -34347.713     -19102.763      3622.5305      15.4114        13.429119      17.5034      
      2800   302.44978     -34358.115     -3327.3288      3629.4043      15.4114        13.454602      17.5034      
      2900   291.06779     -34371.328      663.80236      3636.2782      15.4114        13.480084      17.5034      
      3000   285.17145     -34370.271     -19889.43       3643.1521      15.4114        13.505566      17.5034      
      3100   280.93137     -34369.036     -6104.5979      3650.0259      15.4114        13.531048      17.5034      
      3200   295.56453     -34385.606     -11763.399      3656.8998      15.4114        13.55653       17.5034      
      3300   292.43709     -34394.507     -21757.85       3663.7737      15.4114        13.582013      17.5034      
      3400   282.43039     -34390.655      31.604146      3670.6476      15.4114        13.607495      17.5034      
      3500   281.27498     -34385.007     -17900.438      3677.5214      15.4114        13.632977      17.5034      
      3600   300.34657     -34376.041     -16440.967      3684.3953      15.4114        13.658459      17.5034      
      3700   327.02373     -34367.694     -14398.669      3691.2692      15.4114        13.683941      17.5034      
      3800   321.97462     -34374.332     -14882.464      3698.143       15.4114        13.709424      17.5034      
      3900   313.10785     -34385.098     -13672.083      3705.0169      15.4114        13.734906      17.5034      
      4000   300.39236     -34373.527      6871.108       3711.8908      15.4114        13.760388      17.5034      
      4100   302.4832      -34382.86      -7734.1896      3718.7647      15.4114        13.78587       17.5034      
      4200   288.47471     -34366.389     -8344.6081      3725.6385      15.4114        13.811352      17.5034      
      4300   317.33079     -34377.266     -15066.052      3732.5124      15.4114        13.836835      17.5034      
      4400   304.64506     -34357.978     -27290.895      3739.3863      15.4114        13.862317      17.5034      
      4500   291.4349      -34361.152     -20021.329      3746.2601      15.4114        13.887799      17.5034      
      4600   299.00444     -34372.501     -14707.817      3753.134       15.4114        13.913281      17.5034      
      4700   303.0578      -34379.481     -15350.417      3760.0079      15.4114        13.938763      17.5034      
      4800   310.05887     -34391.231     -14847.48       3766.8818      15.4114        13.964246      17.5034      
      4900   271.88325     -34375.963     -12800.435      3773.7556      15.4114        13.989728      17.5034      
      5000   292.02126     -34398.716      4590.8688      3780.6295      15.4114        14.01521       17.5034      
Loop time of 215.509 on 8 procs for 5000 steps with 310 atoms

Performance: 1.002 ns/day, 23.945 hours/ns, 23.201 timesteps/s, 7.192 katom-step/s
98.7% CPU use with 8 MPI tasks x 1 OpenMP threads

MPI task timing breakdown:
Section |  min time  |  avg time  |  max time  |%varavg| %total
---------------------------------------------------------------
Pair    | 116.5      | 165.53     | 180.66     | 150.4 | 76.81
Bond    | 0.0015102  | 0.0019946  | 0.002444   |   0.6 |  0.00
Neigh   | 8.7365     | 12.225     | 13.341     |  38.9 |  5.67
Comm    | 1.5457     | 16.698     | 65.679     | 473.1 |  7.75
Output  | 0.016539   | 0.018546   | 0.020588   |   1.0 |  0.01
Modify  | 19.821     | 20.937     | 24.488     |  30.2 |  9.72
Other   |            | 0.09834    |            |       |  0.05

Nlocal:          38.75 ave          43 max          34 min
Histogram: 1 0 1 1 1 0 1 2 0 1
Nghost:        2837.75 ave        2860 max        2811 min
Histogram: 1 1 0 2 0 0 0 1 1 2
Neighs:        22230.9 ave       24518 max       19686 min
Histogram: 1 0 1 1 1 0 1 2 0 1

Total # of neighbors = 177847
Ave neighs/atom = 573.7
Ave special neighs/atom = 0
Neighbor list builds = 500
Dangerous builds not checked
OMP_NUM_THREADS environment is not set. Defaulting to 1 thread. (src/comm.cpp:98)
  using 1 OpenMP thread(s) per MPI task
Reading restart file ...
  restart file = 2 Aug 2023, LAMMPS = 2 Aug 2023
  restoring atom style full from restart
  triclinic box = (0 0 0) to (15.4114 12.7411 17.5034) with tilt (-7.2027 -1.8261 0.3384)
WARNING: Triclinic box skew is large. LAMMPS will run inefficiently. (src/domain.cpp:220)
  2 by 2 by 2 MPI processor grid
  pair style reaxff stores no restart info
  310 atoms
Finding 1-2 1-3 1-4 neighbors ...
  special bond factors lj:    0        0        0       
  special bond factors coul:  0        0        0       
     0 = max # of 1-2 neighbors
     0 = max # of 1-3 neighbors
     0 = max # of 1-4 neighbors
     1 = max # of special neighbors
  special bonds CPU = 0.000 seconds
  read_restart CPU = 0.004 seconds
*****debug*****
xy = -7.2027000000000001023, deltaxy = 0.72027
xz = -1.8261000000000000565, deltaxz = 0.18261
yz = 0.33839999999999997859, deltayz = -0.03384
*****
*****Negative-deform 3 starts.*****
Resetting global fix info from restart file:
  fix style: nvt, fix ID: fnvt
All restart file global fix info was re-assigned
Neighbor list info ...
  update: every = 10 steps, delay = 0 steps, check = no
  max neighbors/atom: 2000, page size: 100000
  master list distance cutoff = 12
  ghost atom cutoff = 12
  binsize = 6, bins = 5 3 3
  2 neighbor lists, perpetual/occasional/extra = 2 0 0
  (1) pair reaxff, perpetual
      attributes: half, newton off, ghost
      pair build: half/bin/newtoff/ghost
      stencil: full/ghost/bin/3d
      bin: standard
  (2) fix qeq/reaxff, perpetual, copy from (1)
      attributes: half, newton off
      pair build: copy
      stencil: none
      bin: none
Setting up Verlet run ...
  Unit style    : real
  Current step  : 0
  Time step     : 0.5
Per MPI rank memory allocation (min/avg/max) = 118.7 | 119.5 | 120.1 Mbytes
   Step          Temp          PotEng         Press          Volume           Lx             Ly             Lz      
         0   295.8757      -34371.964     -25608.106      3436.9359      15.4114        12.7411        17.5034      
       100   312.95325     -34368.807     -8974.427       3430.062       15.4114        12.7411        17.468393    
       200   308.51209     -34380.68      -13377.809      3423.1882      15.4114        12.7411        17.433386    
       300   300.92063     -34402.135     -995.63054      3416.3143      15.4114        12.7411        17.39838     
       400   304.71965     -34415.097     -2055.1969      3409.4404      15.4114        12.7411        17.363373    
       500   288.02681     -34401.878     -2985.7544      3402.5666      15.4114        12.7411        17.328366    
       600   300.04727     -34416.151      12395.89       3395.6927      15.4114        12.7411        17.293359    
       700   286.73183     -34405.64       5744.4584      3388.8188      15.4114        12.7411        17.258352    
       800   275.27147     -34397.746     -3486.3216      3381.9449      15.4114        12.7411        17.223346    
       900   300.40238     -34431.112      1269.1044      3375.0711      15.4114        12.7411        17.188339    
      1000   300.60497     -34443.378      3399.9984      3368.1972      15.4114        12.7411        17.153332    
      1100   302.75486     -34438.433     -3798.6889      3361.3233      15.4114        12.7411        17.118325    
      1200   301.53213     -34425.632     -7946.6384      3354.4495      15.4114        12.7411        17.083318    
      1300   329.11416     -34397.894      324.74863      3347.5756      15.4114        12.7411        17.048312    
      1400   319.42108     -34391.12      -8620.3063      3340.7017      15.4114        12.7411        17.013305    
      1500   310.9639      -34412.009      405.18069      3333.8278      15.4114        12.7411        16.978298    
      1600   295.49139     -34408.695     -8662.1552      3326.954       15.4114        12.7411        16.943291    
      1700   290.72798     -34423.626      1308.9858      3320.0801      15.4114        12.7411        16.908284    
      1800   279.92871     -34423.491      10681.888      3313.2062      15.4114        12.7411        16.873278    
      1900   298.72332     -34434.878      2881.7349      3306.3324      15.4114        12.7411        16.838271    
      2000   282.71984     -34422.498     -1826.181       3299.4585      15.4114        12.7411        16.803264    
      2100   294.83972     -34449.18      -478.78209      3292.5846      15.4114        12.7411        16.768257    
      2200   282.12579     -34442.462      13796.078      3285.7107      15.4114        12.7411        16.73325     
      2300   296.84034     -34428.204      2836.3544      3278.8369      15.4114        12.7411        16.698244    
      2400   308.42266     -34416.193      7849.7837      3271.963       15.4114        12.7411        16.663237    
      2500   306.38399     -34422.242     -4961.8749      3265.0891      15.4114        12.7411        16.62823     
      2600   300.59475     -34437.398     -5032.3939      3258.2152      15.4114        12.7411        16.593223    
      2700   321.5937      -34457.376      9089.0017      3251.3414      15.4114        12.7411        16.558216    
      2800   297.93355     -34435.575     -3225.6466      3244.4675      15.4114        12.7411        16.52321     
      2900   303.88891     -34448.563      2677.2357      3237.5936      15.4114        12.7411        16.488203    
      3000   298.86978     -34458.541      12765.459      3230.7198      15.4114        12.7411        16.453196    
      3100   286.89948     -34458.556      3192.5646      3223.8459      15.4114        12.7411        16.418189    
      3200   277.61877     -34444.835     -1510.6061      3216.972       15.4114        12.7411        16.383182    
      3300   326.71356     -34440.24      -1442.4416      3210.0981      15.4114        12.7411        16.348176    
      3400   311.40046     -34418.853     -7286.1571      3203.2243      15.4114        12.7411        16.313169    
      3500   300.77675     -34424.028      21520.952      3196.3504      15.4114        12.7411        16.278162    
      3600   286.88618     -34425.196      5163.6617      3189.4765      15.4114        12.7411        16.243155    
      3700   299.2143      -34443.279      7902.139       3182.6027      15.4114        12.7411        16.208148    
      3800   300.87188     -34443.119      2579.4997      3175.7288      15.4114        12.7411        16.173142    
      3900   306.48836     -34455.637      9966.6893      3168.8549      15.4114        12.7411        16.138135    
      4000   271.20936     -34441.638      1187.5772      3161.981       15.4114        12.7411        16.103128    
      4100   293.16304     -34451.484      18683.774      3155.1072      15.4114        12.7411        16.068121    
      4200   294.01599     -34436.051      811.48783      3148.2333      15.4114        12.7411        16.033114    
      4300   298.84682     -34442.765      7782.9707      3141.3594      15.4114        12.7411        15.998108    
      4400   291.44101     -34452.523      16666.058      3134.4856      15.4114        12.7411        15.963101    
      4500   273.97303     -34438.444     -1668.3601      3127.6117      15.4114        12.7411        15.928094    
      4600   291.7275      -34433.263     -2887.4994      3120.7378      15.4114        12.7411        15.893087    
      4700   306.81351     -34420.416      5365.5235      3113.8639      15.4114        12.7411        15.85808     
      4800   309.95633     -34418.402      22180.72       3106.9901      15.4114        12.7411        15.823074    
      4900   312.85447     -34430.023      16657.127      3100.1162      15.4114        12.7411        15.788067    
      5000   299.14692     -34422.705      10184.054      3093.2423      15.4114        12.7411        15.75306     
Loop time of 240.301 on 8 procs for 5000 steps with 310 atoms

Performance: 0.899 ns/day, 26.700 hours/ns, 20.807 timesteps/s, 6.450 katom-step/s
98.9% CPU use with 8 MPI tasks x 1 OpenMP threads

MPI task timing breakdown:
Section |  min time  |  avg time  |  max time  |%varavg| %total
---------------------------------------------------------------
Pair    | 140.32     | 184.9      | 203        | 181.2 | 76.95
Bond    | 0.0015789  | 0.0019899  | 0.002375   |   0.6 |  0.00
Neigh   | 10.237     | 13.489     | 14.9       |  50.6 |  5.61
Comm    | 2.6444     | 20.766     | 65.358     | 540.7 |  8.64
Output  | 0.01591    | 0.018665   | 0.020799   |   1.2 |  0.01
Modify  | 19.585     | 21.018     | 24.299     |  40.8 |  8.75
Other   |            | 0.1043     |            |       |  0.04

Nlocal:          38.75 ave          49 max          31 min
Histogram: 1 0 0 4 1 1 0 0 0 1
Nghost:         3398.5 ave        3433 max        3352 min
Histogram: 1 1 1 0 1 0 0 0 1 3
Neighs:          27281 ave       34117 max       21940 min
Histogram: 1 0 0 3 2 1 0 0 0 1

Total # of neighbors = 218248
Ave neighs/atom = 704.02581
Ave special neighs/atom = 0
Neighbor list builds = 500
Dangerous builds not checked
OMP_NUM_THREADS environment is not set. Defaulting to 1 thread. (src/comm.cpp:98)
  using 1 OpenMP thread(s) per MPI task
Reading restart file ...
  restart file = 2 Aug 2023, LAMMPS = 2 Aug 2023
  restoring atom style full from restart
  triclinic box = (0 0 0) to (15.4114 12.7411 17.5034) with tilt (-7.2027 -1.8261 0.3384)
WARNING: Triclinic box skew is large. LAMMPS will run inefficiently. (src/domain.cpp:220)
  2 by 2 by 2 MPI processor grid
  pair style reaxff stores no restart info
  310 atoms
Finding 1-2 1-3 1-4 neighbors ...
  special bond factors lj:    0        0        0       
  special bond factors coul:  0        0        0       
     0 = max # of 1-2 neighbors
     0 = max # of 1-3 neighbors
     0 = max # of 1-4 neighbors
     1 = max # of special neighbors
  special bonds CPU = 0.000 seconds
  read_restart CPU = 0.003 seconds
*****Positive-deform 3 starts.*****
Resetting global fix info from restart file:
  fix style: nvt, fix ID: fnvt
All restart file global fix info was re-assigned
Neighbor list info ...
  update: every = 10 steps, delay = 0 steps, check = no
  max neighbors/atom: 2000, page size: 100000
  master list distance cutoff = 12
  ghost atom cutoff = 12
  binsize = 6, bins = 5 3 3
  2 neighbor lists, perpetual/occasional/extra = 2 0 0
  (1) pair reaxff, perpetual
      attributes: half, newton off, ghost
      pair build: half/bin/newtoff/ghost
      stencil: full/ghost/bin/3d
      bin: standard
  (2) fix qeq/reaxff, perpetual, copy from (1)
      attributes: half, newton off
      pair build: copy
      stencil: none
      bin: none
Setting up Verlet run ...
  Unit style    : real
  Current step  : 0
  Time step     : 0.5
Per MPI rank memory allocation (min/avg/max) = 118.7 | 119.5 | 120.1 Mbytes
   Step          Temp          PotEng         Press          Volume           Lx             Ly             Lz      
         0   295.8757      -34371.964     -25608.106      3436.9359      15.4114        12.7411        17.5034      
       100   312.05582     -34369.17      -8807.0195      3443.8098      15.4114        12.7411        17.538407    
       200   317.27958     -34384.083      1554.3266      3450.6837      15.4114        12.7411        17.573414    
       300   308.89226     -34403.154     -1973.9326      3457.5575      15.4114        12.7411        17.60842     
       400   289.04691     -34396.188     -13968.368      3464.4314      15.4114        12.7411        17.643427    
       500   282.40704     -34390.526     -11128.297      3471.3053      15.4114        12.7411        17.678434    
       600   284.93626     -34386.373     -10843.541      3478.1791      15.4114        12.7411        17.713441    
       700   289.11855     -34398.657     -1640.9937      3485.053       15.4114        12.7411        17.748448    
       800   303.61628     -34409.625     -14209.261      3491.9269      15.4114        12.7411        17.783454    
       900   293.46755     -34404.026     -10535.307      3498.8008      15.4114        12.7411        17.818461    
      1000   286.01804     -34394.995      2914.1193      3505.6746      15.4114        12.7411        17.853468    
      1100   316.24178     -34397.676     -3760.0264      3512.5485      15.4114        12.7411        17.888475    
      1200   318.53524     -34371.194     -15201.143      3519.4224      15.4114        12.7411        17.923482    
      1300   287.92605     -34339.485     -3074.2402      3526.2963      15.4114        12.7411        17.958488    
      1400   296.49441     -34379.533     -18136.323      3533.1701      15.4114        12.7411        17.993495    
      1500   298.69275     -34380.565     -12388.014      3540.044       15.4114        12.7411        18.028502    
      1600   338.21096     -34411.277      1007.6929      3546.9179      15.4114        12.7411        18.063509    
      1700   291.08806     -34382.765     -12664.569      3553.7917      15.4114        12.7411        18.098516    
      1800   296.51927     -34390.468     -7717.0362      3560.6656      15.4114        12.7411        18.133522    
      1900   284.91101     -34379.958      860.28101      3567.5395      15.4114        12.7411        18.168529    
      2000   275.97452     -34388.929     -16742.458      3574.4134      15.4114        12.7411        18.203536    
      2100   278.45336     -34391.822     -7693.2262      3581.2872      15.4114        12.7411        18.238543    
      2200   294.78577     -34373.295     -11680.745      3588.1611      15.4114        12.7411        18.27355     
      2300   316.9914      -34361.746     -737.86246      3595.035       15.4114        12.7411        18.308556    
      2400   308.21748     -34361.252     -13134.689      3601.9088      15.4114        12.7411        18.343563    
      2500   331.95192     -34399.833     -10127.884      3608.7827      15.4114        12.7411        18.37857     
      2600   293.60603     -34371.519     -21107.039      3615.6566      15.4114        12.7411        18.413577    
      2700   303.07662     -34384.774     -3953.3414      3622.5305      15.4114        12.7411        18.448584    
      2800   306.3326      -34394.162     -18753.272      3629.4043      15.4114        12.7411        18.48359     
      2900   291.58836     -34398.738     -16737.012      3636.2782      15.4114        12.7411        18.518597    
      3000   263.55354     -34385.991     -16115.015      3643.1521      15.4114        12.7411        18.553604    
      3100   279.84697     -34396.556     -27294.763      3650.0259      15.4114        12.7411        18.588611    
      3200   293.72844     -34366.325     -8885.6525      3656.8998      15.4114        12.7411        18.623618    
      3300   302.35482     -34344.246     -50.423667      3663.7737      15.4114        12.7411        18.658624    
      3400   311.15875     -34351.191     -10160.422      3670.6476      15.4114        12.7411        18.693631    
      3500   313.83981     -34364.915     -2512.4736      3677.5214      15.4114        12.7411        18.728638    
      3600   297.73665     -34364.736     -9791.1847      3684.3953      15.4114        12.7411        18.763645    
      3700   298.2125      -34362.095     -2317.4073      3691.2692      15.4114        12.7411        18.798652    
      3800   306.6524      -34366.135     -13853.918      3698.143       15.4114        12.7411        18.833658    
      3900   302.06853     -34352.335     -22951.68       3705.0169      15.4114        12.7411        18.868665    
      4000   320.79185     -34330.99      -17344.545      3711.8908      15.4114        12.7411        18.903672    
      4100   340.49122     -34325.617     -12098.414      3718.7647      15.4114        12.7411        18.938679    
      4200   289.34537     -34301.354     -21032.225      3725.6385      15.4114        12.7411        18.973686    
      4300   309.42743     -34335.699     -2970.3337      3732.5124      15.4114        12.7411        19.008692    
      4400   301.99365     -34345.029     -16965.581      3739.3863      15.4114        12.7411        19.043699    
      4500   302.456       -34351.483     -3394.4465      3746.2601      15.4114        12.7411        19.078706    
      4600   305.70716     -34355.51      -12159.965      3753.134       15.4114        12.7411        19.113713    
      4700   295.92252     -34339.341     -5843.3824      3760.0079      15.4114        12.7411        19.14872     
      4800   280.18946     -34332.815     -8507.818       3766.8818      15.4114        12.7411        19.183726    
      4900   286.96239     -34348.267     -16959.825      3773.7556      15.4114        12.7411        19.218733    
      5000   285.54526     -34343.486     -13012.236      3780.6295      15.4114        12.7411        19.25374     
Loop time of 212.832 on 8 procs for 5000 steps with 310 atoms

Performance: 1.015 ns/day, 23.648 hours/ns, 23.493 timesteps/s, 7.283 katom-step/s
98.7% CPU use with 8 MPI tasks x 1 OpenMP threads

MPI task timing breakdown:
Section |  min time  |  avg time  |  max time  |%varavg| %total
---------------------------------------------------------------
Pair    | 126.68     | 167.8      | 179.44     | 124.4 | 78.84
Bond    | 0.0016587  | 0.0019914  | 0.0022693  |   0.5 |  0.00
Neigh   | 8.3105     | 11.584     | 12.321     |  36.8 |  5.44
Comm    | 2.2481     | 13.925     | 55.026     | 431.6 |  6.54
Output  | 0.016723   | 0.019102   | 0.021026   |   1.1 |  0.01
Modify  | 18.643     | 19.401     | 22.706     |  28.7 |  9.12
Other   |            | 0.1001     |            |       |  0.05

Nlocal:          38.75 ave          46 max          33 min
Histogram: 2 0 1 0 2 0 2 0 0 1
Nghost:        2893.88 ave        2936 max        2853 min
Histogram: 2 0 0 0 3 0 1 0 1 1
Neighs:        22283.9 ave       26311 max       19068 min
Histogram: 1 1 1 0 2 0 2 0 0 1

Total # of neighbors = 178271
Ave neighs/atom = 575.06774
Ave special neighs/atom = 0
Neighbor list builds = 500
Dangerous builds not checked
OMP_NUM_THREADS environment is not set. Defaulting to 1 thread. (src/comm.cpp:98)
  using 1 OpenMP thread(s) per MPI task
Reading restart file ...
  restart file = 2 Aug 2023, LAMMPS = 2 Aug 2023
  restoring atom style full from restart
  triclinic box = (0 0 0) to (15.4114 12.7411 17.5034) with tilt (-7.2027 -1.8261 0.3384)
WARNING: Triclinic box skew is large. LAMMPS will run inefficiently. (src/domain.cpp:220)
  2 by 2 by 2 MPI processor grid
  pair style reaxff stores no restart info
  310 atoms
Finding 1-2 1-3 1-4 neighbors ...
  special bond factors lj:    0        0        0       
  special bond factors coul:  0        0        0       
     0 = max # of 1-2 neighbors
     0 = max # of 1-3 neighbors
     0 = max # of 1-4 neighbors
     1 = max # of special neighbors
  special bonds CPU = 0.000 seconds
  read_restart CPU = 0.004 seconds
*****debug*****
xy = -7.2027000000000001023, deltaxy = 0.72027
xz = -1.8261000000000000565, deltaxz = 0.18261
yz = 0.33839999999999997859, deltayz = -0.03384
*****
*****Negative-deform 4 starts.*****
Resetting global fix info from restart file:
  fix style: nvt, fix ID: fnvt
All restart file global fix info was re-assigned
Neighbor list info ...
  update: every = 10 steps, delay = 0 steps, check = no
  max neighbors/atom: 2000, page size: 100000
  master list distance cutoff = 12
  ghost atom cutoff = 12
  binsize = 6, bins = 5 3 3
  2 neighbor lists, perpetual/occasional/extra = 2 0 0
  (1) pair reaxff, perpetual
      attributes: half, newton off, ghost
      pair build: half/bin/newtoff/ghost
      stencil: full/ghost/bin/3d
      bin: standard
  (2) fix qeq/reaxff, perpetual, copy from (1)
      attributes: half, newton off
      pair build: copy
      stencil: none
      bin: none
Setting up Verlet run ...
  Unit style    : real
  Current step  : 0
  Time step     : 0.5
Per MPI rank memory allocation (min/avg/max) = 118.7 | 119.5 | 120.1 Mbytes
   Step          Temp          PotEng         Press          Volume           Lx             Ly             Lz      
         0   295.8757      -34371.964     -25608.106      3436.9359      15.4114        12.7411        17.5034      
       100   312.59326     -34369.207     -8920.0707      3436.9359      15.4114        12.7411        17.5034      
       200   315.35985     -34388.46      -5742.7422      3436.9359      15.4114        12.7411        17.5034      
       300   299.14047     -34400.795      2556.7706      3436.9359      15.4114        12.7411        17.5034      
       400   293.66677     -34408.87      -9304.7746      3436.9359      15.4114        12.7411        17.5034      
       500   292.86464     -34406.679      4036.2855      3436.9359      15.4114        12.7411        17.5034      
       600   306.26789     -34405.071      1808.669       3436.9359      15.4114        12.7411        17.5034      
       700   309.09325     -34387.601      1164.1876      3436.9359      15.4114        12.7411        17.5034      
       800   309.39605     -34370.601     -822.85199      3436.9359      15.4114        12.7411        17.5034      
       900   330.08022     -34410.952     -6042.6206      3436.9359      15.4114        12.7411        17.5034      
      1000   286.17711     -34397.581     -2728.6658      3436.9359      15.4114        12.7411        17.5034      
      1100   296.3855      -34413.956      11424.986      3436.9359      15.4114        12.7411        17.5034      
      1200   290.42636     -34414.975     -6830.9056      3436.9359      15.4114        12.7411        17.5034      
      1300   316.02421     -34421.538      1907.2364      3436.9359      15.4114        12.7411        17.5034      
      1400   328.16441     -34401.096     -6278.6403      3436.9359      15.4114        12.7411        17.5034      
      1500   307.05546     -34383.107      8099.7768      3436.9359      15.4114        12.7411        17.5034      
      1600   289.45773     -34401.627     -11514.166      3436.9359      15.4114        12.7411        17.5034      
      1700   303.04281     -34417.88      -2725.3711      3436.9359      15.4114        12.7411        17.5034      
      1800   291.99734     -34400.366      2020.7512      3436.9359      15.4114        12.7411        17.5034      
      1900   305.1489      -34393.328     -3671.5337      3436.9359      15.4114        12.7411        17.5034      
      2000   310.12064     -34391.66      -8891.0012      3436.9359      15.4114        12.7411        17.5034      
      2100   299.69587     -34417.176     -1947.4946      3436.9359      15.4114        12.7411        17.5034      
      2200   301.96513     -34422.842     -10282.133      3436.9359      15.4114        12.7411        17.5034      
      2300   294.57057     -34400.778     -1708.4636      3436.9359      15.4114        12.7411        17.5034      
      2400   296.63826     -34386.752     -14250.858      3436.9359      15.4114        12.7411        17.5034      
      2500   323.93556     -34417.459      8336.2726      3436.9359      15.4114        12.7411        17.5034      
      2600   284.00037     -34415.894     -3257.4311      3436.9359      15.4114        12.7411        17.5034      
      2700   293.55505     -34423.12       2148.7433      3436.9359      15.4114        12.7411        17.5034      
      2800   291.90045     -34400.738      9662.3213      3436.9359      15.4114        12.7411        17.5034      
      2900   309.66937     -34402.952     -6502.4687      3436.9359      15.4114        12.7411        17.5034      
      3000   296.02301     -34395.386     -4742.9184      3436.9359      15.4114        12.7411        17.5034      
      3100   318.16626     -34418.682      5201.2584      3436.9359      15.4114        12.7411        17.5034      
      3200   284.0265      -34393.574      9864.7593      3436.9359      15.4114        12.7411        17.5034      
      3300   301.5539      -34413.647     -543.6733       3436.9359      15.4114        12.7411        17.5034      
      3400   299.2228      -34395.973     -3049.3139      3436.9359      15.4114        12.7411        17.5034      
      3500   337.27371     -34406.47       8758.7027      3436.9359      15.4114        12.7411        17.5034      
      3600   302.65486     -34392.428     -13276.156      3436.9359      15.4114        12.7411        17.5034      
      3700   294.87027     -34409.159     -3266.5405      3436.9359      15.4114        12.7411        17.5034      
      3800   287.17459     -34412.397     -8058.756       3436.9359      15.4114        12.7411        17.5034      
      3900   299.38045     -34428.236     -6161.0126      3436.9359      15.4114        12.7411        17.5034      
      4000   313.29939     -34440.026      1939.5546      3436.9359      15.4114        12.7411        17.5034      
      4100   293.03049     -34409.162      7915.3856      3436.9359      15.4114        12.7411        17.5034      
      4200   320.3956      -34424.36       13873.856      3436.9359      15.4114        12.7411        17.5034      
      4300   310.90288     -34407.331      10522.173      3436.9359      15.4114        12.7411        17.5034      
      4400   311.23324     -34418.702      4868.2769      3436.9359      15.4114        12.7411        17.5034      
      4500   270.8305      -34403.047     -1389.7517      3436.9359      15.4114        12.7411        17.5034      
      4600   314.87297     -34443.158     -10811.74       3436.9359      15.4114        12.7411        17.5034      
      4700   285.54866     -34420.755     -15044.734      3436.9359      15.4114        12.7411        17.5034      
      4800   292.87623     -34447.159      4427.9377      3436.9359      15.4114        12.7411        17.5034      
      4900   290.22528     -34438.841     -11824.981      3436.9359      15.4114        12.7411        17.5034      
      5000   310.24475     -34425.935     -3001.9484      3436.9359      15.4114        12.7411        17.5034      
Loop time of 227.697 on 8 procs for 5000 steps with 310 atoms

Performance: 0.949 ns/day, 25.300 hours/ns, 21.959 timesteps/s, 6.807 katom-step/s
98.7% CPU use with 8 MPI tasks x 1 OpenMP threads

MPI task timing breakdown:
Section |  min time  |  avg time  |  max time  |%varavg| %total
---------------------------------------------------------------
Pair    | 153.24     | 181.53     | 190.93     |  86.5 | 79.73
Bond    | 0.0016155  | 0.0019597  | 0.0024222  |   0.6 |  0.00
Neigh   | 10.939     | 13.376     | 14.074     |  25.9 |  5.87
Comm    | 3.088      | 12.51      | 40.784     | 329.3 |  5.49
Output  | 0.015786   | 0.018412   | 0.020298   |   1.1 |  0.01
Modify  | 19.439     | 20.154     | 22.617     |  21.3 |  8.85
Other   |            | 0.1021     |            |       |  0.04

Nlocal:          38.75 ave          46 max          32 min
Histogram: 1 0 2 1 0 0 2 1 0 1
Nghost:        3117.25 ave        3188 max        3058 min
Histogram: 2 0 1 1 1 0 0 1 1 1
Neighs:        24486.1 ave       28954 max       20668 min
Histogram: 1 1 1 1 0 0 2 1 0 1

Total # of neighbors = 195889
Ave neighs/atom = 631.9
Ave special neighs/atom = 0
Neighbor list builds = 500
Dangerous builds not checked
OMP_NUM_THREADS environment is not set. Defaulting to 1 thread. (src/comm.cpp:98)
  using 1 OpenMP thread(s) per MPI task
Reading restart file ...
  restart file = 2 Aug 2023, LAMMPS = 2 Aug 2023
  restoring atom style full from restart
  triclinic box = (0 0 0) to (15.4114 12.7411 17.5034) with tilt (-7.2027 -1.8261 0.3384)
WARNING: Triclinic box skew is large. LAMMPS will run inefficiently. (src/domain.cpp:220)
  2 by 2 by 2 MPI processor grid
  pair style reaxff stores no restart info
  310 atoms
Finding 1-2 1-3 1-4 neighbors ...
  special bond factors lj:    0        0        0       
  special bond factors coul:  0        0        0       
     0 = max # of 1-2 neighbors
     0 = max # of 1-3 neighbors
     0 = max # of 1-4 neighbors
     1 = max # of special neighbors
  special bonds CPU = 0.000 seconds
  read_restart CPU = 0.003 seconds
*****Positive-deform 4 starts.*****
Resetting global fix info from restart file:
  fix style: nvt, fix ID: fnvt
All restart file global fix info was re-assigned
Neighbor list info ...
  update: every = 10 steps, delay = 0 steps, check = no
  max neighbors/atom: 2000, page size: 100000
  master list distance cutoff = 12
  ghost atom cutoff = 12
  binsize = 6, bins = 5 3 3
  2 neighbor lists, perpetual/occasional/extra = 2 0 0
  (1) pair reaxff, perpetual
      attributes: half, newton off, ghost
      pair build: half/bin/newtoff/ghost
      stencil: full/ghost/bin/3d
      bin: standard
  (2) fix qeq/reaxff, perpetual, copy from (1)
      attributes: half, newton off
      pair build: copy
      stencil: none
      bin: none
Setting up Verlet run ...
  Unit style    : real
  Current step  : 0
  Time step     : 0.5
Per MPI rank memory allocation (min/avg/max) = 118.7 | 119.6 | 120.1 Mbytes
   Step          Temp          PotEng         Press          Volume           Lx             Ly             Lz      
         0   295.8757      -34371.964     -25608.106      3436.9359      15.4114        12.7411        17.5034      
       100   312.44981     -34368.826     -8903.892       3436.9359      15.4114        12.7411        17.5034      
       200   318.88105     -34390.531     -5712.153       3436.9359      15.4114        12.7411        17.5034      
       300   302.35697     -34406.203     -5506.2488      3436.9359      15.4114        12.7411        17.5034      
       400   294.75644     -34412.318     -13928.044      3436.9359      15.4114        12.7411        17.5034      
       500   292.62646     -34406.141     -10000.485      3436.9359      15.4114        12.7411        17.5034      
       600   308.14504     -34397.473     -3936.8373      3436.9359      15.4114        12.7411        17.5034      
       700   306.25398     -34375.344      1960.8958      3436.9359      15.4114        12.7411        17.5034      
       800   292.87313     -34378.674     -9038.8729      3436.9359      15.4114        12.7411        17.5034      
       900   314.06991     -34430.14      -11303.346      3436.9359      15.4114        12.7411        17.5034      
      1000   273.44148     -34396.208     -116.70723      3436.9359      15.4114        12.7411        17.5034      
      1100   289.10842     -34388.745     -10499.601      3436.9359      15.4114        12.7411        17.5034      
      1200   310.94905     -34388.418     -8221.6083      3436.9359      15.4114        12.7411        17.5034      
      1300   310.99556     -34391.86       1288.3074      3436.9359      15.4114        12.7411        17.5034      
      1400   289.5283      -34388.235      451.00712      3436.9359      15.4114        12.7411        17.5034      
      1500   306.54489     -34400.421     -9738.4166      3436.9359      15.4114        12.7411        17.5034      
      1600   295.28287     -34386.515     -1063.2122      3436.9359      15.4114        12.7411        17.5034      
      1700   289.06733     -34382.56      -1345.171       3436.9359      15.4114        12.7411        17.5034      
      1800   312.88324     -34404.43       2095.8106      3436.9359      15.4114        12.7411        17.5034      
      1900   279.57098     -34387.099      1457.2782      3436.9359      15.4114        12.7411        17.5034      
      2000   290.53837     -34397.296     -1485.5083      3436.9359      15.4114        12.7411        17.5034      
      2100   304.70329     -34385.61       2726.689       3436.9359      15.4114        12.7411        17.5034      
      2200   318.80143     -34393.278      7014.304       3436.9359      15.4114        12.7411        17.5034      
      2300   320.77977     -34427.58      -13380.15       3436.9359      15.4114        12.7411        17.5034      
      2400   291.50237     -34413.308      309.6127       3436.9359      15.4114        12.7411        17.5034      
      2500   309.2391      -34411.079     -13918.767      3436.9359      15.4114        12.7411        17.5034      
      2600   318.84758     -34406.243     -12532.512      3436.9359      15.4114        12.7411        17.5034      
      2700   316.27414     -34409.937     -6494.0047      3436.9359      15.4114        12.7411        17.5034      
      2800   298.02632     -34424.13       6034.9336      3436.9359      15.4114        12.7411        17.5034      
      2900   280.69579     -34410.161      7829.2457      3436.9359      15.4114        12.7411        17.5034      
      3000   301.44902     -34411.252     -941.63828      3436.9359      15.4114        12.7411        17.5034      
      3100   297.34865     -34395.307     -9162.4776      3436.9359      15.4114        12.7411        17.5034      
      3200   329.98139     -34434.173     -7877.2149      3436.9359      15.4114        12.7411        17.5034      
      3300   298.27655     -34409.694      5272.6094      3436.9359      15.4114        12.7411        17.5034      
[...]
      4700   309.64198     -34436.508     -12147.698      3436.9359      15.4114        12.7411        17.5034      
      4800   295.88904     -34465.524     -13208.008      3436.9359      15.4114        12.7411        17.5034      
      4900   300.46305     -34470.679     -13985.546      3436.9359      15.4114        12.7411        17.5034      
      5000   294.64753     -34443.835     -14595.383      3436.9359      15.4114        12.7411        17.5034      
Loop time of 228.325 on 8 procs for 5000 steps with 310 atoms

Performance: 0.946 ns/day, 25.369 hours/ns, 21.899 timesteps/s, 6.789 katom-step/s
98.8% CPU use with 8 MPI tasks x 1 OpenMP threads

MPI task timing breakdown:
Section |  min time  |  avg time  |  max time  |%varavg| %total
---------------------------------------------------------------
Pair    | 174.7      | 184.57     | 191.9      |  37.0 | 80.84
Bond    | 0.0015484  | 0.0020126  | 0.0022955  |   0.6 |  0.00
Neigh   | 14.378     | 14.714     | 15.151     |   5.7 |  6.44
Comm    | 1.669      | 9.0295     | 18.925     | 167.8 |  3.95
Output  | 0.015553   | 0.017664   | 0.019352   |   1.0 |  0.01
Modify  | 19.426     | 19.884     | 20.208     |   5.1 |  8.71
Other   |            | 0.1057     |            |       |  0.05

Nlocal:          38.75 ave          43 max          32 min
Histogram: 1 1 0 0 0 0 1 3 0 2
Nghost:         3080.5 ave        3137 max        3031 min
Histogram: 2 0 0 2 0 1 1 0 1 1
Neighs:        24492.1 ave       27032 max       20526 min
Histogram: 1 1 0 0 0 0 1 3 0 2

Total # of neighbors = 195937
Ave neighs/atom = 632.05484
Ave special neighs/atom = 0
Neighbor list builds = 500
Dangerous builds not checked
OMP_NUM_THREADS environment is not set. Defaulting to 1 thread. (src/comm.cpp:98)
  using 1 OpenMP thread(s) per MPI task
Reading restart file ...
  restart file = 2 Aug 2023, LAMMPS = 2 Aug 2023
  restoring atom style full from restart
  triclinic box = (0 0 0) to (15.4114 12.7411 17.5034) with tilt (-7.2027 -1.8261 0.3384)
WARNING: Triclinic box skew is large. LAMMPS will run inefficiently. (src/domain.cpp:220)
  2 by 2 by 2 MPI processor grid
  pair style reaxff stores no restart info
  310 atoms
Finding 1-2 1-3 1-4 neighbors ...
  special bond factors lj:    0        0        0       
  special bond factors coul:  0        0        0       
     0 = max # of 1-2 neighbors
     0 = max # of 1-3 neighbors
     0 = max # of 1-4 neighbors
     1 = max # of special neighbors
  special bonds CPU = 0.000 seconds
  read_restart CPU = 0.003 seconds
*****debug*****
xy = -7.2027000000000001023, deltaxy = 0.72027
xz = -1.8261000000000000565, deltaxz = 0.18261
yz = 0.33839999999999997859, deltayz = -0.03384
*****
*****Negative-deform 6 starts.*****
Resetting global fix info from restart file:
  fix style: nvt, fix ID: fnvt
All restart file global fix info was re-assigned
Neighbor list info ...
  update: every = 10 steps, delay = 0 steps, check = no
  max neighbors/atom: 2000, page size: 100000
  master list distance cutoff = 12
  ghost atom cutoff = 12
  binsize = 6, bins = 5 3 3
  2 neighbor lists, perpetual/occasional/extra = 2 0 0
  (1) pair reaxff, perpetual
      attributes: half, newton off, ghost
      pair build: half/bin/newtoff/ghost
      stencil: full/ghost/bin/3d
      bin: standard
  (2) fix qeq/reaxff, perpetual, copy from (1)
      attributes: half, newton off
      pair build: copy
      stencil: none
      bin: none
Setting up Verlet run ...
  Unit style    : real
  Current step  : 0
  Time step     : 0.5
Per MPI rank memory allocation (min/avg/max) = 118.7 | 119.5 | 120.1 Mbytes
   Step          Temp          PotEng         Press          Volume           Lx             Ly             Lz      
         0   295.8757      -34371.964     -25608.106      3436.9359      15.4114        12.7411        17.5034      
       100   312.87361     -34369.276     -9186.7499      3436.9359      15.4114        12.7411        17.5034      
       200   317.25146     -34385.478     -9103.2976      3436.9359      15.4114        12.7411        17.5034      
       300   298.20982     -34393.621     -219.0559       3436.9359      15.4114        12.7411        17.5034      
       400   285.65422     -34397.289     -12463.505      3436.9359      15.4114        12.7411        17.5034      
       500   289.97781     -34406.43      -10107.019      3436.9359      15.4114        12.7411        17.5034      
       600   302.5918      -34404.944     -4821.4614      3436.9359      15.4114        12.7411        17.5034      
       700   311.65599     -34394.625      10620.672      3436.9359      15.4114        12.7411        17.5034      
       800   293.5081      -34364.4        2512.0242      3436.9359      15.4114        12.7411        17.5034      
       900   314.92487     -34398.653     -11532.753      3436.9359      15.4114        12.7411        17.5034      
      1000   262.84099     -34366.671     -5684.4535      3436.9359      15.4114        12.7411        17.5034      
      1100   297.01855     -34390.677     -6558.8298      3436.9359      15.4114        12.7411        17.5034      
      1200   310.27128     -34389.399     -10282.221      3436.9359      15.4114        12.7411        17.5034      
      1300   276.792       -34373.575     -13909.656      3436.9359      15.4114        12.7411        17.5034      
      1400   298.70897     -34408.555     -6882.4382      3436.9359      15.4114        12.7411        17.5034      
      1500   304.36693     -34407.063     -5234.2385      3436.9359      15.4114        12.7411        17.5034      
      1600   309.02927     -34396.271     -23220.993      3436.9359      15.4114        12.7411        17.5034      
      1700   315.07416     -34376.938     -9973.0393      3436.9359      15.4114        12.7411        17.5034      
      1800   329.46488     -34348.698      5462.6132      3436.9359      15.4114        12.7411        17.5034      
      1900   327.99769     -34361.556     -2207.2189      3436.9359      15.4114        12.7411        17.5034      
      2000   301.14606     -34359.242      2518.8227      3436.9359      15.4114        12.7411        17.5034      
      2100   312.88981     -34385.555     -1402.9653      3436.9359      15.4114        12.7411        17.5034      
      2200   271.35907     -34364.425     -16424.806      3436.9359      15.4114        12.7411        17.5034      
      2300   299.81529     -34394.521     -13090.98       3436.9359      15.4114        12.7411        17.5034      
      2400   280.80642     -34376.588     -2185.1981      3436.9359      15.4114        12.7411        17.5034      
      2500   314.55208     -34393.362     -2731.5272      3436.9359      15.4114        12.7411        17.5034      
      2600   316.40211     -34365.099     -19011.363      3436.9359      15.4114        12.7411        17.5034      
      2700   331.70893     -34373.123     -19856.473      3436.9359      15.4114        12.7411        17.5034      
      2800   292.39976     -34364.827     -8158.4262      3436.9359      15.4114        12.7411        17.5034      
      2900   306.99106     -34380.137     -295.03546      3436.9359      15.4114        12.7411        17.5034      
      3000   308.52532     -34380.349     -10015.704      3436.9359      15.4114        12.7411        17.5034      
      3100   296.28395     -34377.339     -15439.463      3436.9359      15.4114        12.7411        17.5034      
      3200   292.85569     -34395.045     -13359.952      3436.9359      15.4114        12.7411        17.5034      
      3300   274.9423      -34381.326     -7338.1716      3436.9359      15.4114        12.7411        17.5034      
      3400   308.15782     -34390.903     -9696.3862      3436.9359      15.4114        12.7411        17.5034      
      3500   295.01561     -34358.317     -15389.092      3436.9359      15.4114        12.7411        17.5034      
      3600   307.48838     -34360.032     -2583.9251      3436.9359      15.4114        12.7411        17.5034      
      3700   305.98019     -34374.828     -8766.9052      3436.9359      15.4114        12.7411        17.5034      
      3800   282.78173     -34372.932     -2179.7782      3436.9359      15.4114        12.7411        17.5034      
      3900   316.42927     -34394.399     -773.86809      3436.9359      15.4114        12.7411        17.5034      
      4000   300.97507     -34372.311      3014.057       3436.9359      15.4114        12.7411        17.5034      
      4100   301.72364     -34362.531     -11430.926      3436.9359      15.4114        12.7411        17.5034      
      4200   307.7023      -34342.08      -9044.3938      3436.9359      15.4114        12.7411        17.5034      
      4300   309.01897     -34350.209     -597.90985      3436.9359      15.4114        12.7411        17.5034      
      4400   288.31567     -34351.842     -14127.281      3436.9359      15.4114        12.7411        17.5034      
      4500   313.27584     -34372.615      4704.1854      3436.9359      15.4114        12.7411        17.5034      
      4600   293.50333     -34348.065     -12359.395      3436.9359      15.4114        12.7411        17.5034      
      4700   307.66188     -34349.919     -16444.349      3436.9359      15.4114        12.7411        17.5034      
      4800   312.8067      -34374.501     -4365.7158      3436.9359      15.4114        12.7411        17.5034      
      4900   295.44182     -34375.078      1931.9644      3436.9359      15.4114        12.7411        17.5034      
      5000   278.47223     -34351.993     -590.91467      3436.9359      15.4114        12.7411        17.5034      
Loop time of 232.131 on 8 procs for 5000 steps with 310 atoms

Performance: 0.931 ns/day, 25.792 hours/ns, 21.540 timesteps/s, 6.677 katom-step/s
98.8% CPU use with 8 MPI tasks x 1 OpenMP threads

MPI task timing breakdown:
Section |  min time  |  avg time  |  max time  |%varavg| %total
---------------------------------------------------------------
Pair    | 181.49     | 189.45     | 195.13     |  31.6 | 81.61
Bond    | 0.0015581  | 0.0020465  | 0.0023832  |   0.7 |  0.00
Neigh   | 13.922     | 14.205     | 14.674     |   6.3 |  6.12
Comm    | 2.3769     | 8.0959     | 16.074     | 153.4 |  3.49
Output  | 0.017189   | 0.019626   | 0.021717   |   1.1 |  0.01
Modify  | 19.762     | 20.257     | 20.552     |   5.5 |  8.73
Other   |            | 0.1057     |            |       |  0.05

Nlocal:          38.75 ave          44 max          34 min
Histogram: 1 0 1 2 0 1 0 1 1 1
Nghost:         3240.5 ave        3274 max        3210 min
Histogram: 3 0 0 1 0 0 1 0 2 1
Neighs:        24497.8 ave       27775 max       21757 min
Histogram: 1 1 2 0 1 0 1 1 0 1

Total # of neighbors = 195982
Ave neighs/atom = 632.2
Ave special neighs/atom = 0
Neighbor list builds = 500
Dangerous builds not checked
OMP_NUM_THREADS environment is not set. Defaulting to 1 thread. (src/comm.cpp:98)
  using 1 OpenMP thread(s) per MPI task
Reading restart file ...
  restart file = 2 Aug 2023, LAMMPS = 2 Aug 2023
  restoring atom style full from restart
  triclinic box = (0 0 0) to (15.4114 12.7411 17.5034) with tilt (-7.2027 -1.8261 0.3384)
WARNING: Triclinic box skew is large. LAMMPS will run inefficiently. (src/domain.cpp:220)
  2 by 2 by 2 MPI processor grid
  pair style reaxff stores no restart info
  310 atoms
Finding 1-2 1-3 1-4 neighbors ...
  special bond factors lj:    0        0        0       
  special bond factors coul:  0        0        0       
     0 = max # of 1-2 neighbors
     0 = max # of 1-3 neighbors
     0 = max # of 1-4 neighbors
     1 = max # of special neighbors
  special bonds CPU = 0.000 seconds
  read_restart CPU = 0.003 seconds
*****Positive-deform 6 starts.*****
Resetting global fix info from restart file:
  fix style: nvt, fix ID: fnvt
All restart file global fix info was re-assigned
Neighbor list info ...
  update: every = 10 steps, delay = 0 steps, check = no
  max neighbors/atom: 2000, page size: 100000
  master list distance cutoff = 12
  ghost atom cutoff = 12
  binsize = 6, bins = 5 3 3
  2 neighbor lists, perpetual/occasional/extra = 2 0 0
  (1) pair reaxff, perpetual
      attributes: half, newton off, ghost
      pair build: half/bin/newtoff/ghost
      stencil: full/ghost/bin/3d
      bin: standard
  (2) fix qeq/reaxff, perpetual, copy from (1)
      attributes: half, newton off
      pair build: copy
      stencil: none
      bin: none
Setting up Verlet run ...
  Unit style    : real
  Current step  : 0
  Time step     : 0.5
Per MPI rank memory allocation (min/avg/max) = 118.7 | 119.6 | 120.1 Mbytes
   Step          Temp          PotEng         Press          Volume           Lx             Ly             Lz      
         0   295.8757      -34371.964     -25608.106      3436.9359      15.4114        12.7411        17.5034      
       100   311.86927     -34368.571     -8578.5511      3436.9359      15.4114        12.7411        17.5034      
       200   317.06062     -34389.431     -8203.631       3436.9359      15.4114        12.7411        17.5034      
       300   295.94425     -34397.083      10630.866      3436.9359      15.4114        12.7411        17.5034      
       400   296.65214     -34407.346     -10825.283      3436.9359      15.4114        12.7411        17.5034      
       500   278.69842     -34395.349      1254.4816      3436.9359      15.4114        12.7411        17.5034      
       600   313.04078     -34434.652      9360.2372      3436.9359      15.4114        12.7411        17.5034      
       700   277.23028     -34409.431      3158.4426      3436.9359      15.4114        12.7411        17.5034      
       800   295.22316     -34434.287     -2419.6093      3436.9359      15.4114        12.7411        17.5034      
       900   294.48425     -34457.609     -6076.9667      3436.9359      15.4114        12.7411        17.5034      
      1000   292.59243     -34458.358      2353.4565      3436.9359      15.4114        12.7411        17.5034      
      1100   297.72642     -34433.858      616.84872      3436.9359      15.4114        12.7411        17.5034      
      1200   315.56785     -34438.269      2421.3761      3436.9359      15.4114        12.7411        17.5034      
      1300   298.52255     -34425.409     -11426.723      3436.9359      15.4114        12.7411        17.5034      
      1400   312.56246     -34442.443     -11225.728      3436.9359      15.4114        12.7411        17.5034      
      1500   305.07105     -34441.507     -1531.1105      3436.9359      15.4114        12.7411        17.5034      
      1600   305.53028     -34453.941      7033.1553      3436.9359      15.4114        12.7411        17.5034      
      1700   276.22615     -34452.538     -12897.581      3436.9359      15.4114        12.7411        17.5034      
      1800   298.91953     -34469.641     -13218.381      3436.9359      15.4114        12.7411        17.5034      
      1900   304.40192     -34439.315     -6261.478       3436.9359      15.4114        12.7411        17.5034      
      2000   318.8261      -34418.525     -5233.222       3436.9359      15.4114        12.7411        17.5034      
      2100   313.81329     -34418.08       9077.4501      3436.9359      15.4114        12.7411        17.5034      
      2200   289.02212     -34410.063      8236.3094      3436.9359      15.4114        12.7411        17.5034      
      2300   304.20472     -34430.904     -1333.8928      3436.9359      15.4114        12.7411        17.5034      
      2400   300.92726     -34432.622     -3720.672       3436.9359      15.4114        12.7411        17.5034      
      2500   296.32314     -34425.821      5893.4267      3436.9359      15.4114        12.7411        17.5034      
      2600   298.4956      -34419.004     -18485.391      3436.9359      15.4114        12.7411        17.5034      
      2700   313.01507     -34432.676     -2471.7283      3436.9359      15.4114        12.7411        17.5034      
      2800   295.11754     -34427.66       754.22795      3436.9359      15.4114        12.7411        17.5034      
      2900   300.62185     -34442.854     -2222.8443      3436.9359      15.4114        12.7411        17.5034      
      3000   307.29439     -34446.306      6125.2588      3436.9359      15.4114        12.7411        17.5034      
      3100   285.10022     -34412.774      3855.737       3436.9359      15.4114        12.7411        17.5034      
      3200   322.52071     -34438.59      -13693.27       3436.9359      15.4114        12.7411        17.5034      
      3300   298.21166     -34416.042     -17909.511      3436.9359      15.4114        12.7411        17.5034      
      3400   301.66662     -34423.623     -7955.6619      3436.9359      15.4114        12.7411        17.5034      
      3500   279.86529     -34432.729     -3649.8197      3436.9359      15.4114        12.7411        17.5034      
      3600   285.38049     -34435.132      9217.6218      3436.9359      15.4114        12.7411        17.5034      
      3700   304.06464     -34430.797     -11455.13       3436.9359      15.4114        12.7411        17.5034      
      3800   282.90904     -34398.337     -5918.8888      3436.9359      15.4114        12.7411        17.5034      
      3900   321.62384     -34433.574     -245.59196      3436.9359      15.4114        12.7411        17.5034      
      4000   286.75199     -34402.51       10796.992      3436.9359      15.4114        12.7411        17.5034      
      4100   289.52055     -34415.402      2272.3504      3436.9359      15.4114        12.7411        17.5034      
      4200   277.24474     -34429.67      -3992.2919      3436.9359      15.4114        12.7411        17.5034      
      4300   266.06045     -34432.743     -3573.7343      3436.9359      15.4114        12.7411        17.5034      
      4400   303.95216     -34447.1       -14968.835      3436.9359      15.4114        12.7411        17.5034      
      4500   286.02258     -34406.445     -10231.476      3436.9359      15.4114        12.7411        17.5034      
      4600   310.66776     -34407.081     -5336.8105      3436.9359      15.4114        12.7411        17.5034      
      4700   299.53427     -34390.068     -13754.739      3436.9359      15.4114        12.7411        17.5034      
      4800   340.21117     -34429.102     -1156.1477      3436.9359      15.4114        12.7411        17.5034      
      4900   298.93965     -34424.032      4055.2137      3436.9359      15.4114        12.7411        17.5034      
      5000   307.969       -34431.333      8209.0894      3436.9359      15.4114        12.7411        17.5034      
Loop time of 224.451 on 8 procs for 5000 steps with 310 atoms

Performance: 0.962 ns/day, 24.939 hours/ns, 22.277 timesteps/s, 6.906 katom-step/s
98.7% CPU use with 8 MPI tasks x 1 OpenMP threads

MPI task timing breakdown:
Section |  min time  |  avg time  |  max time  |%varavg| %total
---------------------------------------------------------------
Pair    | 172        | 181.25     | 188.12     |  35.2 | 80.75
Bond    | 0.0014673  | 0.0020265  | 0.0023349  |   0.6 |  0.00
Neigh   | 14.143     | 14.468     | 14.695     |   5.0 |  6.45
Comm    | 1.5741     | 8.4816     | 17.749     | 162.9 |  3.78
Output  | 0.016473   | 0.018705   | 0.020465   |   1.0 |  0.01
Modify  | 19.867     | 20.124     | 20.439     |   4.5 |  8.97
Other   |            | 0.1044     |            |       |  0.05

Nlocal:          38.75 ave          42 max          32 min
Histogram: 1 0 0 0 1 0 1 1 1 3
Nghost:        2962.88 ave        3006 max        2921 min
Histogram: 2 0 0 1 1 1 0 2 0 1
Neighs:        24500.4 ave       26419 max       20401 min
Histogram: 1 0 0 1 0 1 0 1 2 2

Total # of neighbors = 196003
Ave neighs/atom = 632.26774
Ave special neighs/atom = 0
Neighbor list builds = 500
Dangerous builds not checked
Total wall time: 0:49:36
