ITEM: TIMESTEP
0
ITEM: NUMBER OF ATOMS
362
ITEM: BOX BOUNDS xy xz yz pp pp pp
-9.2559564641273155e+00 1.8000852032005888e+01 -9.1387033013182730e+00
1.8064571466808754e-01 1.3574970797197363e+01 7.1139886919683504e-01
7.2471757627983635e-02 1.7514228242371928e+01 6.2771651186538768e-01
ITEM: ATOMS id type x y z
152 2 -1.67415 4.12593 0.920527
142 2 -1.31533 5.79922 1.87834
69 1 -1.4114 2.9995 0.606294
143 2 -0.366761 2.7929 0.462889
2 4 -0.24271 2.91188 5.25873
5 4 2.95897 2.57315 5.53692
23 4 0.576589 5.94522 5.35677
60 1 -0.39075 4.57628 6.03375
61 1 2.71322 2.98473 7.35676
114 2 2.1963 1.87507 3.06692
118 2 0.0301973 4.49166 7.84268
119 2 -1.88537 4.98837 5.54923
121 2 3.159 4.02505 7.58217
191 3 1.3725 2.55488 5.15946
194 3 -1.09894 2.79368 3.92155
122 2 3.34714 2.10256 7.80459
59 1 2.38024 0.723624 3.06965
211 3 1.98537 6.01044 5.9463
217 3 0.52949 5.85417 3.7708
26 4 3.43699 6.50994 6.93325
218 3 1.20471 4.55538 1.42384
1 4 4.23983 0.722182 2.81965
30 4 0.420443 5.82585 2.20897
200 3 3.91655 3.75639 4.99817
24 4 1.95351 3.85725 0.127614
120 2 1.56078 2.93708 7.40651
192 3 3.72094 0.807151 5.76426
123 2 -1.76714 6.04861 4.28485
283 4 -1.66278 5.04505 7.54831
212 3 4.07184 5.55359 8.25399
164 2 -0.171887 1.46065 7.27589
153 2 2.28982 2.18065 0.306816
320 2 6.02944 0.894624 4.67285
202 3 5.31249 0.979164 7.98406
199 3 4.95705 2.17098 3.0628
14 4 5.33221 3.42403 3.98702
169 2 4.07285 6.35482 4.28605
150 2 3.88679 6.38819 1.22303
151 2 4.2471 3.8916 1.06191
243 3 -3.65108 5.50879 2.6264
175 2 -4.03622 6.31913 6.88868
208 3 5.40502 4.71511 2.94799
72 1 3.73872 3.49695 0.140776
116 2 1.87497 0.301245 2.14731
348 2 1.67569 1.58341 9.05351
287 2 1.59747 4.99053 11.1004
6 4 0.97214 1.44386 11.3715
9 4 -0.243806 4.46525 12.6074
63 1 0.917966 5.93274 11.3112
68 1 2.04225 2.0988 9.96652
89 2 -0.804095 5.65057 11.2875
139 2 2.96899 3.25735 11.2703
140 2 2.10799 3.2044 9.75083
141 2 3.129 1.6538 10.304
195 3 0.488714 3.11004 12.2227
214 3 0.108788 5.11442 14.1126
215 3 1.98325 4.74856 16.1711
28 4 0.615388 5.63186 15.537
97 2 1.69734 3.02743 13.3954
128 2 1.19786 6.42145 12.2838
280 2 -0.178122 2.45712 14.8011
27 4 3.32133 3.45217 12.9736
216 3 3.78913 4.88006 13.3462
98 2 -0.456699 5.14518 16.782
29 4 4.14943 6.32663 13.5979
156 2 3.82346 1.92122 14.3038
299 2 -2.64806 6.68797 11.4469
173 2 4.11883 5.48757 10.9351
126 2 -1.96047 4.05451 12.6624
136 2 4.77474 1.51543 11.8664
213 3 4.47949 2.11177 13.466
350 2 4.72501 2.40293 17.3104
210 3 4.60062 3.44907 9.60098
67 1 4.94759 0.913971 10.831
25 4 4.85809 4.97529 9.56913
91 2 5.34748 2.94714 14.5003
17 4 5.6698 2.07991 9.45971
20 4 5.60438 3.52492 16.0842
92 2 4.73881 5.16861 16.1395
96 2 6.17486 3.76192 12.1841
117 2 1.09747 6.63847 10.4096
206 3 7.18456 2.34348 10.0222
322 2 0.426608 1.1623 16.2321
205 3 7.16607 3.63643 16.4035
297 2 -1.10599 6.75276 8.87196
66 1 -0.89423 12.8467 8.54659
8 4 -3.74479 7.00981 3.67756
3 4 -4.33858 12.8771 6.66177
198 3 -4.8049 12.762 1.42734
319 2 -3.55564 11.4157 5.92383
10 4 -3.09321 9.69411 2.06174
196 3 -3.62651 8.37088 2.77074
197 3 -4.05176 10.3353 0.998664
285 1 -5.2711 11.1803 7.55989
318 2 -4.21877 12.4269 4.05482
347 2 -4.99601 10.0987 5.99726
178 2 -6.86641 11.0159 4.5301
361 2 -5.72731 9.45031 4.20388
284 4 -4.46526 9.41692 7.54407
81 1 -6.22391 10.3166 3.76876
93 2 -0.443325 7.34971 5.66187
177 2 -5.63071 10.874 2.96912
221 3 3.07 7.98519 7.27009
349 2 -5.45354 11.9314 8.46022
292 2 -2.73037 9.38875 7.65133
11 4 -4.61822 11.6445 0.231848
289 2 -6.24139 10.8596 7.08292
183 2 -6.99523 12.608 5.86047
83 1 -8.06432 12.1204 5.76643
219 3 -2.61503 10.7709 3.20332
134 2 -1.98293 13.1049 8.29717
223 3 1.55039 10.0748 6.46735
157 2 -1.84818 7.5923 1.50396
87 2 -7.11777 12.9647 4.13839
62 1 -2.08243 7.13568 4.64514
74 1 -0.754069 7.50605 1.13669
317 1 -2.60885 12.7736 5.1846
135 2 -0.73141 11.707 8.46022
102 2 -0.993231 10.271 7.20645
147 2 -1.25366 8.51043 8.1802
125 2 -1.45867 7.95468 4.21607
220 3 -0.886945 12.7711 2.85362
70 1 -0.884616 9.69165 8.2239
130 2 -1.63708 9.27302 1.23795
146 2 0.207108 9.71911 8.51399
31 4 -1.66035 11.7827 3.89966
295 3 -1.78919 6.92444 8.11342
222 3 -0.438382 11.0713 4.82322
288 2 -4.89885 7.76298 7.81354
101 2 0.930926 10.1477 1.07173
111 2 0.64967 9.87923 3.17764
253 3 1.11112 9.48227 2.38203
158 2 1.17637 7.19161 1.42624
88 2 -0.12133 8.35304 1.56573
124 2 -2.31089 7.08482 5.75716
100 2 -1.74257 13.1264 5.84738
291 2 -4.90244 10.3053 9.1346
266 3 2.43164 9.15744 15.9939
276 3 -7.36271 13.2014 12.2681
328 2 -6.35496 10.8703 11.0249
138 2 -5.0754 13.0572 10.5374
327 2 -4.9513 12.0549 12.8256
325 1 -6.23426 10.6998 12.1906
277 3 -5.48104 12.0074 17.0352
229 3 -2.76838 12.8533 16.6823
272 4 -6.61707 12.2512 13.2768
273 4 -6.87408 11.5449 16.2668
278 3 -6.9438 12.0828 14.7904
137 2 -3.25055 13.073 10.9756
294 2 -3.70879 8.70093 10.6493
286 1 -3.37479 7.0081 10.6029
358 2 -3.863 7.43357 16.0745
359 2 -4.67829 9.52915 16.1404
230 3 1.10463 9.1413 13.5506
353 2 -0.619374 13.1791 9.60553
131 2 -1.46819 10.2455 14.3565
129 2 -1.13656 9.69978 16.0769
231 3 -0.454399 11.2223 12.7335
290 2 -2.73012 6.95692 9.54656
103 2 -2.88302 10.1778 15.6764
64 1 -1.75154 10.376 15.4712
228 3 -0.801897 13.0197 14.5816
160 2 -0.011929 7.77511 11.4232
161 2 -0.578287 9.23711 10.1132
227 3 -0.0653251 11.9144 16.9331
261 3 2.0996 9.66485 8.9818
36 4 -1.2976 12.199 15.9125
19 4 -0.158105 12.8894 13.1692
35 4 1.85053 8.2538 14.7404
37 4 0.642481 10.0367 12.2896
75 1 -0.452185 8.89775 11.3265
162 2 -1.4871 8.99151 11.878
226 3 3.0887 7.3202 14.06
326 2 -5.36322 10.0852 12.4995
159 2 0.126154 7.89571 17.4959
225 3 0.687874 7.20854 15.5657
145 2 -1.57651 10.1644 8.99445
18 4 8.1339 3.39418 5.52646
22 4 6.54892 5.4545 2.02144
39 4 10.6463 3.05124 3.55614
94 2 8.02262 4.76555 6.52141
201 3 7.892 1.76322 0.899612
331 2 13.1904 1.46498 3.69037
204 3 8.58285 2.21541 6.69376
209 3 7.13002 4.33048 1.05516
232 3 10.0913 1.90404 2.57579
233 3 9.36907 3.58617 4.52953
244 3 7.64608 6.28975 2.92605
16 4 9.42229 1.18888 7.57658
13 4 9.04052 0.989354 1.72104
258 3 8.34074 6.1554 7.82066
115 2 16.2061 1.32512 1.62552
174 2 10.8996 4.98898 6.26939
50 4 11.2939 6.68422 5.85102
342 2 8.91586 5.88617 0.787058
203 3 6.75819 3.18138 4.80424
354 2 15.8283 0.768753 6.2529
247 3 14.6128 4.07577 8.1614
163 2 15.6057 2.55187 6.84238
7 4 15.4531 2.59938 2.57268
76 1 16.3651 1.64022 6.56141
241 3 11.6148 4.17897 2.79058
245 3 11.6531 6.18194 1.0999
167 2 11.0972 2.59911 5.78964
109 2 12.0369 6.07617 8.24486
45 4 12.5912 5.02946 1.71232
48 4 13.0392 3.69248 8.1408
77 1 11.6727 2.14834 4.89604
80 1 12.2987 5.89659 7.20071
106 2 13.2853 1.86932 8.10282
176 2 12.4217 4.11044 6.50421
234 3 13.0659 1.08192 0.63129
242 3 12.8984 3.82826 0.4242
166 2 11.6134 0.979517 4.8233
165 2 12.7792 2.5835 4.87943
332 2 13.67 2.79019 2.57056
329 1 14.1367 0.972695 3.02101
170 2 5.59911 6.13502 5.88074
15 4 7.7153 3.18003 0.142953
86 2 16.2591 2.36556 8.39793
281 3 14.797 2.89762 15.9014
188 2 8.94398 4.78493 10.1805
49 4 7.88074 5.8934 9.31274
248 3 6.40929 5.52876 9.59717
21 4 8.13623 2.54117 11.2258
42 4 10.929 2.9121 10.008
193 3 17.1479 0.876664 10.6612
155 2 7.80897 4.75318 12.2467
356 2 11.2494 0.99454 12.4626
237 3 9.74358 3.54615 10.8145
238 3 9.75737 4.25514 16.7622
302 1 10.4732 3.50069 14.0172
305 2 10.7221 2.35484 13.8081
306 2 10.7933 4.23684 13.2674
307 2 9.31334 3.66606 14.3335
300 4 11.1022 4.17681 15.7975
108 2 6.48891 5.63083 12.6354
99 2 5.63021 6.51386 14.6646
85 1 6.07908 6.6897 12.8991
314 3 12.1454 3.12654 16.4241
127 2 9.18184 6.41043 11.2002
279 4 15.4906 1.11513 15.4791
338 2 11.083 0.9135 14.3473
73 1 7.24618 3.72052 12.4655
293 2 12.8489 5.96426 10.3598
315 3 11.679 5.58435 15.2957
40 4 13.5772 3.07369 17.111
246 3 12.0865 4.09984 9.42049
308 2 14.0825 2.09564 13.202
310 2 12.3962 3.67208 13.3462
303 1 13.554 3.7003 13.0126
104 2 13.8203 4.39853 11.6673
240 3 11.9443 1.92136 11.1848
4 4 15.8839 1.26257 9.68591
44 4 13.4965 2.3669 11.4101
110 2 14.0641 4.30659 13.7844
239 3 14.7177 1.98335 10.5549
207 3 8.61794 1.31556 12.0783
321 1 17.2807 1.24648 15.2396
154 2 7.43487 3.13919 13.469
144 2 15.9231 3.28039 17.1819
105 2 5.46946 6.59354 17.0587
301 4 12.2088 7.05548 14.7541
236 3 10.3828 1.95884 8.80201
133 2 8.28606 12.1689 7.99707
340 1 9.06945 6.85925 0.188617
224 3 0.936963 12.8442 6.55055
33 4 2.67384 9.48348 7.50682
65 1 8.68455 11.37 8.6905
82 1 2.37074 11.6189 4.51992
180 2 2.20129 12.525 3.76561
52 4 2.81456 10.3485 3.20891
179 2 3.37851 11.7659 5.25069
254 3 3.41741 11.3086 2.05879
264 3 3.73325 9.28128 3.90364
181 2 4.24055 10.3879 7.51771
12 4 7.35936 10.0264 8.63445
184 2 9.33175 11.1436 6.43921
187 2 3.78705 9.12508 0.465704
78 1 4.73836 6.79438 5.71325
362 3 0.771998 12.8561 0.657163
41 4 4.44451 12.807 8.25086
249 3 12.4087 7.03269 4.78155
250 3 7.73232 7.1081 5.56021
352 2 9.58609 10.6622 8.30025
46 4 7.7879 7.52396 3.92285
335 2 6.02969 12.204 6.49934
333 1 4.94671 11.8241 6.49698
355 2 4.82213 11.2346 5.5564
38 4 4.53111 12.6735 1.62813
51 4 9.87876 9.54 2.5719
54 4 8.55731 7.48563 6.87552
56 4 4.84309 8.23746 4.37919
113 2 5.14896 8.5289 6.19901
251 3 8.90499 8.6399 3.54375
252 3 10.6343 8.70058 1.43622
256 3 8.86538 10.9431 1.95372
257 3 6.07126 12.0332 0.996155
259 3 10.243 7.77919 6.47196
260 3 7.96094 8.89887 7.82453
265 3 6.2211 8.30135 3.61468
90 2 6.02295 10.7282 7.63037
47 4 10.8907 7.38177 0.424048
53 4 7.64991 10.8697 0.899336
343 1 6.86342 9.15661 0.913415
345 2 7.35752 8.48535 1.66273
344 2 5.79836 9.44519 1.33797
341 2 8.26744 7.7161 0.394822
71 1 4.68867 6.71882 0.534058
112 2 9.15688 11.8648 4.6747
149 2 5.73315 6.75871 1.0905
148 2 4.40606 7.78276 0.133153
34 4 0.986172 11.4471 5.73726
182 2 8.54661 12.877 6.09901
334 2 4.01245 13.0982 6.27752
330 2 5.66718 13.0127 3.65478
336 1 1.74526 13.1251 13.4375
262 3 3.39692 12.0672 9.1487
337 2 2.06609 12.0054 13.4885
55 4 2.97084 10.6305 10.157
57 4 3.44 10.5875 15.745
324 2 6.57832 12.8588 16.9251
268 3 2.53105 11.8551 16.1761
351 2 3.5049 12.6159 12.655
270 3 4.28211 9.81005 10.6226
267 3 4.20082 10.6893 14.3624
316 3 12.703 7.30346 13.2013
107 2 8.32336 7.4368 12.5808
263 3 1.98276 10.8668 11.3284
32 4 1.43943 12.1552 17.3155
274 2 10.1268 10.1926 12.5769
339 1 12.2531 8.54375 16.138
84 1 4.90363 10.2635 16.9609
172 2 10.1749 7.36351 12.5127
171 2 8.09336 7.33019 10.2448
255 3 9.12114 11.7008 16.9325
275 2 10.7993 9.84588 16.1262
132 2 8.74448 11.6411 9.75121
79 1 9.23917 7.3958 11.8737
185 2 5.44562 11.2685 17.2723
282 3 5.60991 12.9336 14.44
186 2 5.67897 9.51049 16.4162
168 2 9.25776 8.35377 11.1749
298 2 10.9891 7.8536 11.0521
311 2 6.85466 9.57425 15.2651
309 2 8.17186 8.32258 15.6675
304 1 7.07276 8.45246 15.4418
296 4 12.5659 7.47851 11.6274
346 2 7.38212 9.30352 17.281
312 2 6.74268 7.8378 14.4742
43 4 4.85966 11.8753 13.4259
58 4 5.65861 9.94565 11.321
189 2 6.96772 7.44801 12.8871
190 2 5.73742 8.58245 12.4368
269 3 6.95727 9.71763 10.2779
271 3 5.69375 11.3701 12.2047
313 2 6.40494 8.03744 16.3635
357 2 10.9515 8.41103 15.0572
95 2 4.99335 7.07473 11.868
235 3 5.89803 12.8594 8.90618
360 2 9.75274 7.28578 16.5732
323 2 8.32967 13.2472 14.366
ITEM: TIMESTEP
100
ITEM: NUMBER OF ATOMS
362
ITEM: BOX BOUNDS xy xz yz pp pp pp
-9.2605258157779744e+00 1.8009911084603296e+01 -9.1432726529689319e+00
1.8064571466808754e-01 1.3574970797197363e+01 7.1175456863143349e-01
7.2471757627983635e-02 1.7514228242371928e+01 6.2771651186538768e-01
ITEM: ATOMS id type x y z
152 2 -1.55323 4.05857 0.950175
142 2 -1.13199 5.86976 1.64789
69 1 -1.34003 2.95093 0.573526
143 2 -0.276636 2.64152 0.489019
2 4 -0.296888 2.9184 5.20433
5 4 2.98217 2.63244 5.77115
23 4 0.803477 5.81568 5.23027
60 1 -0.353429 4.61877 5.97341
61 1 2.74027 3.09966 7.49015
114 2 2.28706 1.94135 3.13467
118 2 0.0951846 4.1575 7.57149
119 2 -1.90776 5.2155 5.60736
121 2 3.22542 4.15361 7.82698
191 3 1.36232 2.59578 5.11037
194 3 -1.18744 2.73136 3.76686
122 2 3.29329 2.19437 7.99008
59 1 2.40799 0.82154 3.125
211 3 2.11732 5.84248 6.08327
217 3 0.857782 5.62405 3.64172
26 4 3.39657 6.4929 6.81158
218 3 1.18761 4.60866 1.10719
1 4 4.21158 0.657019 2.84217
30 4 0.597677 5.7159 2.1069
200 3 4.19557 3.4575 5.14456
203 3 6.73184 3.10208 4.88881
120 2 1.60566 3.03441 7.76188
192 3 3.76488 0.833263 5.8761
123 2 -1.52058 6.20171 4.00121
283 4 -1.57853 5.14246 7.50388
212 3 4.06409 5.64488 8.17939
87 2 2.05113 0.361224 4.2146
295 3 -1.6297 6.85988 8.32256
320 2 6.13812 0.945156 4.76854
202 3 5.45311 0.889828 7.9908
199 3 4.85778 2.18565 2.95822
14 4 5.4143 3.452 4.04369
169 2 3.95295 6.3236 4.3156
116 2 1.76704 0.327798 2.34757
151 2 3.99599 3.818 1.09487
243 3 -3.74412 5.61524 2.53358
86 2 -0.957999 2.44856 8.42456
164 2 -0.371631 1.26301 7.31813
348 2 1.66836 1.31456 9.09961
287 2 1.25115 4.92903 11.068
6 4 0.817685 1.53718 11.3844
9 4 -0.354019 4.3431 12.7958
63 1 0.846791 5.9369 11.3919
68 1 2.05886 1.88395 10.0019
89 2 -0.773744 5.68874 11.4895
139 2 3.09929 3.06402 11.2377
140 2 2.02059 3.0379 9.86727
141 2 3.19802 1.45733 10.3585
195 3 0.559342 3.1328 12.2993
214 3 0.0027832 4.91502 14.1724
215 3 1.97364 4.81124 15.9296
28 4 0.447195 5.51988 15.5265
97 2 1.88305 2.94514 13.3793
128 2 1.26683 6.2763 12.4685
280 2 -0.247134 1.84126 14.1377
27 4 3.48084 3.32866 12.8694
216 3 3.84358 4.80143 13.2738
98 2 -0.738956 4.97361 16.643
29 4 4.18043 6.40822 13.5756
156 2 4.00239 1.81858 14.2144
299 2 -2.40798 6.7328 11.6269
173 2 3.93835 5.49274 10.6872
154 2 6.952 3.19045 13.3673
136 2 4.95353 1.37878 11.8359
213 3 4.6976 2.22809 13.3591
350 2 4.81423 2.31339 17.2287
210 3 4.72881 3.31548 9.40895
67 1 5.06888 0.778381 10.76
25 4 4.77702 4.92861 9.40396
91 2 5.34451 3.04634 14.4978
17 4 5.68354 1.98991 9.44749
20 4 5.61818 3.57872 16.1156
92 2 4.85558 5.28957 16.1971
72 1 4.36703 4.08868 17.5082
117 2 1.02481 6.73536 10.6583
206 3 7.14026 2.25656 9.99545
322 2 0.406364 1.673 15.9061
24 4 2.5678 4.45974 17.3199
207 3 8.48402 1.26955 12.1819
205 3 7.16385 3.67098 16.5204
96 2 6.45967 4.23761 11.7463
297 2 -0.70764 6.67111 8.88154
153 2 3.0898 2.71975 17.5025
66 1 -0.855699 12.8824 8.59457
8 4 -3.72039 7.03248 3.51082
3 4 -4.38816 12.7604 6.80429
198 3 -4.76981 12.8425 1.42311
319 2 -3.53999 11.3148 6.11059
10 4 -3.13881 9.72489 2.04722
196 3 -3.71517 8.38291 2.66374
197 3 -4.16871 10.277 1.03075
285 1 -5.38684 10.9509 7.38502
318 2 -4.16983 12.404 4.10291
347 2 -4.63435 9.70707 6.11423
178 2 -6.87326 11.0945 4.77039
361 2 -5.94511 9.43221 4.43661
284 4 -4.55209 9.31143 7.89865
81 1 -6.3337 10.3548 3.98267
93 2 -0.322465 7.11765 5.51072
177 2 -5.63063 10.9388 3.3323
221 3 3.07286 8.03098 7.09014
349 2 -5.75143 11.6344 8.27234
292 2 -2.89138 9.42742 8.40955
11 4 -4.73136 11.6019 0.296919
289 2 -6.27069 10.6724 6.74275
183 2 -6.92407 12.908 5.83765
83 1 -7.97504 12.3995 5.87362
219 3 -2.71462 10.6285 3.34453
150 2 3.794 6.64584 1.41957
223 3 1.61918 10.1114 6.28063
157 2 -1.62073 7.584 1.69209
100 2 -1.80687 13.0051 6.02939
62 1 -2.00788 7.12848 4.46835
74 1 -0.606881 7.65179 1.22296
317 1 -2.6841 12.7633 5.30712
135 2 -0.667366 11.6909 8.45505
102 2 -1.08919 10.0583 7.01436
147 2 -1.33102 8.60007 8.23598
125 2 -1.50676 8.10957 4.30584
220 3 -0.923787 12.5964 2.94227
70 1 -0.947062 9.71655 8.14476
130 2 -1.67166 9.30842 1.20219
146 2 0.238894 9.64453 8.46803
31 4 -1.60823 11.6966 4.11256
182 2 -8.82332 13.165 6.1957
222 3 -0.357507 11.1201 5.03559
134 2 -1.92297 13.1367 8.31862
101 2 0.942875 10.4004 1.19085
111 2 0.678756 10.0505 3.27128
253 3 1.19881 9.52164 2.49736
158 2 1.26137 7.20408 1.50785
88 2 0.0858201 8.45347 1.78058
124 2 -2.50608 7.11711 5.53359
291 2 -5.73425 10.0686 9.03978
266 3 2.38699 9.28579 15.8675
276 3 -7.59554 13.2544 12.3924
328 2 -5.68311 10.9046 11.146
138 2 -4.99804 12.9971 10.502
327 2 -4.95015 12.2801 12.6701
325 1 -5.99929 10.6518 12.1701
277 3 -5.46911 11.9465 16.9647
229 3 -2.90461 12.6112 16.558
272 4 -6.68926 12.1668 13.1211
273 4 -6.81819 11.5579 16.1263
278 3 -6.75804 11.8879 14.6195
137 2 -3.20856 12.7882 10.8374
294 2 -3.42231 8.66037 11.0916
286 1 -3.11413 7.07404 10.8477
358 2 -3.67103 7.68417 15.8729
359 2 -4.80835 9.67092 16.2336
230 3 1.06125 9.16668 13.5202
263 3 1.77885 10.6966 11.2166
131 2 -1.45397 10.5988 14.1659
129 2 -1.10163 9.74677 15.7783
231 3 -0.469651 11.2965 12.6083
290 2 -2.5196 6.96786 9.80239
103 2 -2.91177 10.1586 15.2998
64 1 -1.7625 10.4586 15.2496
228 3 -0.850783 13.105 14.7152
160 2 -0.0236821 7.74202 11.3361
161 2 -0.745803 9.11473 10.0767
227 3 -0.118856 11.9102 16.9736
261 3 1.91749 9.56481 8.9072
36 4 -1.42425 12.2124 16.0184
19 4 -0.17336 12.9131 13.2623
35 4 1.72218 8.22136 14.7902
37 4 0.455426 9.96636 12.2346
75 1 -0.555956 8.84459 11.1877
162 2 -1.57207 8.91419 11.7695
226 3 3.01816 7.33296 14.2185
326 2 -5.16526 10.0746 12.7043
145 2 -1.52389 10.4356 8.86809
225 3 0.579085 7.13428 15.433
353 2 -0.513338 13.2595 9.6293
159 2 -0.00588191 8.41511 17.5134
18 4 8.08104 3.44927 5.57293
22 4 6.80041 5.39783 2.16189
39 4 10.5264 3.07299 3.65251
94 2 7.89494 4.90835 6.39198
201 3 8.03734 1.92228 1.10515
331 2 13.252 1.33685 3.81656
204 3 8.54084 2.20981 6.52972
209 3 7.25117 4.34961 1.1456
232 3 10.081 1.79239 2.81175
233 3 9.35143 3.65212 4.60006
244 3 8.0573 6.03095 2.96135
16 4 9.51967 1.12902 7.56319
13 4 8.99657 0.950526 1.88122
258 3 8.28701 5.81824 7.81962
115 2 16.0663 1.21108 1.44532
174 2 11.0285 4.86614 6.04783
50 4 11.2759 6.59564 5.77924
342 2 9.10181 5.89503 0.658488
78 1 4.81973 6.65781 5.64474
354 2 15.8972 1.00786 5.7711
247 3 14.6094 4.18737 8.08949
163 2 15.4934 2.32822 7.05218
7 4 15.3797 2.45638 2.4816
76 1 16.3187 1.74211 6.5728
241 3 11.3518 4.05023 2.66351
245 3 11.8168 6.24867 0.971937
167 2 11.3066 2.56347 5.83437
109 2 11.6589 6.20841 8.22785
45 4 12.544 4.90965 1.70296
48 4 13.08 3.83436 8.23864
77 1 11.839 2.28721 4.87526
80 1 12.1544 5.80591 7.27559
106 2 13.1609 1.98709 8.27398
176 2 12.4027 3.94119 6.65286
234 3 13.0777 1.08114 0.641228
242 3 13.1582 3.80746 0.708241
166 2 11.8961 1.15081 4.74633
165 2 12.8777 2.79974 4.68168
332 2 13.6152 2.60543 2.71124
329 1 14.145 0.789221 3.07734
170 2 5.71179 5.94981 5.77346
15 4 7.74629 3.25276 0.182956
236 3 10.447 1.96669 8.62955
175 2 13.2267 6.26112 7.07121
208 3 5.6432 4.83786 3.27108
281 3 14.8183 2.83265 15.9046
188 2 8.77225 4.65789 9.94178
49 4 7.74858 5.92556 9.26653
248 3 6.25718 5.55664 9.52628
21 4 8.1565 2.57467 11.4126
42 4 10.8154 2.81294 9.92149
193 3 17.1017 0.858609 10.5881
155 2 8.06024 4.6545 12.8479
356 2 11.3322 1.07138 12.5708
237 3 9.71864 3.61103 10.699
238 3 9.74945 4.43474 16.7432
302 1 10.3402 3.51471 14.1096
305 2 10.5765 2.37076 13.8965
306 2 10.6059 4.10081 13.1996
307 2 9.22888 3.59224 14.3857
300 4 11.0617 4.2173 15.8089
108 2 6.5418 5.8368 12.7914
99 2 5.67196 6.63011 14.7032
85 1 6.13373 6.90229 13.0224
314 3 12.207 3.09631 16.2145
127 2 9.23237 6.48993 10.9432
279 4 15.3827 1.18592 15.5632
338 2 11.2458 0.830933 14.4632
73 1 7.32113 3.89249 12.4397
293 2 13.133 5.83222 10.7908
315 3 11.7378 5.59884 15.4303
40 4 13.5426 3.07977 17.0745
246 3 11.9936 4.09494 9.45163
308 2 13.8505 2.11051 13.2451
310 2 12.3147 3.55833 13.7368
303 1 13.5332 3.52772 13.3636
104 2 13.4276 4.47026 11.8557
240 3 11.8971 1.98885 11.1824
4 4 15.7587 1.40327 9.61849
44 4 13.4334 2.68215 11.445
110 2 14.2249 4.0507 14.1078
239 3 14.7116 2.16529 10.5392
126 2 15.4261 3.80361 12.8642
321 1 17.1877 1.22971 15.1015
144 2 16.0262 3.2652 17.1762
105 2 5.39107 6.68256 17.3329
133 2 8.35896 12.3559 8.41564
334 2 3.85832 13.0473 6.25927
224 3 1.09565 12.7624 6.70586
33 4 2.64215 9.49003 7.44141
65 1 8.7938 11.3532 8.78348
82 1 2.46266 11.7064 4.40006
180 2 2.18068 12.631 3.73269
52 4 2.87334 10.4046 3.17712
179 2 3.48888 11.8382 5.17653
254 3 3.55679 11.4158 2.04677
264 3 3.81592 9.11001 3.91784
181 2 4.08361 10.4595 7.28451
12 4 7.36771 10.1297 8.61854
184 2 9.49566 11.5534 6.65429
187 2 3.73387 9.29997 0.367657
34 4 1.05325 11.4726 5.69756
148 2 4.48722 7.96371 0.228171
41 4 4.36414 12.933 8.20153
249 3 12.4324 7.02003 4.72113
250 3 7.88708 7.19912 5.55529
352 2 9.66604 10.9376 8.10189
46 4 7.94726 7.50296 3.87336
335 2 5.98402 12.3739 6.46196
333 1 4.9683 11.9357 6.47677
355 2 4.88379 11.316 5.54904
38 4 4.47275 12.6455 1.58877
51 4 9.89682 9.69063 2.70765
54 4 8.57469 7.43395 6.91902
56 4 4.92757 8.07374 4.31486
113 2 5.41019 8.25453 6.16865
251 3 9.09593 8.61292 3.5288
252 3 10.5949 8.75797 1.3138
256 3 8.75529 11.0513 2.10033
257 3 6.1919 11.9525 0.955415
259 3 10.1698 7.45908 6.63818
260 3 7.97673 8.73865 7.83629
265 3 6.32779 8.16392 3.5211
90 2 6.18985 10.9147 7.62563
47 4 10.875 7.44499 0.401976
53 4 7.79341 11.0143 0.808752
343 1 7.05954 9.25956 0.905689
345 2 7.72537 8.67964 1.6211
344 2 6.09646 9.47626 1.48223
341 2 8.2634 7.72586 0.365926
71 1 4.64016 6.85794 0.662384
362 3 0.791716 12.8513 0.774477
149 2 5.83473 6.73749 1.35486
330 2 5.70986 12.7515 3.58002
288 2 12.3841 7.63696 7.90358
235 3 5.93934 12.951 8.75222
112 2 9.09611 11.9445 4.88663
336 1 1.74903 13.1963 13.405
262 3 3.232 11.9895 9.12396
337 2 1.95268 12.0108 13.3334
55 4 2.87091 10.7142 10.0554
57 4 3.35827 10.5811 15.7708
324 2 6.94944 13.24 16.9819
268 3 2.51774 12.0138 16.2246
351 2 3.62693 12.8347 12.7736
270 3 4.23728 9.99177 10.5058
267 3 4.16803 10.7458 14.2031
316 3 12.531 7.37981 13.2839
107 2 8.11833 7.71601 12.0881
323 2 8.41952 12.8931 14.9067
32 4 1.40594 12.1946 17.3761
274 2 10.3945 10.0686 12.2474
339 1 12.1724 8.60085 16.1628
84 1 4.89268 10.4156 16.918
172 2 10.0334 7.44862 12.3476
171 2 8.13224 7.47608 9.92053
255 3 9.19851 11.8738 16.7534
275 2 10.6593 9.80202 16.1483
132 2 9.04114 11.3856 9.83413
79 1 9.2259 7.49257 11.5611
185 2 5.3506 11.4269 17.2476
282 3 5.53068 12.978 14.5881
186 2 5.70151 9.76631 16.4165
168 2 9.45074 8.40733 10.8613
298 2 11.0856 7.76306 10.9481
311 2 6.98351 9.63643 15.2926
309 2 8.26687 8.30224 15.7411
304 1 7.11271 8.56486 15.5395
296 4 12.6339 7.50588 11.6704
346 2 7.49983 9.37402 17.3306
312 2 6.81438 7.94937 14.6108
43 4 4.92582 11.8871 13.4368
58 4 5.64023 10.0333 11.2144
189 2 7.00377 7.66108 12.8974
190 2 5.73517 8.60324 12.1821
269 3 6.84001 9.86274 10.1302
271 3 5.91929 11.3271 12.3346
313 2 6.42231 8.16965 16.5243
357 2 10.8838 8.38485 14.9988
95 2 4.73726 7.18102 11.936
360 2 9.86988 7.2204 16.4001
340 1 9.76209 7.44812 17.4939
301 4 12.2883 7.10374 14.8794
ITEM: TIMESTEP
200
ITEM: NUMBER OF ATOMS
362
ITEM: BOX BOUNDS xy xz yz pp pp pp
-1.1725316280904252e-01 2.6295241164524828e+01 8.2762710273241247e+00
1.8064571466808754e-01 1.3574970797197363e+01 7.1211026806603073e-01
7.2471757627983635e-02 1.7514228242371928e+01 6.2771651186538768e-01
ITEM: ATOMS id type x y z
151 2 4.09132 3.94483 1.06365
153 2 2.38683 2.17721 0.361741
245 3 11.5576 6.08415 0.921356
14 4 5.39422 3.44152 4.11624
199 3 4.91715 2.28819 2.98784
5 4 2.9909 2.51187 5.77778
202 3 5.75498 0.808471 8.14814
320 2 5.90237 0.90373 4.57471
61 1 2.66674 3.03273 7.5474
114 2 2.12057 2.05979 2.967
150 2 4.13856 6.29707 1.29198
212 3 3.97546 5.4703 8.20482
121 2 3.17808 4.00705 7.71699
192 3 3.71707 0.711725 5.97891
203 3 6.85792 2.9817 4.87965
122 2 3.25433 2.10575 8.00017
59 1 2.33367 0.907415 3.01156
200 3 4.08104 3.62531 5.15646
1 4 4.17129 0.797098 2.75079
18 4 8.26196 3.26373 5.57861
208 3 5.65777 4.78407 3.32141
22 4 6.86806 5.47543 2.33271
116 2 1.85441 0.404809 2.07345
15 4 7.74901 3.27185 0.26871
170 2 5.31673 5.85093 5.45038
94 2 7.95027 4.56424 6.6274
201 3 8.03948 1.97766 1.15514
204 3 8.70347 2.08611 6.62897
209 3 7.40407 4.49098 1.2233
233 3 9.46408 3.85638 4.72505
244 3 8.13851 6.17781 3.07774
13 4 8.92893 0.965868 2.02379
258 3 8.2854 5.78314 7.77303
80 1 12.2567 5.91153 7.21068
174 2 10.8212 4.95403 6.29346
50 4 11.1876 6.60136 5.79163
342 2 8.9361 6.08293 0.813027
109 2 11.9957 6.12464 8.24103
78 1 4.564 6.67359 5.32671
87 2 1.94485 0.377475 4.08742
100 2 7.20794 0.407031 5.88382
348 2 1.66217 1.31259 9.2369
315 3 11.6264 5.68237 15.3018
96 2 6.17026 3.94776 11.6814
205 3 7.22162 3.58534 16.6974
207 3 8.56917 1.45969 12.2729
68 1 2.05794 1.83017 10.1762
206 3 7.07991 2.16629 9.97006
139 2 3.26898 3.13925 11.0793
29 4 4.11556 6.35322 13.4061
141 2 3.21241 1.48805 10.4378
73 1 7.13138 3.9127 12.2701
92 2 4.93955 5.15627 16.1456
20 4 5.74124 3.4763 16.2336
17 4 5.69246 1.90719 9.35334
91 2 5.29362 2.76704 14.6358
25 4 4.83415 4.87543 9.46198
67 1 5.05942 0.68633 10.7601
27 4 3.34008 3.36055 12.7234
216 3 3.74578 4.82864 13.1185
210 3 4.83433 3.29993 9.35971
127 2 9.60865 6.88442 11.0876
156 2 3.85569 1.88336 14.0059
350 2 4.76619 2.36635 17.3113
173 2 4.01102 5.21596 10.8641
154 2 7.00868 3.31058 13.3001
136 2 4.75756 1.28594 11.7197
213 3 4.65652 2.1388 13.3888
188 2 8.7779 5.05562 10.1208
105 2 5.91652 6.83117 17.3155
49 4 7.70727 5.92007 9.20837
248 3 6.27484 5.4164 9.57419
21 4 8.16995 2.68521 11.3285
155 2 7.66708 4.94773 12.2723
237 3 9.58298 3.75309 10.7521
238 3 9.87304 4.19573 16.9338
302 1 10.4453 3.51991 14.2587
306 2 10.6369 4.24115 13.4661
307 2 9.34443 3.5927 14.4595
300 4 11.1152 4.17858 15.9069
108 2 6.50242 5.82815 12.5713
99 2 5.61026 6.45018 14.5689
85 1 6.0402 6.88479 12.8998
72 1 4.42553 4.14597 17.4987
66 1 16.6896 12.7242 8.48102
134 2 15.5589 13.1034 8.38805
3 4 13.0894 12.6492 6.70573
198 3 12.501 12.7111 1.46314
319 2 13.8078 11.2502 5.67398
10 4 14.3717 9.70677 2.12665
196 3 13.7099 8.30067 2.66805
197 3 13.3829 10.3202 1.09768
285 1 12.2499 10.9435 7.38868
318 2 13.1068 12.5057 4.01674
347 2 13.3172 9.63499 6.37587
178 2 10.478 10.9247 4.67739
361 2 11.7177 9.38282 4.68713
284 4 13.0833 9.30999 8.08649
81 1 11.2129 10.1705 4.08239
31 4 15.7331 11.7921 3.97825
177 2 12.0087 10.6912 3.36571
220 3 16.3254 12.7842 2.92766
349 2 11.5013 11.5434 8.03721
54 4 8.61699 7.51887 6.95049
11 4 12.7636 11.6036 0.341311
289 2 11.5856 10.309 6.62734
183 2 10.4005 12.726 5.76438
83 1 9.29331 12.2238 5.61157
219 3 14.7527 10.662 3.33768
317 1 14.6195 12.8317 5.2366
46 4 8.00187 7.5375 3.97318
133 2 8.44431 11.8891 7.97834
112 2 9.15766 11.9086 4.51407
182 2 8.508 13.0585 5.9284
288 2 12.429 7.65143 7.98192
12 4 7.35337 9.97268 8.54857
149 2 5.94957 6.85644 1.48955
184 2 9.14826 11.3449 6.27109
71 1 4.96281 6.79882 0.782787
341 2 8.30041 7.76171 0.319223
344 2 6.09443 9.60563 1.33171
345 2 7.80599 8.68319 1.48169
343 1 7.11592 9.31702 0.775519
53 4 7.88779 11.025 0.929963
47 4 10.8789 7.39085 0.454747
249 3 12.2012 6.83285 4.59578
265 3 6.37503 8.10175 3.34186
260 3 8.01273 8.75095 7.77656
259 3 10.3496 7.78246 6.52708
250 3 7.75112 7.26846 5.63169
256 3 9.00801 11.0212 2.14046
252 3 10.6516 8.69213 1.48484
251 3 9.06702 8.66632 3.56212
51 4 10.0339 9.64218 2.65245
352 2 9.63861 10.4114 8.54916
291 2 12.3309 10.4923 9.22558
353 2 17.0816 13.0489 9.50712
276 3 9.91453 12.9685 12.22
328 2 12.5047 10.9016 11.3543
138 2 12.3713 12.8915 10.324
327 2 12.6075 12.2197 12.5932
325 1 11.5152 10.68 11.9455
277 3 12.0678 12.0553 16.9581
229 3 14.6268 12.6058 16.6447
272 4 10.916 12.0654 13.0608
273 4 10.7406 11.5452 16.2787
278 3 10.7948 11.8737 14.655
137 2 14.2214 12.7132 10.886
294 2 13.9133 8.77555 10.9211
326 2 11.6213 9.78082 12.7317
36 4 16.0303 12.1264 16.0458
359 2 12.6383 9.55208 16.625
228 3 16.5541 13.0901 14.7761
103 2 14.5743 10.341 15.0093
316 3 12.6148 7.39657 13.2813
301 4 12.2459 7.17747 14.8354
340 1 9.77844 7.51726 17.4797
275 2 10.8478 9.85037 16.1908
95 2 4.71938 7.10002 11.7516
357 2 10.8281 8.4079 15.3148
313 2 6.53397 8.12037 16.5692
107 2 7.94893 7.49339 11.8542
269 3 6.60321 9.91443 9.94988
132 2 8.89283 11.5329 9.89813
189 2 6.88881 7.64653 12.8306
255 3 9.33121 11.9655 16.9559
274 2 10.5766 10.5582 11.1934
312 2 6.59914 7.91971 14.4918
346 2 7.50797 9.46638 17.2391
296 4 12.6162 7.52027 11.7107
304 1 7.01193 8.60813 15.4801
309 2 8.04207 8.62638 15.4785
311 2 6.67823 9.71878 15.4063
298 2 11.0658 7.82286 11.023
168 2 9.13613 8.63289 10.7065
339 1 12.3113 8.49873 16.2673
172 2 9.62423 8.14714 12.4537
171 2 7.94588 7.48039 9.92584
79 1 9.09577 7.77892 11.5372
65 1 8.82879 11.1068 8.8739
360 2 9.71399 7.18905 16.4057
175 2 13.308 6.36926 6.95131
236 3 10.5012 2.00414 8.74002
329 1 14.1274 0.856797 3.01526
332 2 13.7354 2.69303 2.76497
165 2 12.8059 2.72131 4.81105
331 2 13.3162 1.27983 3.74394
166 2 11.7998 1.07698 4.87017
242 3 13.0933 3.82383 0.623005
232 3 9.99738 1.77217 3.03511
234 3 12.9814 0.943088 0.632706
176 2 12.311 4.08533 6.54124
16 4 9.55969 1.08054 7.4695
106 2 13.1959 1.9838 8.12242
77 1 11.8273 2.24855 4.91664
115 2 15.9817 1.27109 1.40832
48 4 13.0959 3.81705 8.09451
45 4 12.3374 4.80724 1.6512
167 2 11.3198 2.62401 5.83514
241 3 11.5059 4.0492 2.72071
354 2 16.0015 0.837579 5.92026
247 3 14.6037 4.28914 7.96383
163 2 15.4599 2.30658 6.95587
7 4 15.4862 2.50464 2.5956
76 1 16.3122 1.69489 6.59373
152 2 15.8024 4.15668 1.14131
164 2 17.0514 1.36484 7.40602
86 2 16.3694 2.52517 8.41268
243 3 13.6802 5.51542 2.61828
142 2 16.5139 5.837 1.92906
69 1 16.1467 3.04299 0.664507
143 2 17.2355 3.02638 0.422327
2 4 17.1907 2.85444 5.3061
23 4 18.2081 5.83373 5.1501
60 1 17.0496 4.61824 5.84108
118 2 17.7107 4.45042 7.45378
330 2 15.0076 0.48394 3.60741
119 2 15.5101 5.36379 5.63379
191 3 18.8664 2.40217 5.21294
283 4 15.89 5.1588 7.48514
123 2 15.7333 6.17074 4.19829
194 3 16.3708 2.72785 3.88862
120 2 18.9884 3.09443 7.8556
211 3 19.3664 5.98281 6.17223
217 3 18.5555 5.7787 3.60826
30 4 18.2827 5.81747 2.09765
26 4 20.8102 6.51866 6.66144
218 3 18.7781 4.7758 0.988655
169 2 21.3245 6.47037 3.86872
39 4 10.6009 3.12868 3.65073
295 3 15.9597 6.78822 8.3486
281 3 14.8634 2.66699 16.0229
144 2 16.2187 3.27607 17.2234
321 1 17.2272 1.50248 15.0612
126 2 15.1567 4.36971 12.6983
239 3 14.6817 2.39509 10.541
42 4 10.8777 2.9372 9.95042
193 3 16.8508 0.930604 10.513
110 2 14.0675 4.13782 14.0578
356 2 11.2641 1.11493 12.5782
44 4 13.4011 2.50836 11.4772
4 4 15.6354 1.62581 9.65749
240 3 11.9044 2.09506 11.1885
305 2 10.6729 2.4233 13.889
104 2 13.5932 4.36315 11.8166
303 1 13.5014 3.54057 13.3055
310 2 12.3709 3.4889 13.6361
308 2 14.167 2.06089 13.3066
246 3 12.0365 4.12085 9.3665
40 4 13.4896 2.88687 17.225
314 3 12.1879 3.06377 16.4068
293 2 13.1051 6.03617 10.6622