ITEM: TIMESTEP
0
ITEM: NUMBER OF ATOMS
362
ITEM: BOX BOUNDS xy xz yz pp pp pp
-9.2559564641273155e+00 1.8000852032005888e+01 -9.1387033013182730e+00
1.8064571466808754e-01 1.3574970797197363e+01 7.1139886919683504e-01
7.2471757627983635e-02 1.7514228242371928e+01 6.2771651186538768e-01
ITEM: ATOMS id type x y z
152 2 -1.67415 4.12593 0.920527
142 2 -1.31533 5.79922 1.87834
69 1 -1.4114 2.9995 0.606294
143 2 -0.366761 2.7929 0.462889
2 4 -0.24271 2.91188 5.25873
5 4 2.95897 2.57315 5.53692
23 4 0.576589 5.94522 5.35677
60 1 -0.39075 4.57628 6.03375
61 1 2.71322 2.98473 7.35676
114 2 2.1963 1.87507 3.06692
118 2 0.0301973 4.49166 7.84268
119 2 -1.88537 4.98837 5.54923
121 2 3.159 4.02505 7.58217
191 3 1.3725 2.55488 5.15946
194 3 -1.09894 2.79368 3.92155
122 2 3.34714 2.10256 7.80459
59 1 2.38024 0.723624 3.06965
211 3 1.98537 6.01044 5.9463
217 3 0.52949 5.85417 3.7708
26 4 3.43699 6.50994 6.93325
218 3 1.20471 4.55538 1.42384
1 4 4.23983 0.722182 2.81965
30 4 0.420443 5.82585 2.20897
200 3 3.91655 3.75639 4.99817
24 4 1.95351 3.85725 0.127614
120 2 1.56078 2.93708 7.40651
192 3 3.72094 0.807151 5.76426
123 2 -1.76714 6.04861 4.28485
283 4 -1.66278 5.04505 7.54831
212 3 4.07184 5.55359 8.25399
164 2 -0.171887 1.46065 7.27589
153 2 2.28982 2.18065 0.306816
320 2 6.02944 0.894624 4.67285
202 3 5.31249 0.979164 7.98406
199 3 4.95705 2.17098 3.0628
14 4 5.33221 3.42403 3.98702
169 2 4.07285 6.35482 4.28605
150 2 3.88679 6.38819 1.22303
151 2 4.2471 3.8916 1.06191
243 3 -3.65108 5.50879 2.6264
175 2 -4.03622 6.31913 6.88868
208 3 5.40502 4.71511 2.94799
72 1 3.73872 3.49695 0.140776
116 2 1.87497 0.301245 2.14731
348 2 1.67569 1.58341 9.05351
287 2 1.59747 4.99053 11.1004
6 4 0.97214 1.44386 11.3715
9 4 -0.243806 4.46525 12.6074
63 1 0.917966 5.93274 11.3112
68 1 2.04225 2.0988 9.96652
89 2 -0.804095 5.65057 11.2875
139 2 2.96899 3.25735 11.2703
140 2 2.10799 3.2044 9.75083
141 2 3.129 1.6538 10.304
195 3 0.488714 3.11004 12.2227
214 3 0.108788 5.11442 14.1126
215 3 1.98325 4.74856 16.1711
28 4 0.615388 5.63186 15.537
97 2 1.69734 3.02743 13.3954
128 2 1.19786 6.42145 12.2838
280 2 -0.178122 2.45712 14.8011
27 4 3.32133 3.45217 12.9736
216 3 3.78913 4.88006 13.3462
98 2 -0.456699 5.14518 16.782
29 4 4.14943 6.32663 13.5979
156 2 3.82346 1.92122 14.3038
299 2 -2.64806 6.68797 11.4469
173 2 4.11883 5.48757 10.9351
126 2 -1.96047 4.05451 12.6624
136 2 4.77474 1.51543 11.8664
213 3 4.47949 2.11177 13.466
350 2 4.72501 2.40293 17.3104
210 3 4.60062 3.44907 9.60098
67 1 4.94759 0.913971 10.831
25 4 4.85809 4.97529 9.56913
91 2 5.34748 2.94714 14.5003
17 4 5.6698 2.07991 9.45971
20 4 5.60438 3.52492 16.0842
92 2 4.73881 5.16861 16.1395
96 2 6.17486 3.76192 12.1841
117 2 1.09747 6.63847 10.4096
206 3 7.18456 2.34348 10.0222
322 2 0.426608 1.1623 16.2321
205 3 7.16607 3.63643 16.4035
297 2 -1.10599 6.75276 8.87196
66 1 -0.89423 12.8467 8.54659
8 4 -3.74479 7.00981 3.67756
3 4 -4.33858 12.8771 6.66177
198 3 -4.8049 12.762 1.42734
319 2 -3.55564 11.4157 5.92383
10 4 -3.09321 9.69411 2.06174
196 3 -3.62651 8.37088 2.77074
197 3 -4.05176 10.3353 0.998664
285 1 -5.2711 11.1803 7.55989
318 2 -4.21877 12.4269 4.05482
347 2 -4.99601 10.0987 5.99726
178 2 -6.86641 11.0159 4.5301
361 2 -5.72731 9.45031 4.20388
284 4 -4.46526 9.41692 7.54407
81 1 -6.22391 10.3166 3.76876
93 2 -0.443325 7.34971 5.66187
177 2 -5.63071 10.874 2.96912
221 3 3.07 7.98519 7.27009
349 2 -5.45354 11.9314 8.46022
292 2 -2.73037 9.38875 7.65133
11 4 -4.61822 11.6445 0.231848
289 2 -6.24139 10.8596 7.08292
183 2 -6.99523 12.608 5.86047
83 1 -8.06432 12.1204 5.76643
219 3 -2.61503 10.7709 3.20332
134 2 -1.98293 13.1049 8.29717
223 3 1.55039 10.0748 6.46735
157 2 -1.84818 7.5923 1.50396
87 2 -7.11777 12.9647 4.13839
62 1 -2.08243 7.13568 4.64514
74 1 -0.754069 7.50605 1.13669
317 1 -2.60885 12.7736 5.1846
135 2 -0.73141 11.707 8.46022
102 2 -0.993231 10.271 7.20645
147 2 -1.25366 8.51043 8.1802
125 2 -1.45867 7.95468 4.21607
220 3 -0.886945 12.7711 2.85362
70 1 -0.884616 9.69165 8.2239
130 2 -1.63708 9.27302 1.23795
146 2 0.207108 9.71911 8.51399
31 4 -1.66035 11.7827 3.89966
295 3 -1.78919 6.92444 8.11342
222 3 -0.438382 11.0713 4.82322
288 2 -4.89885 7.76298 7.81354
101 2 0.930926 10.1477 1.07173
111 2 0.64967 9.87923 3.17764
253 3 1.11112 9.48227 2.38203
158 2 1.17637 7.19161 1.42624
88 2 -0.12133 8.35304 1.56573
124 2 -2.31089 7.08482 5.75716
100 2 -1.74257 13.1264 5.84738
291 2 -4.90244 10.3053 9.1346
266 3 2.43164 9.15744 15.9939
276 3 -7.36271 13.2014 12.2681
328 2 -6.35496 10.8703 11.0249
138 2 -5.0754 13.0572 10.5374
327 2 -4.9513 12.0549 12.8256
325 1 -6.23426 10.6998 12.1906
277 3 -5.48104 12.0074 17.0352
229 3 -2.76838 12.8533 16.6823
272 4 -6.61707 12.2512 13.2768
273 4 -6.87408 11.5449 16.2668
278 3 -6.9438 12.0828 14.7904
137 2 -3.25055 13.073 10.9756
294 2 -3.70879 8.70093 10.6493
286 1 -3.37479 7.0081 10.6029
358 2 -3.863 7.43357 16.0745
359 2 -4.67829 9.52915 16.1404
230 3 1.10463 9.1413 13.5506
353 2 -0.619374 13.1791 9.60553
131 2 -1.46819 10.2455 14.3565
129 2 -1.13656 9.69978 16.0769
231 3 -0.454399 11.2223 12.7335
290 2 -2.73012 6.95692 9.54656
103 2 -2.88302 10.1778 15.6764
64 1 -1.75154 10.376 15.4712
228 3 -0.801897 13.0197 14.5816
160 2 -0.011929 7.77511 11.4232
161 2 -0.578287 9.23711 10.1132
227 3 -0.0653251 11.9144 16.9331
261 3 2.0996 9.66485 8.9818
36 4 -1.2976 12.199 15.9125
19 4 -0.158105 12.8894 13.1692
35 4 1.85053 8.2538 14.7404
37 4 0.642481 10.0367 12.2896
75 1 -0.452185 8.89775 11.3265
162 2 -1.4871 8.99151 11.878
226 3 3.0887 7.3202 14.06
326 2 -5.36322 10.0852 12.4995
159 2 0.126154 7.89571 17.4959
225 3 0.687874 7.20854 15.5657
145 2 -1.57651 10.1644 8.99445
18 4 8.1339 3.39418 5.52646
22 4 6.54892 5.4545 2.02144
39 4 10.6463 3.05124 3.55614
94 2 8.02262 4.76555 6.52141
201 3 7.892 1.76322 0.899612
331 2 13.1904 1.46498 3.69037
204 3 8.58285 2.21541 6.69376
209 3 7.13002 4.33048 1.05516
232 3 10.0913 1.90404 2.57579
233 3 9.36907 3.58617 4.52953
244 3 7.64608 6.28975 2.92605
16 4 9.42229 1.18888 7.57658
13 4 9.04052 0.989354 1.72104
258 3 8.34074 6.1554 7.82066
115 2 16.2061 1.32512 1.62552
174 2 10.8996 4.98898 6.26939
50 4 11.2939 6.68422 5.85102
342 2 8.91586 5.88617 0.787058
203 3 6.75819 3.18138 4.80424
354 2 15.8283 0.768753 6.2529
247 3 14.6128 4.07577 8.1614
163 2 15.6057 2.55187 6.84238
7 4 15.4531 2.59938 2.57268
76 1 16.3651 1.64022 6.56141
241 3 11.6148 4.17897 2.79058
245 3 11.6531 6.18194 1.0999
167 2 11.0972 2.59911 5.78964
109 2 12.0369 6.07617 8.24486
45 4 12.5912 5.02946 1.71232
48 4 13.0392 3.69248 8.1408
77 1 11.6727 2.14834 4.89604
80 1 12.2987 5.89659 7.20071
106 2 13.2853 1.86932 8.10282
176 2 12.4217 4.11044 6.50421
234 3 13.0659 1.08192 0.63129
242 3 12.8984 3.82826 0.4242
166 2 11.6134 0.979517 4.8233
165 2 12.7792 2.5835 4.87943
332 2 13.67 2.79019 2.57056
329 1 14.1367 0.972695 3.02101
170 2 5.59911 6.13502 5.88074
15 4 7.7153 3.18003 0.142953
86 2 16.2591 2.36556 8.39793
281 3 14.797 2.89762 15.9014
188 2 8.94398 4.78493 10.1805
49 4 7.88074 5.8934 9.31274
248 3 6.40929 5.52876 9.59717
21 4 8.13623 2.54117 11.2258
42 4 10.929 2.9121 10.008
193 3 17.1479 0.876664 10.6612
155 2 7.80897 4.75318 12.2467
356 2 11.2494 0.99454 12.4626
237 3 9.74358 3.54615 10.8145
238 3 9.75737 4.25514 16.7622
302 1 10.4732 3.50069 14.0172
305 2 10.7221 2.35484 13.8081
306 2 10.7933 4.23684 13.2674
307 2 9.31334 3.66606 14.3335
300 4 11.1022 4.17681 15.7975
108 2 6.48891 5.63083 12.6354
99 2 5.63021 6.51386 14.6646
85 1 6.07908 6.6897 12.8991
314 3 12.1454 3.12654 16.4241
127 2 9.18184 6.41043 11.2002
279 4 15.4906 1.11513 15.4791
338 2 11.083 0.9135 14.3473
73 1 7.24618 3.72052 12.4655
293 2 12.8489 5.96426 10.3598
315 3 11.679 5.58435 15.2957
40 4 13.5772 3.07369 17.111
246 3 12.0865 4.09984 9.42049
308 2 14.0825 2.09564 13.202
310 2 12.3962 3.67208 13.3462
303 1 13.554 3.7003 13.0126
104 2 13.8203 4.39853 11.6673
240 3 11.9443 1.92136 11.1848
4 4 15.8839 1.26257 9.68591
44 4 13.4965 2.3669 11.4101
110 2 14.0641 4.30659 13.7844
239 3 14.7177 1.98335 10.5549
207 3 8.61794 1.31556 12.0783
321 1 17.2807 1.24648 15.2396
154 2 7.43487 3.13919 13.469
144 2 15.9231 3.28039 17.1819
105 2 5.46946 6.59354 17.0587
301 4 12.2088 7.05548 14.7541
236 3 10.3828 1.95884 8.80201
133 2 8.28606 12.1689 7.99707
340 1 9.06945 6.85925 0.188617
224 3 0.936963 12.8442 6.55055
33 4 2.67384 9.48348 7.50682
65 1 8.68455 11.37 8.6905
82 1 2.37074 11.6189 4.51992
180 2 2.20129 12.525 3.76561
52 4 2.81456 10.3485 3.20891
179 2 3.37851 11.7659 5.25069
254 3 3.41741 11.3086 2.05879
264 3 3.73325 9.28128 3.90364
181 2 4.24055 10.3879 7.51771
12 4 7.35936 10.0264 8.63445
184 2 9.33175 11.1436 6.43921
187 2 3.78705 9.12508 0.465704
78 1 4.73836 6.79438 5.71325
362 3 0.771998 12.8561 0.657163
41 4 4.44451 12.807 8.25086
249 3 12.4087 7.03269 4.78155
250 3 7.73232 7.1081 5.56021
352 2 9.58609 10.6622 8.30025
46 4 7.7879 7.52396 3.92285
335 2 6.02969 12.204 6.49934
333 1 4.94671 11.8241 6.49698
355 2 4.82213 11.2346 5.5564
38 4 4.53111 12.6735 1.62813
51 4 9.87876 9.54 2.5719
54 4 8.55731 7.48563 6.87552
56 4 4.84309 8.23746 4.37919
113 2 5.14896 8.5289 6.19901
251 3 8.90499 8.6399 3.54375
252 3 10.6343 8.70058 1.43622
256 3 8.86538 10.9431 1.95372
257 3 6.07126 12.0332 0.996155
259 3 10.243 7.77919 6.47196
260 3 7.96094 8.89887 7.82453
265 3 6.2211 8.30135 3.61468
90 2 6.02295 10.7282 7.63037
47 4 10.8907 7.38177 0.424048
53 4 7.64991 10.8697 0.899336
343 1 6.86342 9.15661 0.913415
345 2 7.35752 8.48535 1.66273
344 2 5.79836 9.44519 1.33797
341 2 8.26744 7.7161 0.394822
71 1 4.68867 6.71882 0.534058
112 2 9.15688 11.8648 4.6747
149 2 5.73315 6.75871 1.0905
148 2 4.40606 7.78276 0.133153
34 4 0.986172 11.4471 5.73726
182 2 8.54661 12.877 6.09901
334 2 4.01245 13.0982 6.27752
330 2 5.66718 13.0127 3.65478
336 1 1.74526 13.1251 13.4375
262 3 3.39692 12.0672 9.1487
337 2 2.06609 12.0054 13.4885
55 4 2.97084 10.6305 10.157
57 4 3.44 10.5875 15.745
324 2 6.57832 12.8588 16.9251
268 3 2.53105 11.8551 16.1761
351 2 3.5049 12.6159 12.655
270 3 4.28211 9.81005 10.6226
267 3 4.20082 10.6893 14.3624
316 3 12.703 7.30346 13.2013
107 2 8.32336 7.4368 12.5808
263 3 1.98276 10.8668 11.3284
32 4 1.43943 12.1552 17.3155
274 2 10.1268 10.1926 12.5769
339 1 12.2531 8.54375 16.138
84 1 4.90363 10.2635 16.9609
172 2 10.1749 7.36351 12.5127
171 2 8.09336 7.33019 10.2448
255 3 9.12114 11.7008 16.9325
275 2 10.7993 9.84588 16.1262
132 2 8.74448 11.6411 9.75121
79 1 9.23917 7.3958 11.8737
185 2 5.44562 11.2685 17.2723
282 3 5.60991 12.9336 14.44
186 2 5.67897 9.51049 16.4162
168 2 9.25776 8.35377 11.1749
298 2 10.9891 7.8536 11.0521
311 2 6.85466 9.57425 15.2651
309 2 8.17186 8.32258 15.6675
304 1 7.07276 8.45246 15.4418
296 4 12.5659 7.47851 11.6274
346 2 7.38212 9.30352 17.281
312 2 6.74268 7.8378 14.4742
43 4 4.85966 11.8753 13.4259
58 4 5.65861 9.94565 11.321
189 2 6.96772 7.44801 12.8871
190 2 5.73742 8.58245 12.4368
269 3 6.95727 9.71763 10.2779
271 3 5.69375 11.3701 12.2047
313 2 6.40494 8.03744 16.3635
357 2 10.9515 8.41103 15.0572
95 2 4.99335 7.07473 11.868
235 3 5.89803 12.8594 8.90618
360 2 9.75274 7.28578 16.5732
323 2 8.32967 13.2472 14.366
ITEM: TIMESTEP
100
ITEM: NUMBER OF ATOMS
362
ITEM: BOX BOUNDS xy xz yz pp pp pp
-9.2495731598419830e+00 1.8000852032005888e+01 -9.1323199970329405e+00
1.8064571466808754e-01 1.3574970797197363e+01 7.1139886919683504e-01
7.2471757627983635e-02 1.7514228242371928e+01 6.2771651186538768e-01
ITEM: ATOMS id type x y z
152 2 -1.55059 4.05857 0.950175
142 2 -1.12867 5.86976 1.64789
69 1 -1.33804 2.95093 0.573526
143 2 -0.275333 2.64152 0.489019
2 4 -0.295522 2.9184 5.20433
5 4 2.98175 2.63244 5.77115
23 4 0.805741 5.81568 5.23027
60 1 -0.351198 4.61877 5.97341
61 1 2.74017 3.09966 7.49015
114 2 2.28669 1.94135 3.13467
118 2 0.0969319 4.1575 7.57149
119 2 -1.90445 5.2155 5.60736
121 2 3.2256 4.15361 7.82698
191 3 1.3627 2.59578 5.11037
194 3 -1.1857 2.73136 3.76686
122 2 3.29245 2.19437 7.99008
59 1 2.40699 0.82154 3.125
211 3 2.11893 5.84248 6.08327
217 3 0.859952 5.62405 3.64172
26 4 3.39785 6.4929 6.81158
218 3 1.18915 4.60866 1.10719
1 4 4.2096 0.657019 2.84217
30 4 0.600051 5.7159 2.1069
200 3 4.19496 3.4575 5.14456
203 3 6.72979 3.10208 4.88881
120 2 1.60609 3.03441 7.76188
192 3 3.76317 0.833263 5.8761
123 2 -1.51694 6.20171 4.00121
283 4 -1.57546 5.14246 7.50388
212 3 4.06459 5.64488 8.17939
87 2 2.05006 0.361224 4.2146
295 3 -1.62575 6.85988 8.32256
320 2 6.13529 0.945156 4.76854
202 3 5.45054 0.889828 7.9908
199 3 4.85624 2.18565 2.95822
14 4 5.4131 3.452 4.04369
169 2 3.95391 6.3236 4.3156
116 2 1.76613 0.327798 2.34757
151 2 3.99574 3.818 1.09487
243 3 -3.73963 5.61524 2.53358
86 2 -0.956595 2.44856 8.42456
164 2 -0.371093 1.26301 7.31813
348 2 1.66787 1.31456 9.09961
287 2 1.25264 4.92903 11.068
6 4 0.817692 1.53718 11.3844
9 4 -0.352048 4.3431 12.7958
63 1 0.848984 5.9369 11.3919
68 1 2.05844 1.88395 10.0019
89 2 -0.770868 5.68874 11.4895
139 2 3.09893 3.06402 11.2377
140 2 2.02077 3.0379 9.86727
141 2 3.19681 1.45733 10.3585
195 3 0.56026 3.1328 12.2993
214 3 0.00483668 4.91502 14.1724
215 3 1.97463 4.81124 15.9296
28 4 0.449305 5.51988 15.5265
97 2 1.8832 2.94514 13.3793
128 2 1.26896 6.2763 12.4685
280 2 -0.246492 1.84126 14.1377
27 4 3.48038 3.32866 12.8694
216 3 3.84367 4.80143 13.2738
98 2 -0.736547 4.97361 16.643
29 4 4.18115 6.40822 13.5756
156 2 4.00089 1.81858 14.2144
299 2 -2.40377 6.7328 11.6269
173 2 3.93879 5.49274 10.6872
154 2 6.94973 3.19045 13.3673
136 2 4.95138 1.37878 11.8359
213 3 4.69597 2.22809 13.3591
350 2 4.81252 2.31339 17.2287
210 3 4.72778 3.31548 9.40895
67 1 5.0664 0.778381 10.76
25 4 4.77678 4.92861 9.40396
91 2 5.34295 3.04634 14.4978
17 4 5.68138 1.98991 9.44749
20 4 5.61672 3.57872 16.1156
92 2 4.85536 5.28957 16.1971
72 1 4.36643 4.08868 17.5082
117 2 1.02733 6.73536 10.6583
206 3 7.13749 2.25656 9.99545
322 2 0.406563 1.673 15.9061
24 4 2.56829 4.45974 17.3199
207 3 8.48004 1.26955 12.1819
205 3 7.16166 3.67098 16.5204
96 2 6.4582 4.23761 11.7463
297 2 -0.704258 6.67111 8.88154
153 2 3.08915 2.71975 17.5025
66 1 -0.849132 12.8824 8.59457
8 4 -3.71522 7.03248 3.51082
3 4 -4.37986 12.7604 6.80429
198 3 -4.76118 12.8425 1.42311
319 2 -3.53282 11.3148 6.11059
10 4 -3.13256 9.72489 2.04722
196 3 -3.70932 8.38291 2.66374
197 3 -4.16165 10.277 1.03075
285 1 -5.37895 10.9509 7.38502
318 2 -4.16176 12.404 4.10291
347 2 -4.62744 9.70707 6.11423
178 2 -6.86451 11.0945 4.77039
361 2 -5.93765 9.43221 4.43661
284 4 -4.54544 9.31143 7.89865
81 1 -6.32557 10.3548 3.98267
93 2 -0.318991 7.11765 5.51072
177 2 -5.62255 10.9388 3.3323
221 3 3.07506 8.03098 7.09014
349 2 -5.74303 11.6344 8.27234
292 2 -2.88552 9.42742 8.40955
11 4 -4.72335 11.6019 0.296919
289 2 -6.26249 10.6724 6.74275
183 2 -6.9144 12.908 5.83765
83 1 -7.96511 12.3995 5.87362
219 3 -2.70816 10.6285 3.34453
150 2 3.79525 6.64584 1.41957
223 3 1.62317 10.1114 6.28063
157 2 -1.6163 7.584 1.69209
100 2 -1.79972 13.0051 6.02939
62 1 -2.00354 7.12848 4.46835
74 1 -0.602921 7.65179 1.22296
317 1 -2.67662 12.7633 5.30712
135 2 -0.661487 11.6909 8.45505
102 2 -1.08389 10.0583 7.01436
147 2 -1.32635 8.60007 8.23598
125 2 -1.50217 8.10957 4.30584
220 3 -0.917227 12.5964 2.94227
70 1 -0.942025 9.71655 8.14476
130 2 -1.66634 9.30842 1.20219
146 2 0.243297 9.64453 8.46803
31 4 -1.6018 11.6966 4.11256
182 2 -8.81259 13.165 6.1957
222 3 -0.352007 11.1201 5.03559
134 2 -1.91573 13.1367 8.31862
101 2 0.947435 10.4004 1.19085
111 2 0.683235 10.0505 3.27128
253 3 1.20278 9.52164 2.49736
158 2 1.26416 7.20408 1.50785
88 2 0.0898243 8.45347 1.78058
124 2 -2.50151 7.11711 5.53359
291 2 -5.72666 10.0686 9.03978
266 3 2.39 9.28579 15.8675
276 3 -7.58549 13.2544 12.3924
328 2 -5.67517 10.9046 11.146
138 2 -4.98938 12.9971 10.502
327 2 -4.94191 12.2801 12.6701
325 1 -5.99134 10.6518 12.1701
277 3 -5.46086 11.9465 16.9647
229 3 -2.8973 12.6112 16.558
272 4 -6.68022 12.1668 13.1211
273 4 -6.80944 11.5579 16.1263
278 3 -6.74913 11.8879 14.6195
137 2 -3.20091 12.7882 10.8374
294 2 -3.41662 8.66037 11.0916
286 1 -3.10938 7.07404 10.8477
358 2 -3.66579 7.68417 15.8729
359 2 -4.80155 9.67092 16.2336
230 3 1.06491 9.16668 13.5202
263 3 1.78296 10.6966 11.2166
131 2 -1.44835 10.5988 14.1659
129 2 -1.09664 9.74677 15.7783
231 3 -0.464143 11.2965 12.6083
290 2 -2.51518 6.96786 9.80239
103 2 -2.90566 10.1586 15.2998
64 1 -1.75681 10.4586 15.2496
228 3 -0.844218 13.105 14.7152
160 2 -0.0201509 7.74202 11.3361
161 2 -0.741201 9.11473 10.0767
227 3 -0.113295 11.9102 16.9736
261 3 1.921 9.56481 8.9072
36 4 -1.41787 12.2124 16.0184
19 4 -0.167204 12.9131 13.2623
35 4 1.72502 8.22136 14.7902
37 4 0.459814 9.96636 12.2346
75 1 -0.551604 8.84459 11.1877
162 2 -1.56718 8.91419 11.7695
226 3 3.01991 7.33296 14.2185
326 2 -5.15802 10.0746 12.7043
145 2 -1.51822 10.4356 8.86809
225 3 0.581937 7.13428 15.433
353 2 -0.506773 13.2595 9.6293
159 2 -0.00213418 8.41511 17.5134
18 4 8.07848 3.44927 5.57293
22 4 6.79953 5.39783 2.16189
39 4 10.5224 3.07299 3.65251
94 2 7.89319 4.90835 6.39198
201 3 8.03411 1.92228 1.10515
331 2 13.2458 1.33685 3.81656
204 3 8.53741 2.20981 6.52972
209 3 7.24956 4.34961 1.1456
232 3 10.0767 1.79239 2.81175
233 3 9.34835 3.65212 4.60006
244 3 8.05609 6.03095 2.96135
16 4 9.51519 1.12902 7.56319
13 4 8.99237 0.950526 1.88122
258 3 8.28549 5.81824 7.81962
115 2 16.0587 1.21108 1.44532
174 2 11.0251 4.86614 6.04783
50 4 11.2733 6.59564 5.77924
342 2 9.10005 5.89503 0.658488
78 1 4.8204 6.65781 5.64474
354 2 15.8895 1.00786 5.7711
247 3 14.6039 4.18737 8.08949
163 2 15.4865 2.32822 7.05218
7 4 15.3731 2.45638 2.4816
76 1 16.3112 1.74211 6.5728
241 3 11.348 4.05023 2.66351
245 3 11.8138 6.24867 0.971937
167 2 11.3019 2.56347 5.83437
109 2 11.6558 6.20841 8.22785
45 4 12.54 4.90965 1.70296
48 4 13.0751 3.83436 8.23864
77 1 11.834 2.28721 4.87526
80 1 12.151 5.80591 7.27559
106 2 13.1551 1.98709 8.27398
176 2 12.3982 3.94119 6.65286
234 3 13.0715 1.08114 0.641228
242 3 13.1533 3.80746 0.708241
166 2 11.8905 1.15081 4.74633
165 2 12.8724 2.79974 4.68168
332 2 13.6095 2.60543 2.71124
329 1 14.1381 0.789221 3.07734
170 2 5.71166 5.94981 5.77346
15 4 7.7439 3.25276 0.182956
236 3 10.4424 1.96669 8.62955
175 2 13.2229 6.26112 7.07121
208 3 5.64259 4.83786 3.27108
281 3 14.8119 2.83265 15.9046
188 2 8.76987 4.65789 9.94178
49 4 7.74736 5.92556 9.26653
248 3 6.25652 5.55664 9.52628
21 4 8.15335 2.57467 11.4126
42 4 10.8111 2.81294 9.92149
193 3 17.0933 0.858609 10.5881
155 2 8.05816 4.6545 12.8479
356 2 11.3267 1.07138 12.5708
237 3 9.71525 3.61103 10.699
238 3 9.74635 4.43474 16.7432
302 1 10.3364 3.51471 14.1096
305 2 10.572 2.37076 13.8965
306 2 10.6023 4.10081 13.1996
307 2 9.22566 3.59224 14.3857
300 4 11.0579 4.2173 15.8089
108 2 6.54107 5.8368 12.7914
99 2 5.67203 6.63011 14.7032
85 1 6.13373 6.90229 13.0224
314 3 12.202 3.09631 16.2145
127 2 9.23066 6.48993 10.9432
279 4 15.3752 1.18592 15.5632
338 2 11.2402 0.830933 14.4632
73 1 7.31904 3.89249 12.4397
293 2 13.129 5.83222 10.7908
315 3 11.7343 5.59884 15.4303
40 4 13.5369 3.07977 17.0745
246 3 11.9893 4.09494 9.45163
308 2 13.8442 2.11051 13.2451
310 2 12.3099 3.55833 13.7368
303 1 13.5278 3.52772 13.3636
104 2 13.4227 4.47026 11.8557
240 3 11.8918 1.98885 11.1824
4 4 15.7512 1.40327 9.61849
44 4 13.4276 2.68215 11.445
110 2 14.2194 4.0507 14.1078
239 3 14.705 2.16529 10.5392
126 2 15.4199 3.80361 12.8642
321 1 17.1793 1.22971 15.1015
144 2 16.0194 3.2652 17.1762
105 2 5.39126 6.68256 17.3329
133 2 8.36066 12.3559 8.41564
334 2 3.86266 13.0473 6.25927
224 3 1.10122 12.7624 6.70586
33 4 2.64529 9.49003 7.44141
65 1 8.79478 11.3532 8.78348
82 1 2.46706 11.7064 4.40006
180 2 2.18569 12.631 3.73269
52 4 2.8769 10.4046 3.17712
179 2 3.49281 11.8382 5.17653
254 3 3.56054 11.4158 2.04677
264 3 3.81835 9.11001 3.91784
181 2 4.08652 10.4595 7.28451
12 4 7.36879 10.1297 8.61854
184 2 9.49642 11.5534 6.65429
187 2 3.7365 9.29997 0.367657
34 4 1.05821 11.4726 5.69756
148 2 4.4888 7.96371 0.228171
41 4 4.36813 12.933 8.20153
249 3 12.4294 7.02003 4.72113
250 3 7.88649 7.19912 5.55529
352 2 9.66639 10.9376 8.10189
46 4 7.94682 7.50296 3.87336
335 2 5.98695 12.3739 6.46196
333 1 4.97152 11.9357 6.47677
355 2 4.88676 11.316 5.54904
38 4 4.47666 12.6455 1.58877
51 4 9.89652 9.69063 2.70765
54 4 8.57385 7.43395 6.91902
56 4 4.92892 8.07374 4.31486
113 2 5.41136 8.25453 6.16865
251 3 9.09548 8.61292 3.5288
252 3 10.5939 8.75797 1.3138
256 3 8.75625 11.0513 2.10033
257 3 6.19462 11.9525 0.955415
259 3 10.1682 7.45908 6.63818
260 3 7.97682 8.73865 7.83629
265 3 6.3285 8.16392 3.5211
90 2 6.19193 10.9147 7.62563
47 4 10.8731 7.44499 0.401976
53 4 7.79486 11.0143 0.808752
343 1 7.06048 9.25956 0.905689
345 2 7.72567 8.67964 1.6211
344 2 6.09798 9.47626 1.48223
341 2 8.26298 7.72586 0.365926
71 1 4.64111 6.85794 0.662384
362 3 0.797584 12.8513 0.774477
149 2 5.83501 6.73749 1.35486
330 2 5.71317 12.7515 3.58002
288 2 12.3815 7.63696 7.90358
235 3 5.94254 12.951 8.75222
112 2 9.0973 11.9445 4.88663
336 1 1.75436 13.1963 13.405
262 3 3.23607 11.9895 9.12396
337 2 1.95732 12.0108 13.3334
55 4 2.8745 10.7142 10.0554
57 4 3.36145 10.5811 15.7708
324 2 6.95213 13.24 16.9819
268 3 2.52205 12.0138 16.2246
351 2 3.63115 12.8347 12.7736
270 3 4.23983 9.99177 10.5058
267 3 4.17091 10.7458 14.2031
316 3 12.5281 7.37981 13.2839
107 2 8.11777 7.71601 12.0881
323 2 8.42134 12.8931 14.9067
32 4 1.41087 12.1946 17.3761
274 2 10.394 10.0686 12.2474
339 1 12.1702 8.60085 16.1628
84 1 4.89499 10.4156 16.918
172 2 10.0317 7.44862 12.3476
171 2 8.13159 7.47608 9.92053
255 3 9.1994 11.8738 16.7534
275 2 10.6584 9.80202 16.1483
132 2 9.04199 11.3856 9.83413
79 1 9.22468 7.49257 11.5611
185 2 5.35318 11.4269 17.2476
282 3 5.534 12.978 14.5881
186 2 5.7031 9.76631 16.4165
168 2 9.44987 8.40733 10.8613
298 2 11.0836 7.76306 10.9481
311 2 6.98441 9.63643 15.2926
309 2 8.26646 8.30224 15.7411
304 1 7.11301 8.56486 15.5395
296 4 12.631 7.50588 11.6704
346 2 7.50031 9.37402 17.3306
312 2 6.81454 7.94937 14.6108
43 4 4.92891 11.8871 13.4368
58 4 5.64208 10.0333 11.2144
189 2 7.00372 7.66108 12.8974
190 2 5.73624 8.60324 12.1821
269 3 6.84119 9.86274 10.1302
271 3 5.92162 11.3271 12.3346
313 2 6.42274 8.16965 16.5243
357 2 10.8821 8.38485 14.9988
95 2 4.73812 7.18102 11.936
360 2 9.86811 7.2204 16.4001
340 1 9.76047 7.44812 17.4939
301 4 12.2853 7.10374 14.8794
ITEM: TIMESTEP
200
ITEM: NUMBER OF ATOMS
362
ITEM: BOX BOUNDS xy xz yz pp pp pp
-1.1725316280904252e-01 2.6281621664876376e+01 8.2807696328704861e+00
1.8064571466808754e-01 1.3574970797197363e+01 7.1139886919683504e-01
7.2471757627983635e-02 1.7514228242371928e+01 6.2771651186538768e-01
ITEM: ATOMS id type x y z
151 2 4.08883 3.94403 1.0643
153 2 2.38871 2.17412 0.35916
245 3 11.5522 6.08429 0.921893
14 4 5.39423 3.44162 4.11388
199 3 4.9148 2.28999 2.9879
5 4 2.98349 2.51335 5.78145
202 3 5.74847 0.809182 8.14951
320 2 5.89305 0.902399 4.57898
61 1 2.66487 3.03291 7.54505
114 2 2.12043 2.0628 2.97054
87 2 1.93734 0.373294 4.09245
212 3 3.97685 5.46963 8.20586
121 2 3.17851 4.02067 7.72463
192 3 3.71594 0.708653 5.97938
203 3 6.85418 2.98158 4.87884
122 2 3.25362 2.1032 8.00178
59 1 2.3301 0.908685 3.0127
200 3 4.07942 3.6242 5.1558
1 4 4.16639 0.79852 2.75065
18 4 8.2561 3.26367 5.57957
208 3 5.65524 4.78611 3.32095
22 4 6.86705 5.47558 2.33267
116 2 1.84915 0.407736 2.0747
15 4 7.74431 3.27207 0.268342
170 2 5.31931 5.84965 5.4503
94 2 7.94665 4.56423 6.62896
201 3 8.03272 1.97742 1.15566
204 3 8.69634 2.08712 6.62963
209 3 7.39969 4.49152 1.22252
233 3 9.45758 3.85673 4.72652
244 3 8.1374 6.17746 3.07814
13 4 8.92089 0.965668 2.02444
258 3 8.28243 5.78358 7.77391
80 1 12.2509 5.91147 7.21027
174 2 10.8107 4.95841 6.29277
50 4 11.1824 6.60229 5.79065
342 2 8.94319 6.07932 0.812429
109 2 11.9846 6.12325 8.24041
78 1 4.56707 6.67298 5.32676
150 2 4.13802 6.29723 1.28951
100 2 7.20317 0.405763 5.8823
348 2 1.66236 1.31217 9.23601
315 3 11.6191 5.6811 15.3008
96 2 6.16542 3.94819 11.6827
205 3 7.21825 3.58492 16.6948
207 3 8.56007 1.45912 12.2729
68 1 2.0579 1.82921 10.1745
206 3 7.07422 2.16732 9.96874
139 2 3.26809 3.13826 11.0805
29 4 4.11666 6.35296 13.4071
141 2 3.21023 1.4888 10.4387
73 1 7.12648 3.91129 12.2713
92 2 4.93501 5.15613 16.1493
20 4 5.73967 3.47593 16.2324
17 4 5.68841 1.90786 9.35368
91 2 5.29418 2.76672 14.6359
25 4 4.83202 4.87561 9.46254
67 1 5.05563 0.686175 10.7601
27 4 3.33997 3.35971 12.7234
216 3 3.7458 4.82862 13.118
210 3 4.82994 3.29933 9.36033
127 2 9.60568 6.88486 11.0864
156 2 3.85363 1.88254 14.006
350 2 4.76335 2.36677 17.3142
173 2 4.00791 5.21736 10.8629
154 2 7.00146 3.30854 13.3005
136 2 4.755 1.28545 11.7182
213 3 4.65441 2.13846 13.3879
188 2 8.77325 5.05615 10.1211
105 2 5.91743 6.83038 17.3165
49 4 7.70424 5.92017 9.20905
248 3 6.27245 5.41672 9.57533
21 4 8.16364 2.68485 11.329
155 2 7.66272 4.9451 12.2748
237 3 9.57716 3.75288 10.7541
238 3 9.86516 4.19704 16.9354
302 1 10.4344 3.52048 14.258
306 2 10.6245 4.24324 13.4647
307 2 9.33438 3.59317 14.4617
300 4 11.1071 4.17886 15.9057
108 2 6.50105 5.83025 12.574
99 2 5.61018 6.45186 14.5682
85 1 6.04085 6.88412 12.9005
72 1 4.42468 4.14417 17.4992
66 1 16.6872 12.7238 8.48136
134 2 15.5576 13.104 8.38871
3 4 13.0904 12.6478 6.70626
198 3 12.4997 12.7115 1.46299
319 2 13.8176 11.2435 5.67341
10 4 14.3665 9.70744 2.12638
196 3 13.7053 8.30045 2.66706
197 3 13.3787 10.3206 1.09737
285 1 12.2469 10.9433 7.38961
318 2 13.0967 12.5083 4.019
347 2 13.3098 9.63284 6.3751
178 2 10.476 10.9212 4.67585
361 2 11.7231 9.3841 4.68776
284 4 13.077 9.30791 8.08678
81 1 11.2126 10.1702 4.08192
31 4 15.728 11.7922 3.97808
177 2 12.007 10.6947 3.36114
220 3 16.3223 12.7841 2.92783
349 2 11.5018 11.5441 8.0367
54 4 8.61429 7.51935 6.95091
11 4 12.7608 11.6039 0.341054
289 2 11.5829 10.3065 6.62699
183 2 10.3832 12.7121 5.76485
83 1 9.29542 12.223 5.60989
219 3 14.747 10.6621 3.33816
317 1 14.6158 12.8306 5.23781
46 4 8.00293 7.53774 3.9725
133 2 8.44732 11.8928 7.98326
112 2 9.16092 11.9068 4.51208
182 2 8.51231 13.0587 5.93044
288 2 12.4228 7.65274 7.98136
12 4 7.35602 9.97299 8.54921
149 2 5.94697 6.85616 1.49092
184 2 9.15207 11.3415 6.26882
71 1 4.96324 6.79891 0.782896
341 2 8.30118 7.7565 0.325293
344 2 6.09695 9.6085 1.33282
345 2 7.80837 8.68205 1.48035
343 1 7.11733 9.31756 0.77719
53 4 7.8907 11.0247 0.931108
47 4 10.8745 7.3901 0.454634
249 3 12.1955 6.83304 4.59461
265 3 6.37574 8.10152 3.34137
260 3 8.01259 8.75051 7.77677
259 3 10.3474 7.78394 6.52689
250 3 7.74956 7.26943 5.63187
256 3 9.01003 11.0212 2.14158
252 3 10.6495 8.69285 1.48516
251 3 9.0675 8.66614 3.56227
51 4 10.0338 9.64188 2.65328
352 2 9.64225 10.4149 8.54622
291 2 12.3195 10.4919 9.22448
353 2 17.0788 13.047 9.50643
276 3 9.91847 12.969 12.2197
328 2 12.5042 10.8995 11.354
138 2 12.373 12.8911 10.3246
327 2 12.6088 12.2166 12.5927
325 1 11.5149 10.6787 11.9458
277 3 12.0658 12.0569 16.9579
229 3 14.6222 12.6063 16.6437
272 4 10.9177 12.0645 13.0604
273 4 10.7407 11.5456 16.2785
278 3 10.7958 11.873 14.6547
137 2 14.2223 12.7139 10.8861
294 2 13.9103 8.77039 10.9239
326 2 11.6205 9.77937 12.7318
36 4 16.0246 12.1265 16.0453
359 2 12.6406 9.54427 16.6312
228 3 16.5491 13.0904 14.7763
103 2 14.5687 10.3404 15.0098
316 3 12.608 7.39683 13.2808
301 4 12.2412 7.17739 14.8354
340 1 9.77576 7.51873 17.4801
275 2 10.8493 9.85305 16.1798
95 2 4.71997 7.10191 11.7526
357 2 10.8228 8.40353 15.3151
313 2 6.5366 8.11901 16.5702
107 2 7.94575 7.49478 11.8586
269 3 6.60793 9.91307 9.95056
132 2 8.89656 11.5291 9.90013
189 2 6.89343 7.64443 12.828
255 3 9.33195 11.9659 16.955
274 2 10.5762 10.5579 11.1951
312 2 6.6012 7.91922 14.4921
346 2 7.50948 9.46559 17.2405
296 4 12.6113 7.52087 11.7103
304 1 7.01458 8.60682 15.4809
309 2 8.04384 8.6241 15.4791
311 2 6.68345 9.71724 15.4069
298 2 11.0623 7.8238 11.02
168 2 9.13205 8.63381 10.706
339 1 12.3073 8.49787 16.2658
172 2 9.62324 8.14712 12.4509
171 2 7.94113 7.48149 9.92687
79 1 9.09306 7.779 11.5359
65 1 8.83226 11.1067 8.87439
360 2 9.71325 7.1934 16.406
175 2 13.2979 6.37262 6.95505
236 3 10.4916 2.00413 8.74002
329 1 14.1137 0.855983 3.01559
332 2 13.7252 2.69181 2.76515
165 2 12.7977 2.71822 4.81171
331 2 13.3017 1.27781 3.7466
166 2 11.7877 1.0769 4.87152
242 3 13.0838 3.82417 0.622136
232 3 9.98944 1.77234 3.03584
234 3 12.9682 0.944497 0.632904
176 2 12.308 4.0856 6.54027
16 4 9.55075 1.08081 7.46906
106 2 13.1849 1.9837 8.12242
77 1 11.8178 2.24802 4.917
115 2 15.9675 1.27214 1.40806
48 4 13.0869 3.81678 8.09529
45 4 12.3303 4.80684 1.6513
167 2 11.311 2.62475 5.83656
241 3 11.4983 4.04962 2.72059
354 2 15.9846 0.840686 5.91578
247 3 14.5944 4.28884 7.96587
163 2 15.4431 2.30607 6.95923
7 4 15.4727 2.50488 2.595
76 1 16.2952 1.69545 6.59256
152 2 15.7867 4.15653 1.14124
164 2 17.0375 1.3653 7.40206
86 2 16.3543 2.5249 8.41306
243 3 13.6727 5.51496 2.61795
142 2 16.502 5.83884 1.93059
69 1 16.1368 3.04289 0.66572
143 2 17.2231 3.03631 0.416939
2 4 17.1745 2.85462 5.30569
23 4 18.1965 5.83378 5.14976
60 1 17.0353 4.61889 5.84184
118 2 17.6996 4.45145 7.4519
330 2 14.9959 0.483977 3.6095
119 2 15.4965 5.36378 5.63281
191 3 18.8493 2.40066 5.21303
283 4 15.8795 5.15909 7.48557
123 2 15.7255 6.17083 4.19942
194 3 16.3556 2.72837 3.88828
120 2 18.9669 3.089 7.85613
211 3 19.3534 5.98076 6.17279
217 3 18.5431 5.77897 3.60858
30 4 18.2696 5.81762 2.09838
26 4 20.7966 6.51772 6.66115
218 3 18.7627 4.77498 0.989299
169 2 21.3073 6.469 3.8684
39 4 10.5939 3.12891 3.65132
295 3 15.9508 6.788 8.34828
281 3 14.8511 2.66795 16.0234
144 2 16.2091 3.2749 17.2262
321 1 17.2121 1.50272 15.0592
126 2 15.1455 4.37277 12.698
239 3 14.6702 2.39628 10.5402
42 4 10.8683 2.93806 9.95032
193 3 16.8346 0.930005 10.5126
110 2 14.055 4.13789 14.0593
356 2 11.2542 1.11286 12.5789
44 4 13.39 2.50762 11.4781
4 4 15.6211 1.62565 9.65636
240 3 11.8945 2.09337 11.1884
305 2 10.6612 2.4221 13.8875
104 2 13.5793 4.35914 11.8206
303 1 13.4881 3.54278 13.3058
310 2 12.3618 3.48885 13.6356
308 2 14.1562 2.06084 13.3078
246 3 12.0269 4.12038 9.36601
40 4 13.4783 2.88645 17.2246
314 3 12.1779 3.06334 16.406
293 2 13.0983 6.03341 10.6617
279 4 15.4438 1.28626 15.5175