LAMMPS (2 Aug 2023 - Update 2)
  using 6 OpenMP thread(s) per MPI task
Reading data file ...
  triclinic box = (0 0 0) to (17.3186 12.8149 18.6403) with tilt (-8.851 0.4589 0.2054)
WARNING: Triclinic box skew is large. LAMMPS will run inefficiently. (src/domain.cpp:220)
  1 by 1 by 2 MPI processor grid
  reading atoms ...
  371 atoms
  reading velocities ...
  371 velocities
Finding 1-2 1-3 1-4 neighbors ...
  special bond factors lj:    0        0        0       
  special bond factors coul:  0        0        0       
     0 = max # of 1-2 neighbors
     0 = max # of 1-3 neighbors
     0 = max # of 1-4 neighbors
     1 = max # of special neighbors
  special bonds CPU = 0.000 seconds
  read_data CPU = 0.011 seconds
WARNING: Van der Waals parameters for element SI indicate inner wall+shielding, but earlier atoms indicate a different van der Waals method. This may cause division-by-zero errors. Keeping van der Waals setting for earlier atoms. (src/REAXFF/reaxff_ffield.cpp:251)

CITE-CITE-CITE-CITE-CITE-CITE-CITE-CITE-CITE-CITE-CITE-CITE-CITE

Your simulation uses code contributions which should be cited:
- pair reaxff command: doi:10.1016/j.parco.2011.08.005
- fix qeq/reaxff command: doi:10.1016/j.parco.2011.08.005
The log file lists these citations in BibTeX format.

CITE-CITE-CITE-CITE-CITE-CITE-CITE-CITE-CITE-CITE-CITE-CITE-CITE

Neighbor list info ...
  update: every = 10 steps, delay = 0 steps, check = yes
  max neighbors/atom: 2000, page size: 100000
  master list distance cutoff = 12
  ghost atom cutoff = 12
  binsize = 6, bins = 5 3 4
  2 neighbor lists, perpetual/occasional/extra = 2 0 0
  (1) pair reaxff, perpetual
      attributes: half, newton off, ghost
      pair build: half/bin/newtoff/ghost
      stencil: full/ghost/bin/3d
      bin: standard
  (2) fix qeq/reaxff, perpetual, copy from (1)
      attributes: half, newton off
      pair build: copy
      stencil: none
      bin: none
Setting up Verlet run ...
  Unit style    : real
  Current step  : 0
  Time step     : 0.5
Per MPI rank memory allocation (min/avg/max) = 203.5 | 203.8 | 204.1 Mbytes
   Step          Temp          Press         Density         Volume         PotEng         TotEng    
         0   300            3087.8038      1.6093426      4136.956      -38178.952     -37848.082    
       100   294.19476     -4249.0372      1.609339       4136.9653     -38182.145     -37857.678    
       200   309.87926      3107.1207      1.6165145      4118.602      -38211.338     -37869.573    
       300   279.90024     -5417.2105      1.6110184      4132.6528     -38202.611     -37893.909    
       400   282.14943      6374.5594      1.619693       4110.5195     -38197.412     -37886.23     
       500   309.61703     -10892.585      1.6198176      4110.2034     -38196.389     -37854.913    
       600   287.90636      1624.9134      1.6267087      4092.7915     -38164.873     -37847.341    
       700   300.62036      488.95672      1.6377975      4065.0812     -38187.269     -37855.715    
       800   289.91235     -9756.4462      1.6474599      4041.2393     -38195.078     -37875.334    
       900   281.39424     -9893           1.6575094      4016.7371     -38213.893     -37903.544    
      1000   296.91509      2050.5383      1.6709212      3984.4966     -38220.375     -37892.908    
Loop time of 38.2505 on 12 procs for 1000 steps with 371 atoms

Performance: 1.129 ns/day, 21.250 hours/ns, 26.143 timesteps/s, 9.699 katom-step/s
98.8% CPU use with 2 MPI tasks x 6 OpenMP threads

MPI task timing breakdown:
Section |  min time  |  avg time  |  max time  |%varavg| %total
---------------------------------------------------------------
Pair    | 31.467     | 31.982     | 32.498     |   9.1 | 83.61
Bond    | 0.0016391  | 0.0016924  | 0.0017457  |   0.1 |  0.00
Neigh   | 0.37119    | 0.38198    | 0.39277    |   1.7 |  1.00
Comm    | 0.13692    | 0.65355    | 1.1702     |  63.9 |  1.71
Output  | 0.00044356 | 0.00067495 | 0.00090633 |   0.0 |  0.00
Modify  | 5.2034     | 5.2154     | 5.2275     |   0.5 | 13.63
Other   |            | 0.0148     |            |       |  0.04

Nlocal:          185.5 ave         197 max         174 min
Histogram: 1 0 0 0 0 0 0 0 0 1
Nghost:           5116 ave        5139 max        5093 min
Histogram: 1 0 0 0 0 0 0 0 0 1
Neighs:         111048 ave      117541 max      104556 min
Histogram: 1 0 0 0 0 0 0 0 0 1

Total # of neighbors = 222097
Ave neighs/atom = 598.6442
Ave special neighs/atom = 0
Neighbor list builds = 13
Dangerous builds = 0
Setting up Verlet run ...
  Unit style    : real
  Current step  : 1000
  Time step     : 0.5
Per MPI rank memory allocation (min/avg/max) = 204.4 | 204.7 | 205 Mbytes
   Step          Temp          Press         Density         Volume         PotEng         TotEng    
      1000   296.91509      2050.5486      1.6709212      3984.4966     -38220.375     -37892.908    
      1100   292.68044     -4541.7738      1.6527866      4028.2149     -38170.34      -37847.542    
      1200   314.20027     -2567.0087      1.6359497      4069.6726     -38185.168     -37838.637    
      1300   310.77797      9702.6426      1.6345179      4073.2375     -38192.938     -37850.181    
      1400   284.88802     -1742.8824      1.6329139      4077.2388     -38189.17      -37874.967    
      1500   298.53513     -16498.239      1.6207338      4107.8799     -38211.262     -37882.008    
Loop time of 19.3155 on 12 procs for 500 steps with 371 atoms

Performance: 1.118 ns/day, 21.462 hours/ns, 25.886 timesteps/s, 9.604 katom-step/s
99.1% CPU use with 2 MPI tasks x 6 OpenMP threads

MPI task timing breakdown:
Section |  min time  |  avg time  |  max time  |%varavg| %total
---------------------------------------------------------------
Pair    | 15.873     | 16.159     | 16.445     |   7.1 | 83.66
Bond    | 0.00080458 | 0.00082968 | 0.00085478 |   0.0 |  0.00
Neigh   | 0.14394    | 0.14578    | 0.14761    |   0.5 |  0.75
Comm    | 0.08007    | 0.36647    | 0.65287    |  47.3 |  1.90
Output  | 0.00019081 | 0.00029197 | 0.00039314 |   0.0 |  0.00
Modify  | 2.6337     | 2.6362     | 2.6388     |   0.2 | 13.65
Other   |            | 0.007285   |            |       |  0.04

Nlocal:          185.5 ave         196 max         175 min
Histogram: 1 0 0 0 0 0 0 0 0 1
Nghost:           5020 ave        5050 max        4990 min
Histogram: 1 0 0 0 0 0 0 0 0 1
Neighs:         108701 ave      114628 max      102774 min
Histogram: 1 0 0 0 0 0 0 0 0 1

Total # of neighbors = 217402
Ave neighs/atom = 585.98922
Ave special neighs/atom = 0
Neighbor list builds = 5
Dangerous builds = 0
  using 6 OpenMP thread(s) per MPI task
Reading data file ...
  triclinic box = (0 0 0) to (17.3186 12.8149 18.6403) with tilt (-8.851 0.4589 0.2054)
WARNING: Triclinic box skew is large. LAMMPS will run inefficiently. (src/domain.cpp:220)
  1 by 1 by 2 MPI processor grid
  reading atoms ...
  371 atoms
  reading velocities ...
  371 velocities
Finding 1-2 1-3 1-4 neighbors ...
  special bond factors lj:    0        0        0       
  special bond factors coul:  0        0        0       
     0 = max # of 1-2 neighbors
     0 = max # of 1-3 neighbors
     0 = max # of 1-4 neighbors
     1 = max # of special neighbors
  special bonds CPU = 0.000 seconds
  read_data CPU = 0.004 seconds
WARNING: Van der Waals parameters for element SI indicate inner wall+shielding, but earlier atoms indicate a different van der Waals method. This may cause division-by-zero errors. Keeping van der Waals setting for earlier atoms. (src/REAXFF/reaxff_ffield.cpp:251)
Neighbor list info ...
  update: every = 10 steps, delay = 0 steps, check = yes
  max neighbors/atom: 2000, page size: 100000
  master list distance cutoff = 12
  ghost atom cutoff = 12
  binsize = 6, bins = 5 3 4
  2 neighbor lists, perpetual/occasional/extra = 2 0 0
  (1) pair reaxff, perpetual
      attributes: half, newton off, ghost
      pair build: half/bin/newtoff/ghost
      stencil: full/ghost/bin/3d
      bin: standard
  (2) fix qeq/reaxff, perpetual, copy from (1)
      attributes: half, newton off
      pair build: copy
      stencil: none
      bin: none
Setting up Verlet run ...
  Unit style    : real
  Current step  : 0
  Time step     : 0.5
Per MPI rank memory allocation (min/avg/max) = 203.5 | 203.8 | 204.1 Mbytes
   Step          Temp          Press         Density         Volume         PotEng         TotEng    
         0   400            4306.4791      1.6093426      4136.956      -38178.952     -37737.792    
       100   361.80591     -1157.0291      1.6077609      4141.0261     -38104.282     -37705.246    
       200   404.50496     -1450.463       1.6119318      4130.3111     -38110.823     -37664.695    
       300   383.79015     -15886.392      1.5981431      4165.9473     -38054.104     -37630.822    
       400   412.60839      10206.054      1.6033566      4152.401      -38053.758     -37598.692    
       500   419.28861     -11159.408      1.6051048      4147.8786     -38055.646     -37593.213    
       600   382.99909      240.2688       1.6043181      4149.9124     -38050.972     -37628.563    
       700   379.72014     -2208.2992      1.6096583      4136.1446     -38075.79      -37656.997    
       800   406.13138     -16401.206      1.6339988      4074.5316     -38100.958     -37653.036    
       900   390.98841     -18463.911      1.6453235      4046.4868     -38066.565     -37635.344    
      1000   393.69555     -58.065375      1.6538968      4025.5109     -38054.097     -37619.89     
Loop time of 37.8935 on 12 procs for 1000 steps with 371 atoms

Performance: 1.140 ns/day, 21.052 hours/ns, 26.390 timesteps/s, 9.791 katom-step/s
99.2% CPU use with 2 MPI tasks x 6 OpenMP threads

MPI task timing breakdown:
Section |  min time  |  avg time  |  max time  |%varavg| %total
---------------------------------------------------------------
Pair    | 31.227     | 31.657     | 32.086     |   7.6 | 83.54
Bond    | 0.0016668  | 0.0017855  | 0.0019041  |   0.3 |  0.00
Neigh   | 0.43159    | 0.43799    | 0.4444     |   1.0 |  1.16
Comm    | 0.12947    | 0.56003    | 0.99058    |  57.5 |  1.48
Output  | 0.00039167 | 0.00062414 | 0.0008566  |   0.0 |  0.00
Modify  | 5.2134     | 5.2218     | 5.2302     |   0.4 | 13.78
Other   |            | 0.01471    |            |       |  0.04

Nlocal:          185.5 ave         197 max         174 min
Histogram: 1 0 0 0 0 0 0 0 0 1
Nghost:         5077.5 ave        5100 max        5055 min
Histogram: 1 0 0 0 0 0 0 0 0 1
Neighs:         110115 ave      116617 max      103613 min
Histogram: 1 0 0 0 0 0 0 0 0 1

Total # of neighbors = 220230
Ave neighs/atom = 593.61186
Ave special neighs/atom = 0
Neighbor list builds = 15
Dangerous builds = 0
Setting up Verlet run ...
  Unit style    : real
  Current step  : 1000
  Time step     : 0.5
Per MPI rank memory allocation (min/avg/max) = 203.6 | 203.9 | 204.2 Mbytes
   Step          Temp          Press         Density         Volume         PotEng         TotEng    
      1000   393.69555     -58.014874      1.6538968      4025.5109     -38054.097     -37619.89     
      1100   397.69662      2059.897       1.6508553      4032.9275     -38053.82      -37615.201    
      1200   397.49341     -9884.4501      1.6389961      4062.1083     -38060.688     -37622.293    
      1300   402.94292     -8596.5095      1.6330509      4076.8967     -38068.487     -37624.081    
      1400   395.35649     -9167.2866      1.6297947      4085.042      -38077.157     -37641.119    
      1500   358.72501     -5531.1276      1.6118242      4130.5867     -38080.855     -37685.217    
Loop time of 19.2203 on 12 procs for 500 steps with 371 atoms

Performance: 1.124 ns/day, 21.356 hours/ns, 26.014 timesteps/s, 9.651 katom-step/s
99.0% CPU use with 2 MPI tasks x 6 OpenMP threads

MPI task timing breakdown:
Section |  min time  |  avg time  |  max time  |%varavg| %total
---------------------------------------------------------------
Pair    | 15.828     | 16.063     | 16.299     |   5.9 | 83.57
Bond    | 0.00081925 | 0.00088036 | 0.00094147 |   0.0 |  0.00
Neigh   | 0.20351    | 0.20404    | 0.20457    |   0.1 |  1.06
Comm    | 0.065573   | 0.30128    | 0.53699    |  42.9 |  1.57
Output  | 0.00017656 | 0.00027629 | 0.00037603 |   0.0 |  0.00
Modify  | 2.6422     | 2.6433     | 2.6444     |   0.1 | 13.75
Other   |            | 0.007402   |            |       |  0.04

Nlocal:          185.5 ave         196 max         175 min
Histogram: 1 0 0 0 0 0 0 0 0 1
Nghost:         4983.5 ave        5014 max        4953 min
Histogram: 1 0 0 0 0 0 0 0 0 1
Neighs:         107764 ave      113729 max      101798 min
Histogram: 1 0 0 0 0 0 0 0 0 1

Total # of neighbors = 215527
Ave neighs/atom = 580.93531
Ave special neighs/atom = 0
Neighbor list builds = 7
Dangerous builds = 0
  using 6 OpenMP thread(s) per MPI task
Reading data file ...
  triclinic box = (0 0 0) to (17.3186 12.8149 18.6403) with tilt (-8.851 0.4589 0.2054)
WARNING: Triclinic box skew is large. LAMMPS will run inefficiently. (src/domain.cpp:220)
  1 by 1 by 2 MPI processor grid
  reading atoms ...
  371 atoms
  reading velocities ...
  371 velocities
Finding 1-2 1-3 1-4 neighbors ...
  special bond factors lj:    0        0        0       
  special bond factors coul:  0        0        0       
     0 = max # of 1-2 neighbors
     0 = max # of 1-3 neighbors
     0 = max # of 1-4 neighbors
     1 = max # of special neighbors
  special bonds CPU = 0.000 seconds
  read_data CPU = 0.004 seconds
WARNING: Van der Waals parameters for element SI indicate inner wall+shielding, but earlier atoms indicate a different van der Waals method. This may cause division-by-zero errors. Keeping van der Waals setting for earlier atoms. (src/REAXFF/reaxff_ffield.cpp:251)
Neighbor list info ...
  update: every = 10 steps, delay = 0 steps, check = yes
  max neighbors/atom: 2000, page size: 100000
  master list distance cutoff = 12
  ghost atom cutoff = 12
  binsize = 6, bins = 5 3 4
  2 neighbor lists, perpetual/occasional/extra = 2 0 0
  (1) pair reaxff, perpetual
      attributes: half, newton off, ghost
      pair build: half/bin/newtoff/ghost
      stencil: full/ghost/bin/3d
      bin: standard
  (2) fix qeq/reaxff, perpetual, copy from (1)
      attributes: half, newton off
      pair build: copy
      stencil: none
      bin: none
Setting up Verlet run ...
  Unit style    : real
  Current step  : 0
  Time step     : 0.5
Per MPI rank memory allocation (min/avg/max) = 203.5 | 203.8 | 204.1 Mbytes
   Step          Temp          Press         Density         Volume         PotEng         TotEng    
         0   500            5525.1543      1.6093426      4136.956      -38178.952     -37627.502    
       100   416.02325      2793.7093      1.6066006      4144.0166     -38033.034     -37574.202    
       200   475.54389     -227.87379      1.6087201      4138.5569     -38030.981     -37506.504    
       300   467.04021     -21248.309      1.5922471      4181.3733     -37949.477     -37434.379    
       400   515.69634      177.59595      1.5964622      4170.3335     -37944.376     -37375.615    
       500   517.67227     -17306.556      1.5950203      4174.1033     -37919.298     -37348.358    
       600   497.45042      5862.3585      1.592976       4179.46       -37917.022     -37368.384    
       700   485.92499      12367.837      1.5968363      4169.3566     -37953.575     -37417.648    
       800   507.52196      10102.197      1.6195802      4110.8058     -37990.78      -37431.034    
       900   504.2524       36.847796      1.6287657      4087.6228     -37955.296     -37399.156    
      1000   530.17395     -19173.329      1.6395118      4060.8305     -37943.253     -37358.524    
Loop time of 37.9827 on 12 procs for 1000 steps with 371 atoms

Performance: 1.137 ns/day, 21.102 hours/ns, 26.328 timesteps/s, 9.768 katom-step/s
99.1% CPU use with 2 MPI tasks x 6 OpenMP threads

MPI task timing breakdown:
Section |  min time  |  avg time  |  max time  |%varavg| %total
---------------------------------------------------------------
Pair    | 30.917     | 31.49      | 32.063     |  10.2 | 82.91
Bond    | 0.0016113  | 0.0017196  | 0.001828   |   0.3 |  0.00
Neigh   | 0.51756    | 0.52571    | 0.53387    |   1.1 |  1.38
Comm    | 0.12967    | 0.70382    | 1.278      |  68.4 |  1.85
Output  | 0.00036597 | 0.00059103 | 0.00081609 |   0.0 |  0.00
Modify  | 5.2359     | 5.2457     | 5.2555     |   0.4 | 13.81
Other   |            | 0.01506    |            |       |  0.04

Nlocal:          185.5 ave         195 max         176 min
Histogram: 1 0 0 0 0 0 0 0 0 1
Nghost:           5027 ave        5047 max        5007 min
Histogram: 1 0 0 0 0 0 0 0 0 1
Neighs:         109038 ave      114224 max      103852 min
Histogram: 1 0 0 0 0 0 0 0 0 1

Total # of neighbors = 218076
Ave neighs/atom = 587.80593
Ave special neighs/atom = 0
Neighbor list builds = 18
Dangerous builds = 0
Setting up Verlet run ...
  Unit style    : real
  Current step  : 1000
  Time step     : 0.5
Per MPI rank memory allocation (min/avg/max) = 203.6 | 203.9 | 204.1 Mbytes
   Step          Temp          Press         Density         Volume         PotEng         TotEng    
      1000   530.17395     -19173.158      1.6395118      4060.8305     -37943.253     -37358.524    
      1100   495.54302     -19930.374      1.6316066      4080.5055     -37916.274     -37369.739    
      1200   484.22507      370.92451      1.6307916      4082.5447     -37921.151     -37387.1      
      1300   502.38804      10055.349      1.621058       4107.0584     -37950.113     -37396.029    
      1400   498.56275     -724.44         1.6161459      4119.5412     -37962.052     -37412.187    
      1500   501.94318     -30243.928      1.5961906      4171.0431     -37962.843     -37409.25     
Loop time of 19.2288 on 12 procs for 500 steps with 371 atoms

Performance: 1.123 ns/day, 21.365 hours/ns, 26.003 timesteps/s, 9.647 katom-step/s
98.9% CPU use with 2 MPI tasks x 6 OpenMP threads

MPI task timing breakdown:
Section |  min time  |  avg time  |  max time  |%varavg| %total
---------------------------------------------------------------
Pair    | 15.595     | 15.902     | 16.208     |   7.7 | 82.70
Bond    | 0.00081972 | 0.00086711 | 0.00091451 |   0.0 |  0.00
Neigh   | 0.28894    | 0.2933     | 0.29766    |   0.8 |  1.53
Comm    | 0.064257   | 0.37114    | 0.67802    |  50.4 |  1.93
Output  | 0.00018634 | 0.00028338 | 0.00038043 |   0.0 |  0.00
Modify  | 2.649      | 2.654      | 2.6591     |   0.3 | 13.80
Other   |            | 0.007578   |            |       |  0.04

Nlocal:          185.5 ave         197 max         174 min
Histogram: 1 0 0 0 0 0 0 0 0 1
Nghost:         4856.5 ave        4892 max        4821 min
Histogram: 1 0 0 0 0 0 0 0 0 1
Neighs:         106308 ave      112771 max       99845 min
Histogram: 1 0 0 0 0 0 0 0 0 1

Total # of neighbors = 212616
Ave neighs/atom = 573.08895
Ave special neighs/atom = 0
Neighbor list builds = 10
Dangerous builds = 0
  using 6 OpenMP thread(s) per MPI task
Total wall time: 0:02:52
