ITEM: TIMESTEP
0
ITEM: NUMBER OF ATOMS
366
ITEM: BOX BOUNDS xy xz yz pp pp pp
-8.2538999999999998e+00 1.6741099999999999e+01 -8.2538999999999998e+00
-6.4910000000000001e-01 1.3422400000000000e+01 6.1619999999999997e-01
0.0000000000000000e+00 1.6908999999999999e+01 -6.4910000000000001e-01
ITEM: ATOMS id type x y z
3 4 0.727035 2.46681 4.71405
8 4 -0.392596 4.11215 7.37765
20 4 7.64848 0.0570593 1.75609
21 4 3.85397 1.76323 4.26858
25 4 6.57914 1.69481 6.09231
29 4 5.32787 3.74867 7.89618
31 4 4.17067 5.75355 5.62954
64 1 0.650239 3.56917 3.21945
97 3 -1.20934 3.0131 8.41952
67 1 -1.71031 5.275 6.79784
70 1 3.81499 0.243524 3.15258
71 1 3.87595 3.12822 2.89914
78 1 2.31989 5.64622 5.15749
98 3 0.173903 3.41779 5.98979
114 3 2.34957 1.81439 4.81215
115 3 6.9733 1.26081 0.944684
118 3 5.20523 1.73688 5.15566
119 3 6.90045 0.171009 6.62745
343 2 4.49695 4.79467 0.397108
125 3 0.894509 5.07308 8.14672
126 3 4.6546 4.65226 6.59852
201 2 -0.290687 2.93433 2.74019
202 2 1.44879 3.79603 2.40462
203 2 0.239783 4.50718 3.66578
317 1 -1.55496 5.10356 0.253166
207 2 -1.59404 6.01968 7.72278
342 1 3.94228 5.69357 0.766964
319 2 -2.54511 4.57349 0.247705
209 2 -1.53512 5.82903 5.80166
344 2 2.8195 5.42321 1.05141
217 2 3.12973 0.499971 2.32498
218 2 2.7944 3.38689 2.56415
219 2 4.47312 2.62916 2.05301
220 2 4.44487 4.11083 3.35257
239 2 2.55655 5.34378 4.04364
241 2 1.869 4.75743 5.75574
312 2 0.699054 0.291425 6.65646
288 1 -2.52518 6.40537 3.74318
291 2 -2.18204 5.42239 3.19137
292 2 -2.50006 6.11098 4.86548
361 2 3.23797 0.206699 0.918097
310 1 1.33555 0.680119 7.56838
341 2 3.19488 2.59645 1.06454
313 2 1.90317 1.64355 7.32766
318 2 -1.24641 5.44649 1.27767
208 2 -2.65678 4.64285 6.84998
6 4 0.960092 1.62051 11.1447
123 3 4.11368 3.03231 8.87041
360 2 5.16755 -0.22772 16.3999
10 4 -0.117419 3.75307 13.2086
12 4 -1.8268 6.24026 11.5759
24 4 3.866 1.85325 9.85269
340 2 2.43294 2.44916 16.6126
27 4 6.72437 1.62785 11.4028
30 4 1.8255 5.9438 9.06231
76 1 1.37803 5.07702 10.6842
250 2 3.76503 5.56735 12.8089
95 3 -0.251999 1.48012 10.0819
96 3 1.13851 0.169817 11.7749
81 1 4.46879 5.37089 11.9091
99 3 -0.979586 3.03662 14.3572
100 3 0.424101 2.62037 12.2253
120 3 5.89603 2.7272 16.5684
102 3 -2.5231 5.77339 10.196
103 3 -1.09996 4.89383 12.4087
116 3 3.76771 0.445955 9.02261
117 3 2.36523 1.96562 10.5617
121 3 5.17773 1.90765 10.7922
122 3 6.83019 0.173169 12.269
226 2 5.88857 3.31133 13.2167
127 3 1.2899 4.4384 13.909
337 2 3.6064 0.273868 14.258
233 2 1.92902 4.14712 10.8858
234 2 0.253143 4.82487 10.6147
235 2 1.56342 5.87109 11.5557
249 2 4.01442 4.56526 11.3028
359 2 -0.189818 3.84375 16.6986
296 4 4.79025 2.25355 15.6226
297 1 5.58864 0.713556 14.7319
298 1 4.18816 3.54054 14.28
299 2 6.61918 0.553653 15.1274
300 2 5.65423 1.32882 13.7538
301 2 5.13365 -0.288726 14.4775
302 2 3.96361 3.30656 13.1829
303 2 4.66843 4.56686 14.4614
304 2 3.15643 3.62489 14.9279
32 4 1.39846 6.03643 14.4076
314 1 -0.00448583 1.07777 16.0478
315 2 0.968447 0.877104 15.3615
334 1 2.49232 0.297211 14.2018
335 2 1.97029 -0.341118 15.0875
336 2 2.08453 1.37422 14.0703
130 3 3.33535 6.27762 9.18618
339 2 3.13035 0.567212 16.6705
358 2 0.170065 1.94554 16.7919
338 1 3.33682 1.70983 16.8221
7 4 -1.22761 6.08644 16.1342
311 2 0.693851 0.808382 8.51295
23 4 -0.262374 13.0002 7.74108
15 4 -3.02998 8.91658 7.67143
17 4 -4.38707 11.0642 6.00599
362 2 -5.02891 13.0167 3.99873
35 4 -1.58357 11.4322 3.90002
216 2 -3.34559 13.2018 2.89031
69 1 -1.9924 8.41659 6.14538
82 1 1.73907 8.31423 2.88826
83 1 -1.9125 9.80327 2.90192
84 1 1.55157 9.50514 5.86877
106 3 -5.76548 10.8504 4.89239
107 3 -4.16108 9.88838 7.09338
108 3 -4.81591 12.4819 6.65878
132 3 -1.66495 12.5852 2.70542
133 3 -2.99918 11.2708 4.96776
134 3 1.26465 9.98747 0.670742
138 3 -0.130052 11.2271 4.53042
213 2 -1.60165 9.3664 5.68055
214 2 -2.34486 7.74101 5.29868
215 2 -1.14899 7.90137 6.75185
230 2 1.21517 8.05362 7.71041
332 1 -3.98722 13.3044 0.481155
321 2 -0.311362 8.56498 0.234721
251 2 1.67267 8.7713 3.99537
252 2 2.38832 7.34955 2.87615
253 2 0.671983 8.19768 2.36992
254 2 -1.95328 10.182 1.78398
255 2 -2.81345 9.29627 3.3518
256 2 -0.96159 9.29719 3.18781
289 1 -4.29009 7.49956 1.47397
258 2 0.743926 8.9792 5.22243
259 2 1.13531 9.63117 6.96117
331 2 -5.53615 11.1585 2.07664
290 2 -1.90297 7.28718 3.44182
294 2 -3.30416 8.04289 1.18783
320 1 -1.36799 8.19296 0.484179
333 2 -3.10735 13.3697 1.24147
322 2 -1.53609 7.88661 1.53563
1 4 -5.43381 12.9803 8.11559
324 1 -7.19875 12.0779 2.85295
354 3 0.144493 12.4838 0.623014
326 2 -6.20217 12.6534 2.80496
240 2 1.76467 6.60408 5.34349
328 1 -4.73121 10.5219 1.49119
329 2 -3.71661 10.2784 2.11369
330 2 -5.19283 9.56547 1.00683
244 2 3.38981 7.72605 7.06642
139 3 0.743824 11.9712 6.81103
323 2 -2.04858 9.01255 0.143843
104 3 -3.61186 7.47494 8.43787
4 4 -6.54315 12.5689 12.8629
14 4 -3.53214 10.9017 16.8345
238 2 -0.736589 8.06927 10.1012
18 4 -3.12514 8.54714 13.2301
19 4 -4.3516 10.5896 11.1848
28 4 4.00581 6.31193 16.3824
135 3 -1.90867 9.81955 8.55871
36 4 1.50994 10.6218 16.5737
37 4 -1.63935 10.9887 9.72552
39 4 2.52933 8.36058 12.67
40 4 -1.0743 10.338 14.994
41 4 0.9438 10.7155 11.456
68 1 -4.8078 10.6972 15.4471
75 1 0.957105 7.70087 8.77357
77 1 -0.463845 7.5493 11.104
232 2 -0.158416 7.6748 8.83562
105 3 -6.37708 11.8615 8.80873
109 3 -4.43704 7.95063 14.3256
110 3 -2.61087 7.14457 12.5705
111 3 -5.57243 9.83775 10.3654
112 3 -3.67332 9.58719 12.2436
113 3 -5.22551 11.6912 12.2811
236 2 -0.624285 8.23241 11.9833
128 3 2.53253 6.13326 15.6672
237 2 0.504696 6.99432 11.0931
231 2 1.3272 8.37997 9.54692
136 3 -1.05162 12.2144 8.86992
137 3 -3.13513 11.2393 10.3713
140 3 1.82907 7.06755 13.1761
142 3 -1.75709 9.24875 13.9493
143 3 0.406812 10.0707 15.4808
144 3 -0.99771 11.7471 14.2682
145 3 -2.12718 10.3662 16.3373
146 3 -0.493591 10.4425 10.776
147 3 1.38339 9.35497 12.1433
26 4 -0.210195 12.783 13.3071
210 2 -5.68483 10.1725 16.0311
211 2 -4.5497 10.388 14.3965
212 2 -4.91685 11.8811 15.5025
101 3 -2.77849 6.19255 15.8518
129 3 -0.0415735 6.30518 15.1458
148 3 0.826541 11.9466 12.4683
279 2 2.56436 8.85545 8.53287
22 4 6.9558 2.78013 0.460241
42 4 9.07097 1.92028 3.86623
269 2 10.6525 5.56482 5.90155
46 4 11.5195 1.9624 5.74472
50 4 10.236 4.09691 1.98928
51 4 8.91502 6.39032 0.163273
52 4 10.3614 3.90293 7.96307
72 1 6.83158 3.97236 1.85743
85 1 12.8492 2.91536 4.754
86 1 8.44347 6.23477 4.11335
87 1 8.8599 4.57676 6.99034
153 3 9.02057 0.70467 8.36326
149 3 8.79555 0.773134 2.71436
150 3 7.80242 2.21722 4.97577
245 2 4.84681 5.83163 2.91005
155 3 10.3457 1.58684 4.69746
156 3 12.2966 0.74821 6.38969
164 3 9.28882 3.26372 3.08146
165 3 10.9781 3.08088 0.906072
166 3 11.3021 4.9586 2.92304
168 3 9.46059 5.14673 1.09264
170 3 10.9587 2.90705 6.98319
221 2 7.76472 4.61373 1.95762
222 2 6.72407 3.37905 2.81558
223 2 5.87835 4.60883 1.75092
246 2 6.185 5.0586 4.12147
260 2 13.2738 2.44949 3.78261
261 2 13.655 3.0303 5.50524
262 2 12.2528 3.91985 4.52364
205 2 15.5595 0.377438 3.75289
264 2 8.80918 5.2449 3.97507
363 2 14.6785 1.89313 1.02146
266 2 7.84257 3.88679 7.19092
267 2 9.008 4.61405 5.87732
268 2 8.74707 5.59462 7.45693
293 2 11.7832 6.4976 0.864697
80 1 5.36491 5.80669 3.9909
306 1 14.0062 1.74384 1.97915
307 3 11.927 0.476376 0.702145
308 2 13.2456 2.49804 2.09657
309 2 14.6451 1.58856 2.94892
355 2 14.4732 1.75428 4.80835
305 4 13.0407 0.113709 1.68601
152 3 14.0397 0.53748 8.38921
263 2 7.49258 6.21306 4.74536
287 4 11.8026 6.56259 3.1094
204 2 15.6395 0.403542 5.66175
171 3 11.444 5.12689 8.40895
345 2 4.57213 6.25067 1.58359
124 3 6.52892 2.79261 7.35156
65 1 15.5017 1.05832 4.71348
44 4 12.9842 -0.284474 7.45602
2 4 14.4482 1.76766 9.36172
5 4 14.5274 1.74539 15.0505
56 4 9.52772 6.19191 11.1768
45 4 9.35364 1.58688 9.62429
352 2 7.45447 4.8283 16.3585
48 4 9.62075 1.70836 15.044
49 4 11.9607 1.78359 11.2434
55 4 10.8036 4.07997 13.1321
229 2 5.88367 5.63967 15.2996
73 1 7.01072 3.11659 12.5667
151 3 13.3256 1.99285 16.0518
353 2 8.7592 4.46479 15.0638
154 3 7.96702 1.71896 10.459
157 3 14.3751 0.444278 14.1862
158 3 8.79238 0.58128 14.2402
159 3 10.8773 0.90012 15.5949
160 3 8.68503 2.42555 16.2593
161 3 13.0421 2.13916 10.1505
162 3 10.6709 1.08762 10.531
163 3 12.5089 0.56158 12.2954
169 3 9.63999 3.1727 9.16797
179 3 8.31743 6.08524 10.0861
172 3 6.1224 4.877 8.70683
175 3 10.0877 2.97593 14.1147
176 3 11.7342 3.09446 12.1686
177 3 11.529 5.20694 14.0437
350 1 8.28619 5.23909 15.7627
180 3 9.66356 4.84125 12.1942
224 2 7.15923 4.015 11.8577
225 2 7.82101 2.90142 13.2004
248 2 5.57359 5.31497 12.1507
43 4 12.0003 1.32881 16.734
316 2 15.714 0.0230032 16.5955
9 4 12.1336 6.18603 9.40045
47 4 13.4529 -0.464348 13.114
228 2 4.9091 6.17386 13.7551
13 4 8.87827 10.8113 4.28659
364 2 11.8698 7.02314 6.40688
54 4 9.72574 7.40381 4.95658
57 4 7.64992 9.03197 1.83081
58 4 3.82498 11.527 3.74652
59 4 7.81164 8.72434 7.30037
61 4 6.26128 10.834 5.86784
79 1 4.38135 7.57445 6.48113
348 2 6.02691 11.3789 1.10116
88 1 10.7513 6.62713 6.34125
90 1 5.83088 9.51785 1.89069
349 2 7.11016 12.9192 0.844252
277 2 7.62875 11.0978 0.392126
346 1 6.12979 12.4678 0.621763
91 1 8.36275 10.1641 0.339033
174 3 10.9495 7.59702 4.0237
181 3 7.95028 7.5163 1.40119
182 3 8.29472 9.56959 3.26585
183 3 3.38167 10.5215 2.43485
184 3 4.47552 12.8964 3.12024
185 3 2.59506 11.7615 4.71342
186 3 7.33203 7.38313 7.87304
187 3 8.82431 8.30844 6.01632
257 2 2.57519 9.10378 5.75045
191 3 7.75389 11.4628 5.21471
192 3 5.08266 10.6584 4.56019
193 3 6.46099 9.43633 6.78499
194 3 5.57833 11.9148 6.73382
242 2 4.52265 8.33049 5.77106
243 2 5.25727 7.50974 7.16181
365 2 9.48323 10.2718 0.724301
247 2 5.69252 6.87863 4.31556
295 2 10.9182 8.16485 1.31896
274 2 5.54214 8.30164 1.96837
275 2 5.27624 9.97788 0.997583
276 2 5.62637 9.98431 2.89047
34 4 2.5462 9.30268 1.51564
278 2 3.57665 9.99511 7.2727
265 2 8.23675 6.78341 2.98403
131 3 3.44113 8.36759 0.327479
38 4 1.21976 11.381 5.42823
92 1 3.52636 9.60189 8.34029
327 2 8.03127 12.7626 3.07714
270 2 10.1364 6.77872 7.26344
325 2 8.72302 11.4562 1.89605
11 4 11.8583 6.44309 15.111
33 4 4.36938 6.78029 10.589
280 2 4.45099 9.09717 8.72342
60 4 3.56198 11.1482 9.42623
62 4 3.87507 10.5723 14.6585
63 4 6.32911 10.8045 11.2531
366 2 8.91242 9.00762 16.2134
74 1 5.26623 6.48992 14.8699
89 1 9.22503 7.65456 12.4445
93 1 5.49099 9.86188 15.6246
94 1 6.46112 9.33051 12.5102
141 3 3.55342 7.96169 11.4926
351 2 8.11692 6.22255 15.1971
167 3 10.6667 6.42392 16.2276
173 3 5.99003 7.22286 10.2503
178 3 10.9883 6.58465 10.448
66 1 8.36644 11.4076 14.0167
190 3 2.23108 11.0794 10.2959
195 3 3.34497 9.32645 13.8139
196 3 4.39928 11.7688 13.8028
197 3 2.87977 10.831 15.8886
198 3 7.84143 10.7757 10.5347
199 3 5.13249 10.7752 10.2564
200 3 6.15756 12.1493 12.1031
227 2 5.83375 7.50158 14.922
283 2 5.02929 10.0645 16.6144
271 2 9.02794 8.49593 11.7333
272 2 10.0818 7.82529 13.204
273 2 8.33291 7.26764 13.011
347 2 6.53709 11.8178 16.4011
281 2 6.2755 10.6393 15.3519
282 2 5.77276 8.78933 15.4459
206 2 9.08391 10.9258 14.741
284 2 7.48869 8.74186 12.5093
285 2 5.71342 8.74407 11.9798
286 2 6.06562 9.55751 13.6956
16 4 9.19486 10.5277 9.59994
356 2 7.64935 10.6365 13.5131
357 2 7.76635 12.2659 14.4275
53 4 7.00765 6.41265 9.23792
188 3 8.68193 9.52815 8.47552
189 3 3.61393 12.3912 8.47745
ITEM: TIMESTEP
100
ITEM: NUMBER OF ATOMS
366
ITEM: BOX BOUNDS xy xz yz pp pp pp
-8.2538999999999998e+00 1.6741099999999999e+01 -8.2538999999999998e+00
-6.4877545000000003e-01 1.3415688800000000e+01 6.1619999999999997e-01
0.0000000000000000e+00 1.6908999999999999e+01 -6.4877545000000003e-01
ITEM: ATOMS id type x y z
3 4 0.653062 2.44976 4.73
8 4 -0.425293 4.07503 7.4276
20 4 7.8114 0.202571 1.72794
21 4 3.89428 1.71504 4.22633
25 4 6.5954 1.71779 6.09892
29 4 5.31079 3.84301 7.9869
31 4 4.24165 5.56886 5.50765
64 1 0.567967 3.55124 3.17197
97 3 -1.25749 2.98112 8.22692
67 1 -1.57427 5.49162 7.03898
70 1 3.95568 0.0428747 3.31037
71 1 3.9441 3.03534 2.89456
78 1 2.39907 5.27385 4.90386
98 3 0.182938 3.29573 5.96603
114 3 2.14886 1.94722 4.69326
115 3 6.88023 1.39677 1.15327
118 3 5.09657 1.82103 5.28491
119 3 7.00015 0.278807 6.62033
343 2 4.51892 4.8678 0.223738
125 3 0.816215 4.89669 8.03745
126 3 4.71091 4.59066 6.58638
201 2 -0.40212 2.88414 2.79468
202 2 1.55041 3.45457 2.47438
203 2 0.377423 4.64313 3.40453
317 1 -1.34537 5.17865 0.234509
358 2 -0.557808 2.45067 0.0653368
342 1 3.96008 5.72754 0.774248
319 2 -2.28247 4.73083 0.600816
209 2 -1.46957 5.53928 5.8912
344 2 2.87942 5.45732 1.09503
217 2 3.28029 0.319907 2.45437
218 2 2.89663 3.27902 2.43014
219 2 4.61872 2.47947 2.17408
220 2 4.58973 4.08409 3.2541
239 2 2.37116 4.35244 4.17796
241 2 1.87132 5.06576 5.8505
312 2 0.823811 0.189566 6.53096
288 1 -2.30816 6.49802 3.69169
291 2 -1.72552 5.84493 2.99174
292 2 -2.41927 6.07568 4.76063
361 2 3.19024 0.272563 0.724887
310 1 1.44885 0.774387 7.38551
341 2 3.19911 2.3941 0.993469
313 2 2.08205 1.62491 6.94192
318 2 -0.725452 5.50547 1.09046
208 2 -2.64024 5.24776 7.34764
124 3 6.42981 2.79086 7.43485
240 2 1.95233 6.15067 4.45778
311 2 0.828025 1.07652 8.26202
6 4 0.804894 1.57917 11.1606
123 3 4.16743 3.19471 8.85058
360 2 5.13896 -0.127967 16.2499
10 4 -0.12554 3.86 13.1512
12 4 -1.86981 6.07193 11.6393
24 4 3.75214 1.95832 9.79428
340 2 2.4312 2.39082 16.7068
27 4 6.67155 1.74163 11.5093
30 4 1.73884 5.91735 9.03029
76 1 1.40211 5.14117 10.6975
250 2 3.7077 5.53166 12.7777
95 3 -0.3523 1.38519 10.1677
96 3 1.03643 0.16646 12.077
81 1 4.50667 5.38944 11.9785
99 3 -0.911377 3.05573 14.3144
100 3 0.405768 2.81081 12.1751
120 3 5.84005 2.77284 16.4471
102 3 -2.58375 5.61966 10.1714
103 3 -1.03479 4.90152 12.3417
116 3 3.61059 0.539682 8.94648
117 3 2.21774 2.08074 10.4968
121 3 4.99456 1.83322 10.9081
122 3 7.02919 0.455822 12.4762
226 2 5.87458 3.36054 13.306
127 3 1.32808 4.54561 13.8099
337 2 3.48151 0.473663 14.3594
233 2 2.01084 4.21044 10.8517
234 2 0.25234 4.88478 10.3599
235 2 1.46841 5.78236 11.5928
249 2 4.44913 4.47261 11.3941
359 2 -0.145112 3.82255 16.4946
296 4 4.6876 2.22985 15.5741
297 1 5.44304 0.777943 14.5147
298 1 4.11612 3.57015 14.3296
299 2 6.60834 0.879115 14.655
300 2 5.04214 1.32027 13.6223
301 2 5.07469 -0.310882 14.5728
302 2 3.9059 3.27027 13.2789
303 2 4.65195 4.60799 14.5111
304 2 3.0624 3.52582 15.0661
32 4 1.45851 6.00132 14.4605
314 1 -0.102131 0.960783 16.2181
315 2 0.795429 0.78858 15.5191
334 1 2.30016 0.294912 14.2706
335 2 1.87806 -0.378882 15.1639
336 2 1.75801 1.33058 14.1056
338 1 3.28118 1.70589 16.8537
339 2 2.97417 0.701206 16.6453
128 3 2.67225 5.89757 15.7514
23 4 -0.188573 13.0333 7.66775
15 4 -2.89081 8.84527 7.59867
17 4 -4.37179 11.026 5.84549
362 2 -4.6348 12.5991 3.89574
35 4 -1.66684 11.3568 3.87436
216 2 -3.25557 13.2302 2.94922
69 1 -1.75783 8.34376 6.18516
82 1 1.96468 8.25367 2.91292
83 1 -1.99353 9.82994 2.85051
84 1 1.62363 9.41621 5.87187
106 3 -5.65656 10.789 4.9169
107 3 -3.98322 9.76584 6.84732
108 3 -4.75029 12.1907 6.89673
132 3 -1.58135 12.6864 2.62019
133 3 -3.0481 11.4076 4.85064
134 3 1.11135 10.1495 0.904717
138 3 -0.256956 11.1501 4.68228
213 2 -1.70829 9.33768 5.59519
214 2 -2.20981 7.54521 5.46456
215 2 -0.710841 8.10755 6.57238
230 2 1.329 7.83642 7.735
332 1 -4.03694 13.3331 0.355543
321 2 -0.367868 8.61295 0.0784109
251 2 1.83433 8.67606 3.9956
252 2 2.75471 7.40305 2.83496
253 2 0.972271 7.90161 2.38676
254 2 -2.08 9.95067 1.6376
255 2 -3.03324 9.55552 3.34844
256 2 -1.01063 9.24704 3.15994
289 1 -4.25327 7.41388 1.47161
258 2 0.752298 8.92645 5.34906
259 2 1.45751 9.23572 6.98921
331 2 -5.57707 11.0547 2.01434
290 2 -1.93455 7.589 3.70857
294 2 -3.20529 7.89462 1.18266
320 1 -1.33139 8.2467 0.499385
323 2 -2.18726 9.07639 0.545649
322 2 -1.20823 7.75165 1.44263
1 4 -5.53146 12.9126 8.0984
324 1 -7.09441 12.1921 2.83396
354 3 0.202517 12.6497 0.603438
326 2 -6.15261 12.7677 2.9051
364 2 -4.08182 7.01291 6.14122
328 1 -4.73671 10.4968 1.4631
329 2 -3.79569 10.3276 2.06239
330 2 -5.10757 9.49544 1.06769
244 2 3.46298 7.25411 7.23132
279 2 2.53186 8.89659 8.43207
207 2 -1.16483 6.42536 7.58639
333 2 -3.26171 13.3539 1.1094
4 4 -6.52684 12.5113 12.9692
14 4 -3.54072 10.8847 16.7503
238 2 -0.891762 8.02945 10.3467
18 4 -3.09028 8.44301 13.2815
19 4 -4.43281 10.5439 11.3311
28 4 4.03869 6.44807 16.4543
135 3 -1.95868 9.67445 8.66882
36 4 1.37569 10.6019 16.6736
37 4 -1.71049 10.9722 9.61464
39 4 2.49896 8.3634 12.6608
40 4 -1.09062 10.3606 14.9487
41 4 0.987696 10.7034 11.2785
68 1 -4.90872 10.8329 15.5223
75 1 0.969536 7.67443 8.90931
77 1 -0.547465 7.4203 11.2286
232 2 -0.205047 7.8369 9.06694
105 3 -6.45742 12.0164 9.03214
109 3 -4.31429 8.00469 14.4166
110 3 -2.67815 7.17828 12.4646
111 3 -5.66492 9.87765 10.3244
112 3 -3.87498 9.55589 12.3903
113 3 -5.23628 11.613 12.264
236 2 -0.519084 8.02754 12.1758
104 3 -3.51439 7.43819 8.5381
237 2 0.450589 6.85441 11.0187
231 2 1.52895 8.32595 9.59261
136 3 -1.0865 12.0917 8.67322
137 3 -3.16234 11.1285 10.4436
140 3 1.90413 7.06669 13.386
142 3 -1.74777 9.20067 14.0863
143 3 0.385426 9.92616 15.5796
144 3 -1.27972 11.8073 14.1574
145 3 -2.11217 10.4114 16.1789
146 3 -0.524049 10.4451 10.5728
147 3 1.33009 9.2772 11.9395
26 4 -0.303786 12.8063 13.2807
210 2 -5.80488 10.3254 16.0637
211 2 -4.66334 10.3999 14.5358
212 2 -4.93826 12.039 15.5831
101 3 -2.79198 6.24735 15.6909
129 3 -0.1008 6.30841 15.0084
148 3 0.710613 11.812 12.4156
7 4 -1.19187 6.10512 16.1647
130 3 3.17333 6.35296 9.26378
22 4 6.8478 2.81351 0.417814
42 4 9.01722 1.89797 3.89793
269 2 11.23 5.31834 5.87375
46 4 11.6041 1.91063 5.73903
50 4 10.2624 4.12731 1.97539
51 4 8.86728 6.42468 0.049928
52 4 10.4485 3.851 7.95317
72 1 6.92009 4.01039 1.84806
85 1 12.8905 3.01734 4.89829
86 1 8.65751 6.32094 4.1043
87 1 8.87836 4.4657 6.89095
153 3 8.9406 0.715928 8.38137
149 3 8.90898 0.681422 2.80668
150 3 7.67445 2.13461 4.94951
245 2 4.92105 5.80924 3.00257
155 3 10.3909 1.58423 4.65191
156 3 12.6038 0.797719 6.49826
164 3 9.30636 3.34675 3.04207
165 3 10.995 3.14408 1.06195
166 3 11.3973 5.14522 2.82369
168 3 9.45262 5.24416 0.980404
170 3 11.1251 3.02027 6.81343
221 2 7.8557 4.67372 1.85842
222 2 6.85382 3.36213 2.75712
223 2 5.9597 4.60703 1.70077
246 2 6.2408 4.92678 4.12572
260 2 13.3174 2.46647 3.84906
261 2 13.7387 3.33464 5.6822
262 2 12.1944 3.91402 4.67015
205 2 15.4875 0.414885 4.14201
264 2 9.3402 5.42536 4.03769
363 2 14.8132 1.84184 1.374
266 2 7.98939 3.83052 7.04472
267 2 9.25751 4.40212 5.78584
268 2 8.88207 5.56579 7.25988
293 2 11.7234 6.4347 0.81155
80 1 5.44185 5.75475 4.02485
306 1 14.0091 1.62645 2.18795
307 3 11.9664 0.55819 0.708867
308 2 13.2149 2.46932 2.17151
309 2 14.5259 1.42344 3.25649
355 2 14.4467 1.69345 5.06767
305 4 13.0365 0.0384495 1.71138
345 2 4.56788 6.20637 1.68755
263 2 7.77023 6.28817 4.82907
65 1 15.4105 1.07903 5.01832
204 2 15.7194 0.610994 6.10082
44 4 13.1168 -0.258894 7.54661
88 1 11.1272 6.42545 6.24415
152 3 14.2644 0.381694 8.44492
2 4 14.4679 1.77471 9.28183
5 4 14.6095 1.72398 15.0968
56 4 9.6252 6.15773 11.2487
45 4 9.2804 1.7486 9.82033
352 2 7.47747 4.65474 16.3946
48 4 9.58083 1.76514 15.0291
49 4 11.985 1.82418 11.3629
55 4 10.753 4.09269 13.0994
229 2 5.93585 5.69167 15.4553
73 1 6.87874 3.26482 12.6247
151 3 13.4866 2.08532 16.1131
353 2 8.70341 4.21462 14.9618
154 3 7.96696 1.91092 10.6925
157 3 14.2587 0.564573 14.1316
158 3 8.65542 0.495726 14.2836
159 3 10.9813 1.23437 15.6046
160 3 8.65398 2.37267 16.2648
161 3 13.1142 2.06712 10.2576
162 3 10.491 1.20829 10.6727
163 3 12.5711 0.562638 12.2071
169 3 9.82542 3.09834 9.18188
179 3 8.22625 6.19717 10.0898
172 3 6.20811 4.95825 8.82398
175 3 9.8334 2.89832 13.9726
176 3 11.7589 3.18423 12.1808
177 3 11.3489 5.26861 14.0222
350 1 8.33757 5.04678 15.6682
180 3 9.64242 4.97738 12.3104
224 2 6.97321 4.12316 11.8791
225 2 7.85276 3.15614 13.2212
248 2 5.51495 5.49394 12.4407
43 4 12.0736 1.49947 16.7868
316 2 15.7506 -0.0311132 16.7658
9 4 12.1782 6.14144 9.45348
47 4 13.456 -0.388694 13.0758
171 3 11.4606 4.93183 8.48434
351 2 7.96351 5.95423 15.1233
53 4 6.92883 6.26911 9.19198
228 2 4.9379 6.05261 13.8595
13 4 8.85782 10.8078 4.16574
280 2 4.43109 9.12845 8.40127
54 4 9.7716 7.42119 5.15904
57 4 7.76941 8.99469 1.88683
58 4 3.95216 11.5081 3.76199
59 4 7.74509 8.69647 7.32396
61 4 6.21963 10.8898 5.83224
79 1 4.17101 7.45691 6.38048
348 2 6.05922 11.2358 1.33575
295 2 10.9769 8.18272 1.419
90 1 5.9137 9.30443 1.98939
349 2 7.06473 12.9249 1.2649
277 2 7.63584 11.0735 0.332505
346 1 6.15369 12.3908 0.861665
91 1 8.37559 10.135 0.350198
174 3 10.9339 7.59736 4.03964
181 3 7.97363 7.39094 1.34684
182 3 8.47673 9.57264 3.17682
183 3 3.46094 10.476 2.48169
184 3 4.56318 12.8441 3.13734
185 3 2.61691 11.5708 4.75179
186 3 7.07732 7.34415 7.88125
187 3 8.70301 8.13768 6.14269
257 2 2.61139 8.99882 5.52703
191 3 7.6105 11.229 5.08444
192 3 5.05313 10.6402 4.57922
193 3 6.61167 9.58706 6.70408
194 3 5.59804 11.9883 6.70243
242 2 3.82532 8.23154 5.61033
243 2 5.22476 7.72306 6.75485
365 2 9.51142 10.313 0.722148
247 2 5.81121 6.84909 4.40069
139 3 0.879594 11.992 6.78722
274 2 5.63411 8.1618 2.05058
275 2 5.39715 9.75808 1.02027
276 2 5.65803 9.83614 2.98805
34 4 2.5409 9.5147 1.66533
278 2 3.46314 10.1414 7.1954
265 2 8.37563 6.66715 3.00082
131 3 3.47094 8.45728 0.44796
38 4 1.23252 11.2597 5.46143
92 1 3.47157 9.62496 8.21662
327 2 8.18801 12.8461 3.18441
270 2 10.7038 6.55374 7.27165
325 2 8.73238 11.5277 1.8448
188 3 8.65277 9.51739 8.42394
287 4 11.9462 6.58908 3.11192
11 4 11.6736 6.4719 15.0437
33 4 4.29813 6.81226 10.6985
357 2 7.50342 12.2215 14.1394
60 4 3.57721 11.0548 9.53481
62 4 3.78248 10.6346 14.6002
63 4 6.53209 10.987 11.1475
366 2 8.95314 8.86018 16.3734
74 1 5.21683 6.46869 14.8864
89 1 9.26639 7.711 12.3044
93 1 5.47477 10.0042 15.3364
94 1 6.50694 9.4518 12.2745
141 3 3.57243 7.91597 11.5953
189 3 3.79924 12.3714 8.64062
167 3 10.5637 6.70295 16.2123
173 3 5.75424 7.16779 10.1791
178 3 10.962 6.39812 10.4199
66 1 8.25079 11.4083 14.0011
190 3 2.18496 11.02 10.2499
195 3 3.38282 9.36381 13.7122
196 3 4.29582 11.8737 13.8163
197 3 2.70785 10.8083 15.9031
198 3 7.95388 10.7394 10.5645
199 3 4.93732 10.8157 10.3298
200 3 6.22693 12.2358 12.0026
227 2 5.75708 7.51912 14.7835
283 2 5.10212 10.1849 16.3889
271 2 9.10375 8.55539 11.5577
272 2 10.2075 7.86835 12.8906
273 2 8.29484 7.4364 12.8859
347 2 6.84693 11.6171 16.686
281 2 6.42364 10.5081 15.0487
282 2 5.46061 8.8483 15.0826
206 2 8.85677 11.0517 14.8815
284 2 7.49193 8.83653 12.162
285 2 5.63889 8.86211 11.7563
286 2 6.21572 9.68208 13.3872
16 4 9.23963 10.5238 9.56906
356 2 7.81699 10.6241 13.3333
ITEM: TIMESTEP
200
ITEM: NUMBER OF ATOMS
366
ITEM: BOX BOUNDS xy xz yz pp pp pp
0.0000000000000000e+00 2.4612099999999998e+01 7.8710000000000004e+00
-6.4845090000000005e-01 1.3408977600000000e+01 6.1619999999999997e-01
0.0000000000000000e+00 1.6908999999999999e+01 -6.4845090000000005e-01
ITEM: ATOMS id type x y z
124 3 6.66169 2.93 7.28596
313 2 2.0708 1.74863 7.04753
20 4 7.75384 0.14889 1.69594
21 4 3.77095 1.76465 4.19298
25 4 6.62054 1.85902 5.95365
29 4 5.42602 3.74127 7.89747
31 4 4.20441 5.77366 5.53896
341 2 3.1309 2.6398 1.26629
310 1 1.45292 0.837522 7.41376
361 2 3.09601 0.176659 0.612603
70 1 3.98981 0.0822841 3.17386
71 1 3.8785 3.20154 3.00191
312 2 0.895591 0.428421 6.45796
220 2 4.51649 4.23316 3.34135
114 3 2.27872 1.80254 4.71993
115 3 6.80013 1.39294 1.1025
118 3 5.14394 1.76909 5.15691
119 3 7.07586 0.465911 6.67602
343 2 4.48507 4.91553 0.348168
219 2 4.50211 2.66137 2.20898
126 3 4.69092 4.66006 6.51991
218 2 2.77325 3.46599 2.67028
217 2 3.53271 0.36589 2.17578
342 1 3.94135 5.81812 0.838456
22 4 6.7481 2.81744 0.380211
42 4 9.07396 1.94351 3.91051
333 2 4.96398 0.0374916 1.12478
269 2 11.1693 5.39493 5.63018
50 4 10.3474 4.1189 2.00373
51 4 8.96054 6.40121 0.182574
263 2 7.69861 6.35511 4.74826
345 2 4.51011 6.33156 1.6638
52 4 10.5903 3.94637 7.97349
72 1 6.79355 4.05054 1.77928
86 1 8.59374 6.15156 4.06164
87 1 9.00583 4.81092 7.08267
287 4 12.0048 6.49323 3.06961
150 3 7.82686 2.19939 4.79239
80 1 5.48027 5.86513 3.95794
293 2 11.4187 6.40938 0.999245
268 2 8.77504 5.82734 7.51283
267 2 9.47028 4.82237 6.03323
266 2 8.0451 4.12582 7.11368
245 2 4.82962 5.81811 2.92259
264 2 8.82304 5.05573 4.0059
164 3 9.38892 3.41253 3.12777
168 3 9.55785 5.16756 0.996922
221 2 7.80795 4.51516 1.5046
222 2 6.85877 3.41744 2.71621
246 2 6.2078 5.01125 4.08928
223 2 5.95119 4.80608 1.7891
338 1 2.68748 2.33312 0.0904339
353 2 8.88 4.37488 15.2016
123 3 4.30274 3.12118 8.81142
360 2 5.04655 -0.16579 16.2275
154 3 7.7221 2.00034 10.5496
336 2 1.82298 1.2413 14.2426
24 4 3.89027 1.91684 9.81732
158 3 8.84501 0.280337 14.326
27 4 6.52685 1.78139 11.5453
335 2 1.94496 -0.456485 15.2545
334 1 2.35853 0.190279 14.3347
153 3 8.84496 0.49663 8.68984
303 2 4.32152 4.64662 14.6575
96 3 0.989724 0.237306 11.9963
81 1 4.342 5.34897 12.0214
302 2 3.47803 3.39297 13.4021
301 2 5.20824 -0.305929 14.7272
120 3 5.80463 2.77817 16.3978
300 2 4.78559 1.37518 13.6357
299 2 6.50008 1.12998 14.59
116 3 3.83902 0.421436 8.81938
117 3 2.44169 2.01299 10.4529
121 3 5.00877 1.80024 11.1185
122 3 6.88132 0.320376 12.3772
226 2 5.46033 3.33743 13.3977
298 1 3.79441 3.63166 14.4747
337 2 3.50013 0.294048 14.4368
297 1 5.41774 0.813741 14.5617
296 4 4.64417 2.25666 15.6096
249 2 4.12257 4.34386 11.5758
56 4 9.56322 6.22582 11.2929
228 2 4.80626 6.00827 13.8844
160 3 8.65853 2.22768 16.231
351 2 8.21101 6.01309 15.0496
45 4 9.24655 1.66623 9.72537
352 2 7.43961 4.79762 16.2446
9 4 12.1292 6.18517 9.45417
48 4 9.62189 1.66334 15.0068
55 4 10.699 4.06549 13.1791
248 2 5.43215 5.3824 12.3872
225 2 7.44413 2.86476 13.5659
224 2 6.91515 4.10252 12.1629
180 3 9.6697 4.94014 12.1959
350 1 8.37796 5.20351 15.7613
177 3 11.3746 5.08913 14.2517
229 2 5.85301 5.76554 15.4124
175 3 9.66557 3.01368 14.0372
172 3 6.19989 4.93586 8.81478
179 3 8.22259 6.18022 10.2465
169 3 9.78693 3.06345 9.08793
73 1 6.59158 3.21696 12.779
340 2 2.35244 2.26292 16.7837
53 4 6.83339 6.28725 9.35593
339 2 3.14243 0.561985 16.8301
23 4 15.8363 13.0232 7.71452
15 4 13.254 8.8357 7.57766
17 4 11.9035 10.9774 5.84265
362 2 11.184 12.8827 3.90222
35 4 14.4701 11.2234 3.90923
216 2 12.901 13.0479 2.94027
187 3 8.81627 8.18508 6.14179
330 2 10.8034 9.33336 0.928021
329 2 12.2631 10.1142 2.0411
328 1 11.2823 10.3245 1.42295
106 3 10.4258 10.8905 4.79707
107 3 12.2071 9.66566 6.70172
108 3 11.3813 12.2057 6.72067
132 3 14.6432 12.6103 2.61263
133 3 13.1781 11.197 4.91617
364 2 12.2497 6.95264 5.8775
326 2 10.0321 12.65 2.7398
324 1 8.99816 12.0456 2.7733
1 4 10.6805 12.9797 7.91232
331 2 10.4468 10.9541 1.93913
289 1 11.7798 7.39519 1.55004
332 1 12.0695 13.3164 0.281064
255 2 13.1908 9.17296 3.28644
13 4 8.96715 10.78 4.1801
270 2 10.6534 6.76315 6.98908
188 3 8.73703 9.47188 8.34502
325 2 8.75118 11.4586 1.80458
191 3 7.86911 11.38 5.1084
327 2 8.09376 12.7208 3.11314
54 4 9.85658 7.31373 4.99234
57 4 7.73234 8.96072 1.7684
59 4 7.77539 8.6734 7.30115
265 2 8.41068 6.62112 2.99379
295 2 10.9654 8.18273 1.66972
90 1 5.91623 9.31342 1.87574
277 2 7.49555 10.963 0.424616
91 1 8.37631 10.1271 0.303275
274 2 5.6679 8.16551 1.86257
174 3 11.0604 7.7901 4.02871
247 2 6.07582 6.83361 4.09948
365 2 9.43689 10.2905 0.732028
88 1 11.2242 6.49557 5.91802
181 3 7.93257 7.36517 1.49868
182 3 8.52368 9.47661 3.09206
193 3 6.56121 9.57458 6.67003
186 3 7.16313 7.35314 7.99179
254 2 13.9962 10.2418 1.72627
104 3 12.5834 7.43061 8.45011
4 4 9.54324 12.5892 12.9528
14 4 12.5342 10.7812 16.8755
212 2 11.3009 11.9377 15.5133
18 4 13.0515 8.37635 13.3215
19 4 11.6929 10.5693 11.2578
211 2 11.6488 10.2931 14.4194
135 3 14.1103 9.65088 8.56087
210 2 10.4257 10.1873 16.0199
37 4 14.3562 10.9324 9.56135
26 4 15.8705 12.773 13.32
145 3 13.9613 10.3188 16.318
144 3 14.8987 11.616 14.0796
68 1 11.3358 10.7224 15.4664
137 3 12.9725 11.0922 10.4027
136 3 14.8651 12.201 8.7632
285 2 5.85798 8.72214 11.735
105 3 9.80465 11.8707 8.75817
109 3 11.8463 7.87597 14.3793
113 3 10.8929 11.6194 12.2271
111 3 10.6316 9.89187 10.3114
112 3 12.301 9.42453 12.294
11 4 11.8655 6.30815 15.1062
356 2 7.74735 10.7314 13.3641
16 4 9.24355 10.5821 9.46392
366 2 8.99433 8.92715 16.2329
74 1 5.12403 6.45534 14.8775
284 2 7.70269 8.78174 12.3499
206 2 8.97334 11.0348 14.8808
89 1 9.40972 7.73199 12.5278
94 1 6.6019 9.3749 12.2752
167 3 10.647 6.51206 16.2712
273 2 8.4368 7.34652 13.1117
272 2 10.3429 7.84542 13.2079
271 2 9.27204 8.65159 11.8815
173 3 5.7475 7.02304 10.3111
227 2 5.54879 7.51662 14.7427
178 3 10.9612 6.49711 10.5381
66 1 8.25611 11.4518 14.0903
198 3 7.84634 10.9369 10.1815
152 3 14.3812 0.441285 8.32378
207 2 14.5502 6.10876 7.73486
204 2 15.6789 0.471012 6.06506
46 4 11.6552 1.95593 5.77075
65 1 15.4742 1.00132 5.03208
305 4 12.979 0.194297 1.80587
355 2 14.4062 1.66693 5.02528
309 2 14.6418 1.37558 3.18353
85 1 12.9516 3.03399 4.87971
308 2 13.3395 2.55175 2.22019
307 3 11.971 0.660709 0.688077
306 1 14.0823 1.66471 2.15237
149 3 8.77865 0.876495 2.7649
363 2 14.747 1.86017 1.1963
205 2 15.5888 0.220514 4.17581
155 3 10.3595 1.53685 4.84851
156 3 12.3989 0.668607 6.54738
262 2 12.4061 3.98664 4.59911
165 3 11.2206 3.1169 1.11774
166 3 11.3489 5.06402 2.8918
261 2 13.7414 3.16293 5.64459
170 3 11.1838 3.00862 6.87017
260 2 13.3805 2.48578 3.85729
3 4 16.6845 2.43203 4.78206
311 2 16.9119 1.08617 8.30128
240 2 18.321 5.71983 3.85266
8 4 15.6589 4.06112 7.3333
208 2 13.412 4.73832 6.99892
318 2 14.9563 5.67836 1.11207
64 1 16.6295 3.4772 3.19161
97 3 14.8634 3.07082 8.38925
67 1 14.3834 5.36695 6.88471
78 1 18.602 5.19366 4.84392
292 2 13.6809 6.01751 4.74752
291 2 14.3353 5.62218 3.00875
288 1 13.8026 6.37521 3.67755
98 3 16.1276 3.50286 5.78917
241 2 18.0141 5.60472 5.69889
239 2 18.5853 4.07657 4.85895
125 3 16.9697 4.85694 8.09896
201 2 15.7384 2.89772 2.81405
202 2 17.5253 3.41794 2.56824
203 2 16.3025 4.53551 3.36157
344 2 18.984 5.57719 1.21932
209 2 14.5245 5.80597 5.80739
319 2 13.5857 4.63915 0.314227
317 1 14.5741 5.18093 0.157726
2 4 14.503 1.78041 9.30198
5 4 14.6215 1.70393 15.0928