ITEM: TIMESTEP
0
ITEM: NUMBER OF ATOMS
366
ITEM: BOX BOUNDS xy xz yz pp pp pp
-8.2538999999999998e+00 1.6741099999999999e+01 -8.2538999999999998e+00
-6.4910000000000001e-01 1.3422400000000000e+01 6.1619999999999997e-01
0.0000000000000000e+00 1.6908999999999999e+01 -6.4910000000000001e-01
ITEM: ATOMS id type q x y z
3 4 1.04454 0.830321 2.72587 4.71018
8 4 1.26873 -0.467187 4.21054 7.31986
64 1 -0.677239 0.807495 3.83522 3.19545
65 1 -0.677029 -0.247337 0.993594 4.49656
67 1 -0.690378 -1.83245 5.4001 6.80694
98 3 -0.788748 0.1367 3.47159 6.01669
125 3 -0.768914 1.03988 5.23237 7.88589
201 2 0.176084 0.440708 4.83718 3.40957
202 2 0.132451 -0.0210814 3.11818 2.67243
203 2 0.170033 1.77486 3.83833 2.63922
317 1 -0.654878 -1.4805 4.86004 0.531102
209 2 0.162516 -1.9081 5.77598 5.67571
288 1 -0.694116 -2.17999 6.36 3.76015
291 2 0.170285 -2.19476 5.30067 4.15085
310 1 -0.679245 1.39073 0.550463 6.94905
312 2 0.198381 1.38511 0.234211 5.86425
318 2 0.136666 -1.12173 5.41735 1.50037
345 2 0.153987 1.84817 5.92661 1.98389
319 2 0.24045 -2.47651 4.25136 0.63271
241 2 0.282696 1.85869 5.63149 6.33478
208 2 0.222107 -2.73522 4.75167 7.24983
207 2 0.160285 -1.48204 6.24882 7.5935
313 2 0.24951 1.63592 1.61113 7.1408
204 2 0.173862 0.483031 0.195937 4.33289
311 2 0.238677 0.496984 0.160154 7.51035
358 2 0.155135 -0.327486 2.4728 0.00106906
290 2 0.138407 -1.48367 6.49997 2.89799
126 3 -0.730212 4.92302 4.93234 6.59964
119 3 -0.816572 7.24933 0.483983 6.64988
25 4 1.59227 6.91226 1.91204 5.92309
341 2 0.167861 3.1548 2.86574 0.920846
246 2 0.166728 4.77379 4.60709 3.36094
31 4 0.948288 4.24072 5.94746 5.48997
118 3 -0.793553 5.43201 1.89542 5.13313
29 4 1.58107 5.72269 3.96844 7.88554
361 2 0.140314 3.10217 0.510795 0.695322
333 2 0.220516 4.93371 0.267569 1.16714
344 2 0.159332 2.88312 4.47695 0.950349
218 2 0.156374 3.30619 3.50303 2.54145
219 2 0.159183 4.0369 1.76212 2.07182
343 2 0.156928 3.80275 5.65886 2.4199
217 2 0.134592 3.09433 0.161878 2.71028
220 2 0.191419 5.24014 3.26144 2.41568
239 2 0.184311 2.43098 4.89406 4.72743
21 4 1.15677 4.03746 1.84746 4.30761
342 1 -0.656532 2.88146 5.59732 1.5926
20 4 1.59122 7.78529 0.177254 1.93748
70 1 -0.675464 3.94077 0.0447918 3.50331
71 1 -0.673622 4.20064 2.80981 2.67694
78 1 -0.673 2.40333 5.86584 5.3667
114 3 -0.757144 2.53588 2.20589 4.87262
115 3 -0.874141 6.90628 1.33548 1.41261
23 4 1.66519 8.25561 -0.257808 7.72899
332 1 -0.681252 4.12041 0.1934 0.386843
6 4 1.6392 1.28204 1.72101 10.8977
10 4 1.54442 0.211117 3.75722 13.1653
30 4 1.12203 1.58336 6.20389 9.03069
76 1 -0.66341 1.3375 5.21138 10.5209
95 3 -0.841658 0.0561142 1.56323 9.91464
96 3 -0.815626 1.56687 0.420136 11.7237
99 3 -0.824492 -0.621953 2.7429 14.1444
100 3 -0.817617 0.858992 2.85805 12.0052
102 3 -0.834362 -2.32777 5.76758 10.3571
103 3 -0.794813 -0.703117 4.9196 12.3765
127 3 -0.793852 1.74075 4.40513 13.8241
233 2 0.259729 2.04632 4.35074 10.4512
234 2 0.226185 0.229886 4.87242 10.2437
235 2 0.172602 1.49013 5.95577 11.4414
314 1 -0.658915 0.0443893 0.974973 16.2619
315 2 0.173884 0.967363 0.674686 15.5487
32 4 1.46826 1.61651 5.91141 14.532
337 2 0.122814 2.05629 -0.368325 15.3463
335 2 0.193348 1.88298 1.1685 14.1084
7 4 1.20442 -1.12133 5.83614 16.3836
97 3 -0.833672 -1.0318 3.31668 8.57736
129 3 -0.788479 0.0341401 5.80693 15.2634
101 3 -0.823119 -2.63135 5.99895 15.9115
359 2 0.173683 -0.0137441 3.77201 16.8198
12 4 1.42444 -1.60742 6.2014 11.6906
116 3 -0.810411 3.56346 0.533707 8.6846
339 2 0.166456 2.89666 1.20564 16.4464
297 1 -0.653688 5.6061 0.992454 14.6261
249 2 0.223136 4.92984 4.29359 10.4319
296 4 0.932892 4.84938 2.51635 15.6055
298 1 -0.65901 4.61956 4.08762 14.386
299 2 0.210284 5.42728 -0.118851 14.3062
81 1 -0.692308 4.63758 4.9072 11.3426
123 3 -0.853196 4.56291 3.04461 8.56345
250 2 0.187517 3.54544 4.71188 11.7379
340 2 0.170635 2.45827 2.99874 16.5756
360 2 0.193698 5.08146 0.0804412 16.3089
122 3 -0.786584 6.90644 0.268084 12.4561
302 2 0.19089 4.09568 3.64284 13.438
300 2 0.201485 6.71585 1.04182 14.9712
304 2 0.242204 3.87416 4.80958 14.9868
334 1 -0.672745 2.50189 0.228467 14.4125
120 3 -0.774669 5.96585 2.72323 16.6505
117 3 -0.861546 2.62828 2.25842 10.0744
336 2 0.169168 3.64284 0.531419 14.4549
24 4 1.61271 4.00396 1.87919 9.47341
27 4 1.37194 6.80009 1.54583 11.4903
301 2 0.160943 5.36208 1.6026 13.622
121 3 -0.768631 5.32401 1.51745 10.6194
338 1 -0.659651 3.26291 2.22239 16.7132
128 3 -0.808507 2.73472 5.99212 15.8367
15 4 1.38187 -2.84159 8.90496 7.64672
17 4 1.48988 -4.28966 10.855 5.83666
106 3 -0.825505 -5.51235 10.5764 4.69415
107 3 -0.825759 -4.17161 9.46551 6.9213
108 3 -0.850785 -4.66554 12.2201 6.65044
133 3 -0.801457 -2.85916 11.1473 5.01928
214 2 0.17803 -2.20906 8.91205 5.16509
255 2 0.161332 -2.71036 9.20541 2.67045
289 1 -0.668312 -4.09865 7.78987 1.96846
294 2 0.16047 -3.00074 7.97738 1.52923
216 2 0.269194 -3.26964 13.21 3.09685
326 2 0.173622 -5.95496 12.4328 3.08991
328 1 -0.679767 -4.61677 10.5687 1.25905
329 2 0.186312 -3.62802 10.2694 1.8323
330 2 0.189208 -4.94908 9.82841 0.485253
331 2 0.185024 -5.46805 10.9462 1.92889
362 2 0.22619 -4.64334 12.9757 4.47399
295 2 0.203136 -4.40438 8.60252 2.69476
1 4 1.45893 -5.47192 12.8926 7.79567
324 1 -0.677406 -6.99934 11.8961 2.84511
292 2 0.157604 -1.99077 7.20486 4.55099
322 2 0.216469 -1.93683 8.85398 0.503247
34 4 1.34806 1.94203 9.43933 2.19122
131 3 -0.795282 2.73008 8.30874 1.0989
36 4 1.58745 0.582236 11.271 0.178014
83 1 -0.688431 -1.866 9.91403 2.69895
323 2 0.237477 -0.157349 8.30244 0.194206
259 2 0.142611 0.781922 8.69256 5.90766
258 2 0.198349 2.39878 9.07409 5.09113
69 1 -0.675218 -1.71833 8.47137 6.13389
254 2 0.199822 -1.88795 10.5809 1.71338
354 3 -0.845159 0.0713568 12.7103 0.711488
321 2 0.124317 -1.08973 7.70561 1.73798
28 4 1.1314 2.98757 6.98827 0.328274
134 3 -0.859862 0.882535 10.4279 1.51671
320 1 -0.66233 -1.17167 8.03837 0.617249
35 4 1.34555 -1.58363 11.3127 3.93613
82 1 -0.667697 0.825925 8.23032 3.1594
84 1 -0.709871 1.76215 9.34482 5.95732
132 3 -0.826489 -1.57385 12.6191 2.95562
240 2 0.146989 1.87067 6.71971 4.82365
138 3 -0.803955 -0.0361378 11.0888 4.67778
213 2 0.178397 -0.644942 8.87356 6.15235
215 2 0.160749 -1.71938 7.30952 6.26953
230 2 0.179513 1.16474 8.49543 7.70604
251 2 0.138752 1.58735 7.4386 3.64108
252 2 0.129714 0.0787695 7.55861 2.47065
253 2 0.178813 0.318818 8.84526 3.94952
256 2 0.203243 -0.882201 9.28001 2.7831
135 3 -0.840737 -1.83658 9.9331 8.39049
257 2 0.166326 2.35153 9.33571 6.88938
4 4 1.19822 -6.15432 12.6123 12.7149
18 4 1.54951 -2.98335 8.45011 13.4025
19 4 1.55199 -4.1776 10.467 11.4035
68 1 -0.676022 -4.85469 10.7559 15.4238
105 3 -0.833413 -6.21028 11.7246 8.7412
109 3 -0.797047 -4.13035 7.7703 14.4943
110 3 -0.852471 -2.44553 7.05311 12.6674
111 3 -0.805448 -5.47586 9.9098 10.5262
112 3 -0.918689 -3.71611 9.50739 12.5478
113 3 -0.779665 -4.87219 11.8089 12.2262
137 3 -0.800154 -2.87603 11.1331 10.4869
145 3 -0.797136 -2.24479 10.7533 16.1323
210 2 0.161024 -5.12544 11.8994 15.0483
211 2 0.16614 -5.74509 10.2513 15.9731
212 2 0.260116 -4.47466 10.1497 14.6215
9 4 1.56674 -3.69365 6.35123 9.49656
14 4 0.992551 -3.58311 11.1366 16.7631
104 3 -0.85532 -3.25137 7.60322 8.5554
142 3 -0.831653 -1.63984 9.09701 14.2741
232 2 0.181617 -0.294051 7.96062 8.67888
143 3 -0.824183 0.098404 9.80889 16.1115
144 3 -0.893835 -0.501277 11.5817 14.1891
26 4 1.62444 0.00614372 12.7272 13.2113
146 3 -0.885135 -0.184242 10.4635 10.4551
147 3 -0.850714 1.63128 9.43988 12.0864
236 2 0.250361 -0.540257 8.32926 12.1696
238 2 0.1844 -0.613469 7.99991 10.1781
237 2 0.181306 0.73604 7.09996 11.398
75 1 -0.697562 0.782257 8.08591 8.70052
37 4 1.59089 -1.47656 11.0121 9.59544
39 4 1.55979 2.65897 8.37995 12.9892
40 4 1.6038 -0.996516 10.3347 15.057
41 4 1.6019 1.13433 10.6853 11.2403
130 3 -0.754759 3.13888 6.5327 9.38202
77 1 -0.658656 -0.347636 7.60384 11.3045
231 2 0.209809 1.12514 8.73125 9.49046
136 3 -0.792393 -0.973924 12.4205 8.92349
140 3 -0.862898 1.74404 7.18413 13.5556
279 2 0.17985 2.6092 8.93232 8.5946
22 4 1.27664 6.90964 2.71281 0.465047
42 4 1.59198 9.31959 2.04822 3.81922
72 1 -0.675853 7.09196 3.93325 1.92476
86 1 -0.672471 8.32653 5.77546 4.61662
87 1 -0.69214 9.32211 4.57111 7.0035
124 3 -0.86157 6.73491 3.03418 7.11111
149 3 -0.835445 8.98011 0.780155 2.88413
150 3 -0.867083 8.10244 2.2822 4.88674
164 3 -0.889024 9.46089 3.33882 2.99234
168 3 -0.853544 9.76462 5.03368 0.912913
221 2 0.261292 8.04986 4.51371 1.91284
222 2 0.225087 7.01253 3.25151 2.83094
223 2 0.172316 6.10791 4.53598 1.69785
263 2 0.19432 7.63501 5.46906 5.50193
264 2 0.245992 8.76299 4.84188 4.03441
266 2 0.273887 8.45351 3.85641 7.11865
268 2 0.188431 9.02329 5.64603 7.33158
267 2 0.187643 9.71766 4.57692 5.95338
80 1 -0.667383 5.26955 5.65908 3.78295
247 2 0.195534 6.33048 5.55716 4.14908
51 4 1.34603 9.05943 6.33896 0.189401
228 2 0.165029 5.11864 6.12085 0.185818
265 2 0.173508 7.82097 6.51028 3.83126
245 2 0.142018 5.15211 6.52101 3.05492
165 3 -0.913958 11.2488 2.86309 0.875265
305 4 1.16577 13.0997 0.00987978 1.69678
170 3 -0.832016 11.5592 2.91171 7.13972
166 3 -0.772178 11.804 4.94565 2.56323
260 2 0.189018 12.6003 3.33624 4.08453
261 2 0.175629 14.2977 2.2063 4.80958
306 1 -0.684908 13.8524 1.66746 2.08727
269 2 0.209476 11.4312 6.04783 6.53487
205 2 0.15899 15.1263 1.16133 3.62268
309 2 0.18245 13.6406 2.14782 3.15205
307 3 -0.758295 12.049 0.287371 0.467087
308 2 0.224508 13.5803 2.44938 1.27563
287 4 1.09977 12.1182 6.39064 3.20149
155 3 -0.806312 10.819 1.77886 4.73453
46 4 1.42189 11.9679 1.91569 5.85347
50 4 1.5336 10.5472 3.9284 1.74817
52 4 1.42127 10.7799 3.94827 8.12221
85 1 -0.662585 13.3048 2.97438 4.98548
363 2 0.122458 14.9492 1.33706 1.90957
156 3 -0.834114 12.7745 0.682804 6.34124
262 2 0.180478 13.5477 3.89749 5.64275
44 4 1.57158 13.4979 -0.226142 7.48679
355 2 0.216936 15.4042 1.02777 5.52377
45 4 1.64668 9.6099 1.64037 9.81481
48 4 1.61214 9.67509 1.59862 14.922
352 2 0.189016 7.33302 5.60947 16.1001
73 1 -0.685002 7.0577 3.14083 12.5431
154 3 -0.806579 8.20081 1.82156 10.6828
158 3 -0.840094 9.16886 0.370083 14.0323
160 3 -0.860677 8.62839 2.14236 16.2276
169 3 -0.826491 10.0506 3.11482 9.29658
172 3 -0.862955 6.54804 4.91398 8.85361
175 3 -0.885458 9.67952 2.92557 14.0436
180 3 -0.791164 10.0929 4.88592 12.0617
224 2 0.211071 7.20221 3.84613 11.6163
225 2 0.272643 7.96525 3.06212 13.12
350 1 -0.671881 8.38369 5.13138 15.8012
351 2 0.178786 8.76081 5.46062 14.8058
353 2 0.261627 8.36118 3.96357 15.8344
153 3 -0.853214 9.21502 0.733313 8.46035
303 2 0.154475 5.62705 4.58207 14.2287
248 2 0.155958 5.42681 5.11483 12.182
226 2 0.157909 6.175 3.4648 13.2234
171 3 -0.848507 11.7091 5.15479 8.55025
55 4 1.55836 10.8014 3.92349 13.2892
177 3 -0.825128 11.4746 5.08626 14.3128
316 2 0.179809 15.8273 0.0603183 16.834
157 3 -0.825732 14.682 0.095305 14.3801
43 4 1.58529 12.1261 1.2111 16.6666
151 3 -0.827096 13.5949 1.99078 16.054
159 3 -0.884347 11.0878 1.15109 15.5505
163 3 -0.850365 12.6786 0.688235 12.6888
161 3 -0.780036 13.5079 2.06567 10.4574
49 4 1.63775 12.1263 1.74177 11.6048
176 3 -0.842598 11.8565 2.9894 12.4724
162 3 -0.827915 10.7559 1.16877 10.811
2 4 1.64579 14.7343 1.98025 9.3671
5 4 1.38531 14.7792 1.60616 15.1044
47 4 1.58025 13.4715 -0.4532 13.3827
152 3 -0.856921 14.2381 0.717006 8.45902
58 4 1.53346 3.75372 11.2576 3.93244
79 1 -0.61376 4.54136 7.72107 6.2238
90 1 -0.679357 5.98782 9.34093 1.96052
229 2 0.177131 5.31707 8.0163 0.562766
183 3 -0.845418 3.11979 10.0234 3.13215
184 3 -0.794563 4.29591 12.5164 2.92615
185 3 -0.799161 2.61558 11.7098 4.96234
192 3 -0.794956 5.01935 10.6038 4.90572
242 2 0.163644 5.31496 7.89414 5.28133
243 2 0.258089 5.11122 7.70148 7.29226
274 2 0.165307 5.63701 8.29738 2.30904
275 2 0.18195 5.37256 9.71149 1.07275
276 2 0.200732 5.97213 10.0919 2.88233
278 2 0.192666 3.95677 9.68429 7.34593
244 2 0.188237 3.60579 8.34444 6.17535
283 2 0.200449 4.15787 10.9973 0.24708
38 4 1.43353 1.25057 11.1998 5.67043
139 3 -0.842652 0.790226 12.0474 6.92743
189 3 -0.795483 3.99478 12.2384 8.32545
191 3 -0.838134 7.85629 10.7128 5.12194
327 2 0.154381 8.19865 12.5638 3.09501
364 2 0.29025 11.0453 7.90014 6.75985
325 2 0.159916 9.0048 11.3778 1.79415
277 2 0.153077 7.69324 10.9222 0.335184
193 3 -0.824612 6.56096 9.59684 7.21266
91 1 -0.670794 8.46822 9.99226 0.352849
348 2 0.157345 6.12833 11.25 1.20671
349 2 0.136037 7.30005 12.9011 1.16842
346 1 -0.672773 6.34793 12.4224 0.777037
194 3 -0.824647 6.40683 12.2033 6.71087
365 2 0.162975 9.59121 10.2042 0.721858
270 2 0.184083 9.92501 6.58902 7.70023
293 2 0.26068 11.2603 7.65675 1.1237
13 4 1.36621 9.09117 10.4543 4.12298
54 4 1.24821 9.508 7.14096 5.17506
57 4 1.08815 7.84381 8.80923 1.74849
59 4 1.55341 7.894 8.7121 7.48614
61 4 1.47906 6.42608 10.7703 5.98964
88 1 -0.618875 10.6582 6.83467 6.68919
174 3 -0.780789 10.7594 6.90378 4.29433
181 3 -0.784895 8.04605 7.22603 1.16175
182 3 -0.791054 8.77505 9.21335 3.09215
186 3 -0.847134 7.32591 7.29616 8.10743
187 3 -0.8268 8.60903 8.10493 5.97332
33 4 1.27699 4.37978 6.69673 10.7649
60 4 1.46026 3.79638 11.0752 9.34204
62 4 1.38037 3.74369 10.3852 14.9944
93 1 -0.661422 5.06921 9.70375 16.2037
173 3 -0.82459 5.72935 7.23797 10.1534
280 2 0.269117 4.52258 8.76822 8.99249
190 3 -0.795923 2.44688 11.1551 10.1548
195 3 -0.869399 3.3866 9.14879 14.126
196 3 -0.795982 4.34837 11.7189 14.0499
197 3 -0.776458 2.54071 10.8557 16.1332
199 3 -0.799229 5.13664 10.7868 10.2149
281 2 0.147904 5.96984 10.1335 15.6776
282 2 0.202316 5.14911 8.54626 16.3705
227 2 0.160089 5.67824 6.71266 15.573
285 2 0.28617 5.37447 8.83039 12.1444
74 1 -0.647731 5.49873 6.52742 16.7171
148 3 -0.817879 0.884845 12.0601 12.1533
200 3 -0.793427 6.16023 12.2005 12.1505
94 1 -0.682186 6.32013 9.40823 12.2967
141 3 -0.842063 3.81017 7.6576 11.952
92 1 -0.663047 3.71989 9.36348 8.46571
273 2 0.15241 8.28716 7.5748 13.1037
284 2 0.183877 7.22284 8.82596 11.9803
272 2 0.222011 10.0894 7.2053 13.5186
286 2 0.155558 6.48705 9.95303 13.3338
63 4 1.33865 6.46425 10.9093 11.2346
366 2 0.180581 9.08266 8.82427 16.2714
356 2 0.180407 8.78984 10.5816 12.5145
357 2 0.242598 7.76423 11.9664 13.5278
206 2 0.161912 9.10908 11.0116 14.388
16 4 1.66026 9.32372 10.4931 9.55235
11 4 1.54915 12.0239 6.33195 15.3016
347 2 0.185879 6.88777 11.8602 16.6024
66 1 -0.701344 8.73454 11.3596 13.3763
89 1 -0.684876 9.36957 7.52632 12.6954
167 3 -0.842976 10.8523 6.59004 16.439
178 3 -0.809288 11.2661 6.72192 10.4854
198 3 -0.831115 8.04746 10.8213 10.317
271 2 0.205758 9.59111 8.56552 12.2945
179 3 -0.765766 8.3707 6.3409 10.3836
188 3 -0.854165 8.8863 9.35519 8.61103
56 4 1.35923 9.87851 6.32901 11.3509
53 4 1.52766 6.99492 6.42877 9.3547
ITEM: TIMESTEP
100
ITEM: NUMBER OF ATOMS
366
ITEM: BOX BOUNDS xy xz yz pp pp pp
-8.2538999999999998e+00 1.6741099999999999e+01 -8.2538999999999998e+00
-6.4910000000000001e-01 1.3422400000000000e+01 6.1619999999999997e-01
0.0000000000000000e+00 1.6875181999999999e+01 -6.4910000000000001e-01
ITEM: ATOMS id type q x y z
3 4 1.08271 0.888514 2.67994 4.80499
8 4 1.29427 -0.377349 4.1202 7.33017
64 1 -0.677133 0.745838 3.75185 3.24096
65 1 -0.677767 -0.0655533 1.00203 4.58364
67 1 -0.65966 -1.8729 5.22177 6.96368
98 3 -0.804874 0.0794493 3.42809 6.04114
125 3 -0.810896 1.02786 5.2983 7.82234
201 2 0.179959 0.368006 4.7635 3.44506
202 2 0.142453 -0.0301911 3.03002 2.73564
203 2 0.16555 1.75812 3.75521 2.73629
317 1 -0.67484 -1.32049 5.04636 0.639799
209 2 0.164025 -2.10414 5.64021 5.86894
288 1 -0.658375 -2.36484 6.37147 3.93116
291 2 0.168555 -2.07561 5.28158 3.96581
310 1 -0.677581 1.50016 0.469066 7.13814
312 2 0.207125 1.51979 0.163232 6.04922
318 2 0.149905 -1.26877 5.50495 1.67637
345 2 0.160727 1.73951 5.92335 1.95577
319 2 0.22505 -2.20987 4.33978 0.527791
241 2 0.276255 1.89052 5.5911 6.28265
208 2 0.254561 -2.68378 4.55038 7.42359
207 2 0.170872 -1.41632 6.16796 7.59262
313 2 0.228735 1.80952 1.55035 7.31294
204 2 0.168423 0.664116 0.143512 4.26747
311 2 0.246479 0.587684 0.164282 7.74366
332 1 -0.661199 3.81115 0.167173 0.258336
240 2 0.137861 2.03982 6.45889 4.50254
126 3 -0.766482 5.02075 4.99984 6.67548
119 3 -0.844301 7.26091 0.378056 6.64675
25 4 1.56524 6.92298 1.84957 6.04141
341 2 0.180219 3.10026 2.92261 0.784332
246 2 0.175774 4.73917 4.56657 3.38092
31 4 0.976556 4.32313 5.92339 5.59388
118 3 -0.740301 5.33179 1.80104 5.06526
29 4 1.58057 5.70103 3.95261 7.88527
361 2 0.12646 2.67172 0.402993 0.398587
333 2 0.222014 4.42077 0.285837 1.19531
344 2 0.163272 2.80704 4.56851 0.955173
218 2 0.158718 3.18809 3.71935 2.69037
219 2 0.154892 3.62359 1.92405 2.04267
343 2 0.156618 3.69248 5.63251 2.41651
217 2 0.147137 3.21966 0.190397 2.54115
220 2 0.193771 4.95428 3.29329 2.27788
239 2 0.19314 2.7136 4.63439 4.80209
21 4 1.14358 3.92879 1.76952 4.28953
342 1 -0.655493 2.81212 5.6203 1.61144
20 4 1.55056 7.65653 0.20313 1.96751
70 1 -0.679823 3.77006 0.0368996 3.48697
71 1 -0.678475 3.93984 2.87384 2.64723
78 1 -0.650764 2.49044 5.63626 5.31116
114 3 -0.7667 2.54445 2.22388 5.07363
115 3 -0.831893 6.51251 1.17295 1.38863
358 2 0.160436 -0.510843 2.3569 0.322993
359 2 0.176292 -0.369157 4.59855 0.261539
6 4 1.53873 1.32441 1.7394 10.868
10 4 1.53504 0.235263 3.75106 13.1414
30 4 1.14549 1.70426 6.13419 8.95628
76 1 -0.698799 1.26504 5.31659 10.5206
95 3 -0.851671 -0.019315 1.58085 10.0448
96 3 -0.811959 1.58204 0.307913 11.6779
99 3 -0.824215 -0.433312 2.76413 14.2711
100 3 -0.80909 0.867147 2.87813 11.9227
102 3 -0.838673 -2.40498 5.68017 10.2994
103 3 -0.793614 -0.770067 4.89888 12.4877
127 3 -0.77806 1.70057 4.43601 13.8062
233 2 0.250666 2.00828 4.46763 10.4827
234 2 0.208157 0.176335 4.99213 10.2117
235 2 0.206663 1.2835 5.87638 11.4852
314 1 -0.671068 0.096938 0.963771 16.4139
315 2 0.168678 1.06577 0.906188 15.7073
32 4 1.49355 1.51584 5.95619 14.5669
337 2 0.141035 1.9297 -0.262136 15.1944
335 2 0.202643 1.88787 1.238 14.0538
7 4 1.22132 -1.04481 5.90739 16.3961
128 3 -0.801456 2.73562 5.86228 15.9383
129 3 -0.838911 0.106214 6.02378 15.3685
101 3 -0.818367 -2.61086 5.96532 16.0364
338 1 -0.658522 3.27326 2.29287 16.6389
12 4 1.40192 -1.75949 6.11502 11.649
116 3 -0.78454 3.86746 0.451964 8.81783
339 2 0.166737 2.82878 1.25075 16.3854
297 1 -0.632724 5.54898 0.926514 14.6125
249 2 0.235903 4.76008 4.32397 10.5354
296 4 0.929516 4.87296 2.58377 15.4822
298 1 -0.67065 4.85712 4.27903 14.4738
299 2 0.2384 5.47599 -0.148459 14.448
81 1 -0.681853 4.42382 4.99455 11.3679
123 3 -0.827924 4.54155 2.98805 8.52421
250 2 0.216184 3.39511 4.67063 11.786
340 2 0.184061 2.53835 3.11963 16.508
360 2 0.216986 4.87687 0.0623481 16.2377
122 3 -0.821764 7.15961 0.286675 12.5789
302 2 0.181185 4.57703 4.14111 13.3746
300 2 0.235303 6.64046 1.27065 14.726
304 2 0.247435 4.04572 4.85883 15.0784
334 1 -0.671337 2.45592 0.324513 14.3689
120 3 -0.790322 6.07062 2.5266 16.4652
117 3 -0.846732 2.85655 2.44383 10.2754
336 2 0.177187 3.58082 0.558828 14.4836
24 4 1.60156 4.17821 1.90528 9.64933
27 4 1.36496 6.93258 1.51561 11.6057
301 2 0.127329 5.05154 1.55726 13.5943
121 3 -0.809824 5.38557 1.76784 10.6736
97 3 -0.805164 -1.11456 3.16127 8.46636
15 4 1.38506 -2.81726 8.89117 7.6157
17 4 1.56641 -4.26938 10.8994 5.7812
106 3 -0.829276 -5.72293 10.6723 4.97817
107 3 -0.823576 -4.06106 9.54398 6.78294
108 3 -0.822478 -4.50847 12.1942 6.72115
133 3 -0.865856 -2.99243 10.9442 4.77728
214 2 0.205767 -2.21381 8.71472 5.32861
255 2 0.167278 -2.56432 9.10406 2.53534
289 1 -0.653304 -4.05389 7.85875 1.74764
294 2 0.145605 -2.87374 7.96589 1.27298
216 2 0.260456 -3.40701 13.0008 3.4359
326 2 0.169783 -6.19072 12.4312 3.09541
328 1 -0.679319 -4.50862 10.729 1.49177
329 2 0.186604 -3.50154 10.6766 2.08932
330 2 0.160209 -4.64237 9.85537 0.715731
331 2 0.173564 -5.47937 11.0842 2.08549
362 2 0.177149 -5.10894 13.0465 4.45323
295 2 0.207371 -4.42536 8.81632 2.32979
1 4 1.41071 -5.36299 12.8265 7.95681
324 1 -0.676365 -7.1977 11.9311 2.93595
292 2 0.174329 -2.31335 6.98561 4.91891
322 2 0.200176 -1.75518 8.94746 0.487139
34 4 1.3842 2.05802 9.4786 2.11285
131 3 -0.834003 2.5218 8.40851 1.00734
36 4 1.58182 0.575867 11.3109 0.163328
83 1 -0.658151 -1.68903 9.8239 2.7398
323 2 0.249421 0.0144139 8.41048 0.0274958
259 2 0.165977 0.638004 8.76694 6.24142
258 2 0.156959 2.07164 8.98274 4.99919
69 1 -0.707158 -1.56694 8.45424 6.19536
254 2 0.182011 -1.61458 10.561 1.85139
354 3 -0.825292 -9.43995e-05 12.7026 0.76971
321 2 0.125985 -0.751215 7.83067 1.66181
28 4 1.1489 2.92538 7.0623 0.29629
134 3 -0.85013 1.05234 10.5302 1.49974
320 1 -0.648226 -0.98234 8.15333 0.557905
35 4 1.40802 -1.6064 11.2651 4.0504
82 1 -0.682006 1.07862 8.20172 3.17558
84 1 -0.685522 1.54448 9.36886 5.9936
132 3 -0.80735 -1.45028 12.6558 3.20993
23 4 1.62612 -0.110012 13.0693 7.80971
138 3 -0.849664 -0.226354 11.0459 4.86636
213 2 0.205059 -0.710706 9.18553 6.25081
215 2 0.16087 -1.21411 7.41326 6.27498
230 2 0.17616 1.06693 8.46185 7.81857
251 2 0.139968 1.92539 7.4865 3.63511
252 2 0.144336 0.302013 7.65007 2.546
253 2 0.176053 0.590831 8.78626 3.98502
256 2 0.180745 -0.651486 9.15624 2.86977
135 3 -0.827022 -2.02091 10.011 8.4437
38 4 1.43821 1.14379 11.2285 5.64887
290 2 0.122444 -1.98075 6.98677 2.9606
4 4 1.19766 -6.05033 12.6091 12.6452
18 4 1.57313 -2.97931 8.40406 13.4004
19 4 1.5778 -4.21085 10.6168 11.3622
68 1 -0.66905 -4.93262 10.8622 15.4356
105 3 -0.850927 -6.22402 11.7096 8.8013
109 3 -0.804507 -4.00415 7.92933 14.5786
110 3 -0.851483 -2.58077 7.01832 12.6502
111 3 -0.854067 -5.47793 10.2265 10.499
112 3 -0.847653 -3.72127 9.39624 12.3398
113 3 -0.806345 -4.60495 11.9096 12.3516
137 3 -0.797563 -2.7841 11.036 10.4873
145 3 -0.785532 -2.21919 10.8821 16.0895
210 2 0.175325 -5.31313 11.9689 15.1014
211 2 0.162425 -5.70037 10.2606 16.0947
212 2 0.240739 -4.4534 10.2841 14.6318
279 2 0.178956 2.61278 8.89109 8.57441
14 4 0.960409 -3.65823 11.1129 16.7775
104 3 -0.832766 -3.19928 7.57638 8.54051
142 3 -0.850832 -1.63796 9.16773 14.0349
232 2 0.174017 -0.298382 7.87988 8.92494
143 3 -0.839353 0.091804 9.84607 16.0268
144 3 -0.866221 -0.586411 11.623 14.2446
26 4 1.65315 0.0454254 12.7507 13.2931
146 3 -0.895458 -0.212253 10.253 10.3882
147 3 -0.864685 1.58639 9.32982 11.9594
236 2 0.272611 -0.648298 8.38218 12.0254
238 2 0.200861 -0.811435 7.91064 10.1964
237 2 0.193888 0.494228 7.01887 11.4322
75 1 -0.665027 0.851925 7.95708 8.81868
37 4 1.64568 -1.43718 10.9705 9.62568
39 4 1.58103 2.54662 8.32159 12.8182
40 4 1.61071 -1.03797 10.3278 15.0399
41 4 1.62929 1.14131 10.6008 11.1395
130 3 -0.808693 3.28978 6.56645 9.32714
77 1 -0.658627 -0.540052 7.5586 11.2751
231 2 0.20881 1.35898 8.4741 9.73057
136 3 -0.846036 -1.04386 12.3845 8.87931
140 3 -0.875965 1.70508 7.07547 13.4922
22 4 1.27319 6.76726 2.60678 0.450425
42 4 1.60094 9.20685 2.03923 3.88233
72 1 -0.694605 6.73624 4.07463 1.66833
86 1 -0.703467 8.30075 5.76065 4.55683
87 1 -0.685694 9.4484 4.49475 7.08167
124 3 -0.880955 6.79722 3.02429 7.17083
149 3 -0.827174 8.91401 0.871414 2.8126
150 3 -0.860774 7.97306 2.24387 4.93148
164 3 -0.880016 9.54157 3.45406 3.00963
168 3 -0.830039 9.51178 4.95727 0.860526
221 2 0.252673 7.75679 4.55199 1.46429
222 2 0.198675 6.72536 3.63649 2.69732
223 2 0.187599 5.83182 4.63219 1.32328
263 2 0.200495 7.66008 5.44904 5.43741
264 2 0.248501 8.84704 4.93326 3.98016
266 2 0.270761 8.48468 3.90389 7.07939
268 2 0.206235 9.20247 5.55901 7.41167
267 2 0.169469 10.0509 4.42505 6.13336
80 1 -0.659022 5.17841 5.59431 3.78533
247 2 0.186384 6.36828 5.59444 4.09394
51 4 1.31401 8.99373 6.38898 0.116691
44 4 1.53503 13.5452 -0.129146 7.3419
245 2 0.143505 4.88783 6.46379 3.21105
152 3 -0.858376 14.402 0.906266 8.21064
165 3 -0.849939 11.0808 2.92205 0.92538
355 2 0.231785 15.5936 0.690819 5.5652
170 3 -0.854893 11.6653 2.78843 7.17169
166 3 -0.838092 11.6639 5.06001 2.51132
260 2 0.169075 12.9084 3.09734 4.0964
261 2 0.194653 14.2865 2.01239 4.93191
306 1 -0.671444 13.9613 1.42211 2.13662
269 2 0.185335 11.1399 6.21445 6.52605
205 2 0.153716 15.292 1.17691 3.70806
309 2 0.173529 13.7099 1.88726 3.19268
307 3 -0.759971 12.0965 0.484461 0.516587
308 2 0.200573 13.6217 2.1162 1.31153
287 4 1.19536 11.9637 6.43405 3.14351
155 3 -0.814217 10.5014 1.91478 4.81656
46 4 1.40221 11.8874 1.88153 5.84484
50 4 1.5854 10.4277 4.07629 1.87412
52 4 1.38159 10.8238 3.77304 8.21724
85 1 -0.677243 13.3774 2.73276 5.06167
363 2 0.121571 15.0624 0.953192 1.93493
156 3 -0.823519 12.4836 0.490411 6.1834
262 2 0.195576 13.6984 3.67231 5.75704
228 2 0.155363 5.0236 6.09907 0.2145
45 4 1.62582 9.58834 1.57824 9.7688
48 4 1.63422 9.72911 1.59331 15.0027
352 2 0.168695 7.21666 5.70771 16.1291
73 1 -0.698205 7.12493 3.17073 12.5186
154 3 -0.820201 8.28454 1.50026 10.6355
158 3 -0.865924 9.06646 0.510666 14.0849
160 3 -0.822139 8.66025 1.94823 16.2525
169 3 -0.82522 9.9296 3.15193 9.46428
172 3 -0.846876 6.36552 4.98131 8.92917
175 3 -0.847891 10.0113 3.0566 14.1313
180 3 -0.83849 10.0065 4.97883 12.1945
224 2 0.21649 7.42105 3.86628 11.6652
225 2 0.231738 8.07204 2.98022 13.1098
350 1 -0.68117 8.28839 5.24205 15.7401
351 2 0.182892 8.6221 5.57295 14.753
353 2 0.234777 8.28518 4.10475 15.888
56 4 1.43178 9.7545 6.26614 11.2081
303 2 0.160005 5.91336 4.79138 14.6327
248 2 0.162636 5.23892 4.99821 12.1857
153 3 -0.855173 9.22891 0.635882 8.49552
171 3 -0.832499 11.6037 5.10706 8.58271
55 4 1.60237 10.8928 4.08436 13.2366
177 3 -0.843236 11.6118 5.10044 14.2443
316 2 0.170233 15.81 -0.126531 16.7792
157 3 -0.836579 14.6106 0.284756 14.3059
43 4 1.60566 12.2053 1.35417 16.67
151 3 -0.826946 13.5935 2.08402 15.9965
159 3 -0.862469 11.114 1.15737 15.6038
163 3 -0.819289 12.5112 0.451062 12.6202
161 3 -0.854317 13.5002 2.00372 10.5431
49 4 1.63134 12.2845 1.71005 11.5687
176 3 -0.794276 12.014 3.15036 12.3216
162 3 -0.793267 10.9574 1.223 10.7156
2 4 1.66415 14.6797 1.90159 9.40144
5 4 1.38339 14.9163 1.6063 15.1657
226 2 0.169454 6.33099 3.5383 13.2284
179 3 -0.829992 8.49126 6.24906 10.2857
58 4 1.6019 3.80672 11.2875 4.01105
79 1 -0.661949 4.36824 7.773 5.95801
90 1 -0.685843 6.03639 9.24777 1.89009
229 2 0.17164 5.28332 7.91215 0.52286
183 3 -0.816959 3.31605 10.1033 2.99949
184 3 -0.796471 4.34088 12.373 2.8895
185 3 -0.800285 2.43778 11.7927 4.79964
192 3 -0.844337 4.98776 10.7984 4.82599
242 2 0.163056 4.90485 7.95528 4.96269
243 2 0.253693 5.01711 7.92935 6.77631
274 2 0.168875 5.75642 8.19469 2.10497
275 2 0.167018 5.48814 9.56872 0.84593
276 2 0.222071 5.86512 9.95938 2.7565
278 2 0.189853 3.90015 9.90502 7.37229
244 2 0.17684 3.31134 8.37579 6.00227
283 2 0.190698 4.25042 10.859 0.21513
187 3 -0.772059 8.68883 8.21673 5.88526
139 3 -0.811153 0.931614 11.8372 7.04954
305 4 1.17989 4.83161 13.2482 1.64947
191 3 -0.881157 7.74203 11.0108 5.01809
327 2 0.174911 8.09966 12.6688 3.12514
364 2 0.31167 10.9723 8.13676 6.86251
325 2 0.167139 8.82024 11.3467 1.96099
277 2 0.153334 7.78956 10.8686 0.494539
193 3 -0.830421 6.53054 9.60024 7.08162
91 1 -0.674893 8.56563 9.99005 0.462341
348 2 0.168285 6.17415 11.1236 1.16914
349 2 0.135206 7.305 12.6264 1.00156
346 1 -0.678415 6.30119 12.205 0.678279
194 3 -0.835799 6.40299 12.3044 6.73815
365 2 0.160023 9.71721 10.1898 0.751597
270 2 0.224311 9.87491 6.81308 7.83301
293 2 0.256299 11.3479 7.61299 0.897108
13 4 1.41596 8.98753 10.4862 4.25511
54 4 1.1363 9.53718 7.06082 5.20776
57 4 1.14121 7.9307 8.86759 1.85532
59 4 1.47118 7.876 8.6707 7.43754
61 4 1.49839 6.46733 10.8987 5.90359
88 1 -0.623304 10.4534 7.05552 6.82495
174 3 -0.78941 11.0458 7.07705 4.19306
181 3 -0.767622 8.12033 7.24695 1.34984
182 3 -0.823255 8.71406 9.26746 3.09035
186 3 -0.858276 7.52052 7.13138 7.96654
188 3 -0.859387 9.08395 9.33983 8.40255
92 1 -0.665199 3.71371 9.42179 8.40896
257 2 0.15054 2.35362 9.46658 6.97171
265 2 0.183679 7.80213 6.57576 3.88423
33 4 1.31879 4.27345 6.71503 10.6073
60 4 1.44856 3.7513 11.0608 9.39075
62 4 1.34608 3.77041 10.4575 15.0579
93 1 -0.661827 5.09294 9.62006 16.1095
173 3 -0.812863 5.93684 7.1816 10.2044
280 2 0.25095 4.58248 8.87888 8.8637
190 3 -0.847796 2.35955 11.0702 10.1641
195 3 -0.806647 3.30037 9.27225 13.8808
196 3 -0.796416 4.54388 11.7401 14.2944
197 3 -0.790894 2.52286 10.8247 16.1227
199 3 -0.807382 5.14336 10.7371 10.2513
281 2 0.143585 6.06039 10.0013 15.5348
282 2 0.188899 5.14443 8.45736 16.2841
227 2 0.167287 5.74148 6.62532 15.7075
285 2 0.26179 5.49378 8.77596 11.884
74 1 -0.689845 5.42971 6.4903 16.7343
148 3 -0.802994 0.880139 11.9613 12.1472
200 3 -0.859937 6.13021 12.1386 12.1617
94 1 -0.647239 6.47735 9.34289 12.1345
141 3 -0.849067 3.59583 7.60421 11.8083
53 4 1.54825 7.0577 6.41704 9.31727
273 2 0.14776 8.31201 7.9269 12.7766
284 2 0.188396 7.35549 8.62822 12.0251
272 2 0.19413 9.80104 7.14388 13.4963
286 2 0.158602 6.39343 9.84365 13.1561
63 4 1.42277 6.47728 10.9775 11.1339
366 2 0.165334 9.11113 8.79883 16.3315
356 2 0.190677 8.52023 10.8408 12.7342
357 2 0.229456 7.95947 12.2879 13.7728
206 2 0.162125 9.19297 10.9186 14.5025
16 4 1.62077 9.3826 10.4273 9.46632
11 4 1.50576 12.045 6.287 15.2788
347 2 0.172377 6.80857 11.4963 16.4457
66 1 -0.696989 8.81456 11.5411 13.5547
89 1 -0.667543 9.4011 7.59459 12.5508
167 3 -0.865083 10.8104 6.49439 16.3715
178 3 -0.830222 11.1413 6.83239 10.4802
198 3 -0.825998 7.94722 10.7827 10.4726
271 2 0.232509 10.1275 8.4345 12.2761
47 4 1.60121 5.2958 12.8712 13.325
189 3 -0.776026 4.28513 12.2014 8.46843
9 4 1.52931 12.3228 6.35571 9.537
ITEM: TIMESTEP
200
ITEM: NUMBER OF ATOMS
366
ITEM: BOX BOUNDS xy xz yz pp pp pp
-8.2538999999999998e+00 1.6741099999999999e+01 -8.2538999999999998e+00
-6.4910000000000001e-01 1.3422400000000000e+01 6.1619999999999997e-01
0.0000000000000000e+00 1.6841363999999999e+01 -6.4910000000000001e-01
ITEM: ATOMS id type q x y z
3 4 1.07715 0.797443 2.4578 4.93427
8 4 1.26081 -0.428815 4.18473 7.48198
64 1 -0.655811 0.686951 3.38091 3.32712
65 1 -0.673612 -0.316791 0.850972 4.84388
67 1 -0.676419 -1.91771 5.19743 6.89218
98 3 -0.780769 0.0203538 3.36613 6.18011
125 3 -0.803481 1.07712 5.29038 7.78622
201 2 0.165616 -0.00525549 4.32029 3.46824
202 2 0.147684 0.155704 2.52193 2.73247
203 2 0.170578 1.70201 3.63093 2.87985