ITEM: TIMESTEP
0
ITEM: NUMBER OF ATOMS
366
ITEM: BOX BOUNDS xy xz yz pp pp pp
-8.2538999999999998e+00 1.6741099999999999e+01 -8.2538999999999998e+00
-6.4910000000000001e-01 1.3422400000000000e+01 6.1619999999999997e-01
0.0000000000000000e+00 1.6908999999999999e+01 -6.4910000000000001e-01
ITEM: ATOMS id type q x y z
3 4 1.04454 0.830321 2.72587 4.71018
8 4 1.26873 -0.467187 4.21054 7.31986
64 1 -0.677239 0.807495 3.83522 3.19545
65 1 -0.677029 -0.247337 0.993594 4.49656
67 1 -0.690378 -1.83245 5.4001 6.80694
98 3 -0.788748 0.1367 3.47159 6.01669
125 3 -0.768914 1.03988 5.23237 7.88589
201 2 0.176084 0.440708 4.83718 3.40957
202 2 0.132451 -0.0210814 3.11818 2.67243
203 2 0.170033 1.77486 3.83833 2.63922
317 1 -0.654878 -1.4805 4.86004 0.531102
209 2 0.162516 -1.9081 5.77598 5.67571
288 1 -0.694116 -2.17999 6.36 3.76015
291 2 0.170285 -2.19476 5.30067 4.15085
310 1 -0.679245 1.39073 0.550463 6.94905
312 2 0.198381 1.38511 0.234211 5.86425
318 2 0.136666 -1.12173 5.41735 1.50037
345 2 0.153987 1.84817 5.92661 1.98389
319 2 0.24045 -2.47651 4.25136 0.63271
241 2 0.282696 1.85869 5.63149 6.33478
208 2 0.222107 -2.73522 4.75167 7.24983
207 2 0.160285 -1.48204 6.24882 7.5935
313 2 0.24951 1.63592 1.61113 7.1408
204 2 0.173862 0.483031 0.195937 4.33289
311 2 0.238677 0.496984 0.160154 7.51035
358 2 0.155135 -0.327486 2.4728 0.00106906
290 2 0.138407 -1.48367 6.49997 2.89799
126 3 -0.730212 4.92302 4.93234 6.59964
119 3 -0.816572 7.24933 0.483983 6.64988
25 4 1.59227 6.91226 1.91204 5.92309
341 2 0.167861 3.1548 2.86574 0.920846
246 2 0.166728 4.77379 4.60709 3.36094
31 4 0.948288 4.24072 5.94746 5.48997
118 3 -0.793553 5.43201 1.89542 5.13313
29 4 1.58107 5.72269 3.96844 7.88554
361 2 0.140314 3.10217 0.510795 0.695322
333 2 0.220516 4.93371 0.267569 1.16714
344 2 0.159332 2.88312 4.47695 0.950349
218 2 0.156374 3.30619 3.50303 2.54145
219 2 0.159183 4.0369 1.76212 2.07182
343 2 0.156928 3.80275 5.65886 2.4199
217 2 0.134592 3.09433 0.161878 2.71028
220 2 0.191419 5.24014 3.26144 2.41568
239 2 0.184311 2.43098 4.89406 4.72743
21 4 1.15677 4.03746 1.84746 4.30761
342 1 -0.656532 2.88146 5.59732 1.5926
20 4 1.59122 7.78529 0.177254 1.93748
70 1 -0.675464 3.94077 0.0447918 3.50331
71 1 -0.673622 4.20064 2.80981 2.67694
78 1 -0.673 2.40333 5.86584 5.3667
114 3 -0.757144 2.53588 2.20589 4.87262
115 3 -0.874141 6.90628 1.33548 1.41261
23 4 1.66519 8.25561 -0.257808 7.72899
332 1 -0.681252 4.12041 0.1934 0.386843
6 4 1.6392 1.28204 1.72101 10.8977
10 4 1.54442 0.211117 3.75722 13.1653
30 4 1.12203 1.58336 6.20389 9.03069
76 1 -0.66341 1.3375 5.21138 10.5209
95 3 -0.841658 0.0561142 1.56323 9.91464
96 3 -0.815626 1.56687 0.420136 11.7237
99 3 -0.824492 -0.621953 2.7429 14.1444
100 3 -0.817617 0.858992 2.85805 12.0052
102 3 -0.834362 -2.32777 5.76758 10.3571
103 3 -0.794813 -0.703117 4.9196 12.3765
127 3 -0.793852 1.74075 4.40513 13.8241
233 2 0.259729 2.04632 4.35074 10.4512
234 2 0.226185 0.229886 4.87242 10.2437
235 2 0.172602 1.49013 5.95577 11.4414
314 1 -0.658915 0.0443893 0.974973 16.2619
315 2 0.173884 0.967363 0.674686 15.5487
32 4 1.46826 1.61651 5.91141 14.532
337 2 0.122814 2.05629 -0.368325 15.3463
335 2 0.193348 1.88298 1.1685 14.1084
7 4 1.20442 -1.12133 5.83614 16.3836
97 3 -0.833672 -1.0318 3.31668 8.57736
129 3 -0.788479 0.0341401 5.80693 15.2634
101 3 -0.823119 -2.63135 5.99895 15.9115
359 2 0.173683 -0.0137441 3.77201 16.8198
12 4 1.42444 -1.60742 6.2014 11.6906
116 3 -0.810411 3.56346 0.533707 8.6846
339 2 0.166456 2.89666 1.20564 16.4464
297 1 -0.653688 5.6061 0.992454 14.6261
249 2 0.223136 4.92984 4.29359 10.4319
296 4 0.932892 4.84938 2.51635 15.6055
298 1 -0.65901 4.61956 4.08762 14.386
299 2 0.210284 5.42728 -0.118851 14.3062
81 1 -0.692308 4.63758 4.9072 11.3426
123 3 -0.853196 4.56291 3.04461 8.56345
250 2 0.187517 3.54544 4.71188 11.7379
340 2 0.170635 2.45827 2.99874 16.5756
360 2 0.193698 5.08146 0.0804412 16.3089
122 3 -0.786584 6.90644 0.268084 12.4561
302 2 0.19089 4.09568 3.64284 13.438
300 2 0.201485 6.71585 1.04182 14.9712
304 2 0.242204 3.87416 4.80958 14.9868
334 1 -0.672745 2.50189 0.228467 14.4125
120 3 -0.774669 5.96585 2.72323 16.6505
117 3 -0.861546 2.62828 2.25842 10.0744
336 2 0.169168 3.64284 0.531419 14.4549
24 4 1.61271 4.00396 1.87919 9.47341
27 4 1.37194 6.80009 1.54583 11.4903
301 2 0.160943 5.36208 1.6026 13.622
121 3 -0.768631 5.32401 1.51745 10.6194
338 1 -0.659651 3.26291 2.22239 16.7132
128 3 -0.808507 2.73472 5.99212 15.8367
15 4 1.38187 -2.84159 8.90496 7.64672
17 4 1.48988 -4.28966 10.855 5.83666
106 3 -0.825505 -5.51235 10.5764 4.69415
107 3 -0.825759 -4.17161 9.46551 6.9213
108 3 -0.850785 -4.66554 12.2201 6.65044
133 3 -0.801457 -2.85916 11.1473 5.01928
214 2 0.17803 -2.20906 8.91205 5.16509
255 2 0.161332 -2.71036 9.20541 2.67045
289 1 -0.668312 -4.09865 7.78987 1.96846
294 2 0.16047 -3.00074 7.97738 1.52923
216 2 0.269194 -3.26964 13.21 3.09685
326 2 0.173622 -5.95496 12.4328 3.08991
328 1 -0.679767 -4.61677 10.5687 1.25905
329 2 0.186312 -3.62802 10.2694 1.8323
330 2 0.189208 -4.94908 9.82841 0.485253
331 2 0.185024 -5.46805 10.9462 1.92889
362 2 0.22619 -4.64334 12.9757 4.47399
295 2 0.203136 -4.40438 8.60252 2.69476
1 4 1.45893 -5.47192 12.8926 7.79567
324 1 -0.677406 -6.99934 11.8961 2.84511
292 2 0.157604 -1.99077 7.20486 4.55099
322 2 0.216469 -1.93683 8.85398 0.503247
34 4 1.34806 1.94203 9.43933 2.19122
131 3 -0.795282 2.73008 8.30874 1.0989
36 4 1.58745 0.582236 11.271 0.178014
83 1 -0.688431 -1.866 9.91403 2.69895
323 2 0.237477 -0.157349 8.30244 0.194206
259 2 0.142611 0.781922 8.69256 5.90766
258 2 0.198349 2.39878 9.07409 5.09113
69 1 -0.675218 -1.71833 8.47137 6.13389
254 2 0.199822 -1.88795 10.5809 1.71338
354 3 -0.845159 0.0713568 12.7103 0.711488
321 2 0.124317 -1.08973 7.70561 1.73798
28 4 1.1314 2.98757 6.98827 0.328274
134 3 -0.859862 0.882535 10.4279 1.51671
320 1 -0.66233 -1.17167 8.03837 0.617249
35 4 1.34555 -1.58363 11.3127 3.93613
82 1 -0.667697 0.825925 8.23032 3.1594
84 1 -0.709871 1.76215 9.34482 5.95732
132 3 -0.826489 -1.57385 12.6191 2.95562
240 2 0.146989 1.87067 6.71971 4.82365
138 3 -0.803955 -0.0361378 11.0888 4.67778
213 2 0.178397 -0.644942 8.87356 6.15235
215 2 0.160749 -1.71938 7.30952 6.26953
230 2 0.179513 1.16474 8.49543 7.70604
251 2 0.138752 1.58735 7.4386 3.64108
252 2 0.129714 0.0787695 7.55861 2.47065
253 2 0.178813 0.318818 8.84526 3.94952
256 2 0.203243 -0.882201 9.28001 2.7831
135 3 -0.840737 -1.83658 9.9331 8.39049
257 2 0.166326 2.35153 9.33571 6.88938
4 4 1.19822 -6.15432 12.6123 12.7149
18 4 1.54951 -2.98335 8.45011 13.4025
19 4 1.55199 -4.1776 10.467 11.4035
68 1 -0.676022 -4.85469 10.7559 15.4238
105 3 -0.833413 -6.21028 11.7246 8.7412
109 3 -0.797047 -4.13035 7.7703 14.4943
110 3 -0.852471 -2.44553 7.05311 12.6674
111 3 -0.805448 -5.47586 9.9098 10.5262
112 3 -0.918689 -3.71611 9.50739 12.5478
113 3 -0.779665 -4.87219 11.8089 12.2262
137 3 -0.800154 -2.87603 11.1331 10.4869
145 3 -0.797136 -2.24479 10.7533 16.1323
210 2 0.161024 -5.12544 11.8994 15.0483
211 2 0.16614 -5.74509 10.2513 15.9731
212 2 0.260116 -4.47466 10.1497 14.6215
9 4 1.56674 -3.69365 6.35123 9.49656
14 4 0.992551 -3.58311 11.1366 16.7631
104 3 -0.85532 -3.25137 7.60322 8.5554
142 3 -0.831653 -1.63984 9.09701 14.2741
232 2 0.181617 -0.294051 7.96062 8.67888
143 3 -0.824183 0.098404 9.80889 16.1115
144 3 -0.893835 -0.501277 11.5817 14.1891
26 4 1.62444 0.00614372 12.7272 13.2113
146 3 -0.885135 -0.184242 10.4635 10.4551
147 3 -0.850714 1.63128 9.43988 12.0864
236 2 0.250361 -0.540257 8.32926 12.1696
238 2 0.1844 -0.613469 7.99991 10.1781
237 2 0.181306 0.73604 7.09996 11.398
75 1 -0.697562 0.782257 8.08591 8.70052
37 4 1.59089 -1.47656 11.0121 9.59544
39 4 1.55979 2.65897 8.37995 12.9892
40 4 1.6038 -0.996516 10.3347 15.057
41 4 1.6019 1.13433 10.6853 11.2403
130 3 -0.754759 3.13888 6.5327 9.38202
77 1 -0.658656 -0.347636 7.60384 11.3045
231 2 0.209809 1.12514 8.73125 9.49046
136 3 -0.792393 -0.973924 12.4205 8.92349
140 3 -0.862898 1.74404 7.18413 13.5556
279 2 0.17985 2.6092 8.93232 8.5946
22 4 1.27664 6.90964 2.71281 0.465047
42 4 1.59198 9.31959 2.04822 3.81922
72 1 -0.675853 7.09196 3.93325 1.92476
86 1 -0.672471 8.32653 5.77546 4.61662
87 1 -0.69214 9.32211 4.57111 7.0035
124 3 -0.86157 6.73491 3.03418 7.11111
149 3 -0.835445 8.98011 0.780155 2.88413
150 3 -0.867083 8.10244 2.2822 4.88674
164 3 -0.889024 9.46089 3.33882 2.99234
168 3 -0.853544 9.76462 5.03368 0.912913
221 2 0.261292 8.04986 4.51371 1.91284
222 2 0.225087 7.01253 3.25151 2.83094
223 2 0.172316 6.10791 4.53598 1.69785
263 2 0.19432 7.63501 5.46906 5.50193
264 2 0.245992 8.76299 4.84188 4.03441
266 2 0.273887 8.45351 3.85641 7.11865
268 2 0.188431 9.02329 5.64603 7.33158
267 2 0.187643 9.71766 4.57692 5.95338
80 1 -0.667383 5.26955 5.65908 3.78295
247 2 0.195534 6.33048 5.55716 4.14908
51 4 1.34603 9.05943 6.33896 0.189401
228 2 0.165029 5.11864 6.12085 0.185818
265 2 0.173508 7.82097 6.51028 3.83126
245 2 0.142018 5.15211 6.52101 3.05492
165 3 -0.913958 11.2488 2.86309 0.875265
305 4 1.16577 13.0997 0.00987978 1.69678
170 3 -0.832016 11.5592 2.91171 7.13972
166 3 -0.772178 11.804 4.94565 2.56323
260 2 0.189018 12.6003 3.33624 4.08453
261 2 0.175629 14.2977 2.2063 4.80958
306 1 -0.684908 13.8524 1.66746 2.08727
269 2 0.209476 11.4312 6.04783 6.53487
205 2 0.15899 15.1263 1.16133 3.62268
309 2 0.18245 13.6406 2.14782 3.15205
307 3 -0.758295 12.049 0.287371 0.467087
308 2 0.224508 13.5803 2.44938 1.27563
287 4 1.09977 12.1182 6.39064 3.20149
155 3 -0.806312 10.819 1.77886 4.73453
46 4 1.42189 11.9679 1.91569 5.85347
50 4 1.5336 10.5472 3.9284 1.74817
52 4 1.42127 10.7799 3.94827 8.12221
85 1 -0.662585 13.3048 2.97438 4.98548
363 2 0.122458 14.9492 1.33706 1.90957
156 3 -0.834114 12.7745 0.682804 6.34124
262 2 0.180478 13.5477 3.89749 5.64275
44 4 1.57158 13.4979 -0.226142 7.48679
355 2 0.216936 15.4042 1.02777 5.52377
45 4 1.64668 9.6099 1.64037 9.81481
48 4 1.61214 9.67509 1.59862 14.922
352 2 0.189016 7.33302 5.60947 16.1001
73 1 -0.685002 7.0577 3.14083 12.5431
154 3 -0.806579 8.20081 1.82156 10.6828
158 3 -0.840094 9.16886 0.370083 14.0323
160 3 -0.860677 8.62839 2.14236 16.2276
169 3 -0.826491 10.0506 3.11482 9.29658
172 3 -0.862955 6.54804 4.91398 8.85361
175 3 -0.885458 9.67952 2.92557 14.0436
180 3 -0.791164 10.0929 4.88592 12.0617
224 2 0.211071 7.20221 3.84613 11.6163
225 2 0.272643 7.96525 3.06212 13.12
350 1 -0.671881 8.38369 5.13138 15.8012
351 2 0.178786 8.76081 5.46062 14.8058
353 2 0.261627 8.36118 3.96357 15.8344
153 3 -0.853214 9.21502 0.733313 8.46035
303 2 0.154475 5.62705 4.58207 14.2287
248 2 0.155958 5.42681 5.11483 12.182
226 2 0.157909 6.175 3.4648 13.2234
171 3 -0.848507 11.7091 5.15479 8.55025
55 4 1.55836 10.8014 3.92349 13.2892
177 3 -0.825128 11.4746 5.08626 14.3128
316 2 0.179809 15.8273 0.0603183 16.834
157 3 -0.825732 14.682 0.095305 14.3801
43 4 1.58529 12.1261 1.2111 16.6666
151 3 -0.827096 13.5949 1.99078 16.054
159 3 -0.884347 11.0878 1.15109 15.5505
163 3 -0.850365 12.6786 0.688235 12.6888
161 3 -0.780036 13.5079 2.06567 10.4574
49 4 1.63775 12.1263 1.74177 11.6048
176 3 -0.842598 11.8565 2.9894 12.4724
162 3 -0.827915 10.7559 1.16877 10.811
2 4 1.64579 14.7343 1.98025 9.3671
5 4 1.38531 14.7792 1.60616 15.1044
47 4 1.58025 13.4715 -0.4532 13.3827
152 3 -0.856921 14.2381 0.717006 8.45902
58 4 1.53346 3.75372 11.2576 3.93244
79 1 -0.61376 4.54136 7.72107 6.2238
90 1 -0.679357 5.98782 9.34093 1.96052
229 2 0.177131 5.31707 8.0163 0.562766
183 3 -0.845418 3.11979 10.0234 3.13215
184 3 -0.794563 4.29591 12.5164 2.92615
185 3 -0.799161 2.61558 11.7098 4.96234
192 3 -0.794956 5.01935 10.6038 4.90572
242 2 0.163644 5.31496 7.89414 5.28133
243 2 0.258089 5.11122 7.70148 7.29226
274 2 0.165307 5.63701 8.29738 2.30904
275 2 0.18195 5.37256 9.71149 1.07275
276 2 0.200732 5.97213 10.0919 2.88233
278 2 0.192666 3.95677 9.68429 7.34593
244 2 0.188237 3.60579 8.34444 6.17535
283 2 0.200449 4.15787 10.9973 0.24708
38 4 1.43353 1.25057 11.1998 5.67043
139 3 -0.842652 0.790226 12.0474 6.92743
189 3 -0.795483 3.99478 12.2384 8.32545
191 3 -0.838134 7.85629 10.7128 5.12194
327 2 0.154381 8.19865 12.5638 3.09501
364 2 0.29025 11.0453 7.90014 6.75985
325 2 0.159916 9.0048 11.3778 1.79415
277 2 0.153077 7.69324 10.9222 0.335184
193 3 -0.824612 6.56096 9.59684 7.21266
91 1 -0.670794 8.46822 9.99226 0.352849
348 2 0.157345 6.12833 11.25 1.20671
349 2 0.136037 7.30005 12.9011 1.16842
346 1 -0.672773 6.34793 12.4224 0.777037
194 3 -0.824647 6.40683 12.2033 6.71087
365 2 0.162975 9.59121 10.2042 0.721858
270 2 0.184083 9.92501 6.58902 7.70023
293 2 0.26068 11.2603 7.65675 1.1237
13 4 1.36621 9.09117 10.4543 4.12298
54 4 1.24821 9.508 7.14096 5.17506
57 4 1.08815 7.84381 8.80923 1.74849
59 4 1.55341 7.894 8.7121 7.48614
61 4 1.47906 6.42608 10.7703 5.98964
88 1 -0.618875 10.6582 6.83467 6.68919
174 3 -0.780789 10.7594 6.90378 4.29433
181 3 -0.784895 8.04605 7.22603 1.16175
182 3 -0.791054 8.77505 9.21335 3.09215
186 3 -0.847134 7.32591 7.29616 8.10743
187 3 -0.8268 8.60903 8.10493 5.97332
33 4 1.27699 4.37978 6.69673 10.7649
60 4 1.46026 3.79638 11.0752 9.34204
62 4 1.38037 3.74369 10.3852 14.9944
93 1 -0.661422 5.06921 9.70375 16.2037
173 3 -0.82459 5.72935 7.23797 10.1534
280 2 0.269117 4.52258 8.76822 8.99249
190 3 -0.795923 2.44688 11.1551 10.1548
195 3 -0.869399 3.3866 9.14879 14.126
196 3 -0.795982 4.34837 11.7189 14.0499
197 3 -0.776458 2.54071 10.8557 16.1332
199 3 -0.799229 5.13664 10.7868 10.2149
281 2 0.147904 5.96984 10.1335 15.6776
282 2 0.202316 5.14911 8.54626 16.3705
227 2 0.160089 5.67824 6.71266 15.573
285 2 0.28617 5.37447 8.83039 12.1444
74 1 -0.647731 5.49873 6.52742 16.7171
148 3 -0.817879 0.884845 12.0601 12.1533
200 3 -0.793427 6.16023 12.2005 12.1505
94 1 -0.682186 6.32013 9.40823 12.2967
141 3 -0.842063 3.81017 7.6576 11.952
92 1 -0.663047 3.71989 9.36348 8.46571
273 2 0.15241 8.28716 7.5748 13.1037
284 2 0.183877 7.22284 8.82596 11.9803
272 2 0.222011 10.0894 7.2053 13.5186
286 2 0.155558 6.48705 9.95303 13.3338
63 4 1.33865 6.46425 10.9093 11.2346
366 2 0.180581 9.08266 8.82427 16.2714
356 2 0.180407 8.78984 10.5816 12.5145
357 2 0.242598 7.76423 11.9664 13.5278
206 2 0.161912 9.10908 11.0116 14.388
16 4 1.66026 9.32372 10.4931 9.55235
11 4 1.54915 12.0239 6.33195 15.3016
347 2 0.185879 6.88777 11.8602 16.6024
66 1 -0.701344 8.73454 11.3596 13.3763
89 1 -0.684876 9.36957 7.52632 12.6954
167 3 -0.842976 10.8523 6.59004 16.439
178 3 -0.809288 11.2661 6.72192 10.4854
198 3 -0.831115 8.04746 10.8213 10.317
271 2 0.205758 9.59111 8.56552 12.2945
179 3 -0.765766 8.3707 6.3409 10.3836
188 3 -0.854165 8.8863 9.35519 8.61103
56 4 1.35923 9.87851 6.32901 11.3509
53 4 1.52766 6.99492 6.42877 9.3547
ITEM: TIMESTEP
100
ITEM: NUMBER OF ATOMS
366
ITEM: BOX BOUNDS xy xz yz pp pp pp
-8.2538999999999998e+00 1.6741099999999999e+01 -8.2538999999999998e+00
-6.8134979999999956e-01 1.3422400000000000e+01 6.1619999999999997e-01
0.0000000000000000e+00 1.6908999999999999e+01 -6.8134979999999956e-01
ITEM: ATOMS id type q x y z
3 4 1.08268 0.888488 2.67993 4.80498
8 4 1.29429 -0.377353 4.12021 7.33017
64 1 -0.677132 0.745811 3.75187 3.24093
65 1 -0.677793 -0.0656171 1.00208 4.58351
67 1 -0.659675 -1.87292 5.22172 6.9636
98 3 -0.804867 0.0794528 3.42807 6.04115
125 3 -0.810881 1.02786 5.29831 7.82233
201 2 0.180141 0.367944 4.76353 3.44489
202 2 0.14245 -0.0303039 3.03012 2.7357
203 2 0.165512 1.75776 3.75515 2.73616
317 1 -0.673657 -1.32124 5.04293 0.635689
209 2 0.164032 -2.10421 5.64004 5.86899
288 1 -0.658278 -2.36494 6.37141 3.93136
291 2 0.168786 -2.07547 5.28157 3.9655
310 1 -0.677579 1.50016 0.469066 7.13815
312 2 0.207118 1.51981 0.163213 6.04923
318 2 0.147526 -1.2689 5.53644 1.66097
345 2 0.160703 1.73923 5.92268 1.9563
319 2 0.225562 -2.20303 4.33173 0.54487
241 2 0.276256 1.89053 5.59112 6.28268
208 2 0.254574 -2.68379 4.55041 7.42357
207 2 0.170864 -1.4163 6.168 7.59244
313 2 0.228744 1.80951 1.55036 7.31293
204 2 0.168399 0.66396 0.143528 4.26713
311 2 0.24648 0.587674 0.164292 7.74365
332 1 -0.661181 3.81107 0.16713 0.25849
240 2 0.137852 2.03985 6.45891 4.5025
126 3 -0.766441 5.02075 4.99985 6.67547
119 3 -0.844301 7.2609 0.378054 6.64675
25 4 1.56524 6.92299 1.84956 6.04141
341 2 0.180201 3.10033 2.92267 0.784262
246 2 0.175775 4.73906 4.56666 3.38073
31 4 0.976571 4.32312 5.92339 5.59387
118 3 -0.740289 5.33179 1.80103 5.06527
29 4 1.58055 5.70097 3.95264 7.88545
361 2 0.126476 2.67164 0.402759 0.398987
333 2 0.222034 4.42087 0.285911 1.19533
344 2 0.163151 2.80699 4.56871 0.954643
218 2 0.158707 3.1882 3.7195 2.6903
219 2 0.154878 3.62347 1.92417 2.04268
343 2 0.156593 3.69234 5.63305 2.41613
217 2 0.147129 3.21958 0.190411 2.54121
220 2 0.193778 4.95425 3.2932 2.27792
239 2 0.19314 2.71357 4.63436 4.80208
21 4 1.14356 3.92879 1.7695 4.28955
342 1 -0.655536 2.81176 5.6208 1.61133
20 4 1.55056 7.65653 0.203137 1.96751
70 1 -0.679815 3.77006 0.0368987 3.48698
71 1 -0.678484 3.93984 2.87386 2.64722
78 1 -0.650759 2.49046 5.63625 5.31116
114 3 -0.766698 2.54444 2.22389 5.07362
115 3 -0.831891 6.51251 1.17295 1.38863
358 2 0.160119 -0.496825 2.35676 0.322306
359 2 0.176338 -0.367838 4.59303 0.268184
6 4 1.53869 1.32443 1.73938 10.8681
10 4 1.53516 0.235368 3.75116 13.1415
30 4 1.14548 1.70426 6.13419 8.95628
76 1 -0.698816 1.26504 5.31657 10.5206
95 3 -0.851695 -0.0192902 1.58083 10.0449
96 3 -0.81203 1.58211 0.307758 11.6782
99 3 -0.824043 -0.433384 2.76416 14.2711
100 3 -0.809026 0.8671 2.87809 11.9227
102 3 -0.838682 -2.40497 5.68017 10.2994
103 3 -0.793574 -0.770063 4.8988 12.4878
127 3 -0.778123 1.70041 4.4361 13.8063
233 2 0.250648 2.00827 4.4676 10.4827
234 2 0.208148 0.176295 4.99214 10.2117
235 2 0.206651 1.2835 5.87636 11.4851
314 1 -0.671258 0.0980523 0.963102 16.4108
315 2 0.169491 1.05278 0.897486 15.6968
32 4 1.49384 1.51586 5.95617 14.5669
337 2 0.140582 1.93104 -0.265829 15.1969
335 2 0.202145 1.88545 1.23649 14.0614
7 4 1.22092 -1.04462 5.90787 16.3961
128 3 -0.801402 2.73548 5.86223 15.9382
129 3 -0.838687 0.106376 6.02441 15.3681
101 3 -0.817929 -2.61125 5.9656 16.0367
338 1 -0.658512 3.27334 2.29306 16.6391
12 4 1.40193 -1.75949 6.11501 11.649
116 3 -0.784538 3.86746 0.451964 8.81784
339 2 0.167066 2.82781 1.25107 16.3856
297 1 -0.632835 5.54773 0.92658 14.6123
249 2 0.235941 4.76021 4.32523 10.5344
296 4 0.929611 4.87302 2.58385 15.4822
298 1 -0.670697 4.85705 4.27885 14.4739
299 2 0.238458 5.47477 -0.148378 14.4473
81 1 -0.681912 4.4239 4.99445 11.3676
123 3 -0.827961 4.54153 2.98804 8.52421
250 2 0.216182 3.39505 4.67059 11.7855
340 2 0.184071 2.53898 3.12026 16.5082
360 2 0.217045 4.8764 0.0624207 16.2377
122 3 -0.821768 7.15962 0.286679 12.5789
302 2 0.181203 4.57697 4.14092 13.3747
300 2 0.235285 6.63869 1.27086 14.7258
304 2 0.247389 4.04548 4.85852 15.0784
334 1 -0.671358 2.45761 0.323447 14.3715
120 3 -0.790383 6.07063 2.5266 16.4652
117 3 -0.846721 2.85652 2.44382 10.2754
336 2 0.177725 3.57953 0.560154 14.4849
24 4 1.60158 4.17819 1.90528 9.64935
27 4 1.36499 6.93257 1.5156 11.6058
301 2 0.127333 5.04987 1.55723 13.5938
121 3 -0.809791 5.38557 1.76784 10.6735
97 3 -0.805157 -1.11456 3.16127 8.46637
15 4 1.38508 -2.81722 8.89116 7.61565
17 4 1.56643 -4.26937 10.8994 5.78121
106 3 -0.829266 -5.72292 10.6723 4.97818
107 3 -0.823565 -4.06105 9.54399 6.78295
108 3 -0.822478 -4.50847 12.1942 6.72115
133 3 -0.865855 -2.99243 10.9442 4.77728
214 2 0.205766 -2.21382 8.71444 5.32852
255 2 0.167291 -2.56444 9.10418 2.53557
289 1 -0.653241 -4.05399 7.85889 1.74774
294 2 0.145465 -2.87361 7.96636 1.27287
216 2 0.260459 -3.40701 13.0008 3.43584
326 2 0.169777 -6.19076 12.4312 3.09538
328 1 -0.679332 -4.50869 10.7289 1.49177
329 2 0.186595 -3.50159 10.6766 2.08929
330 2 0.160228 -4.64243 9.85539 0.715735
331 2 0.173562 -5.47944 11.0842 2.08551
362 2 0.177152 -5.10889 13.0464 4.45328
295 2 0.207393 -4.42594 8.81639 2.32983
1 4 1.41071 -5.36299 12.8265 7.95681
324 1 -0.676341 -7.19773 11.9311 2.93593
292 2 0.174322 -2.31384 6.98504 4.91933
322 2 0.200402 -1.75383 8.94942 0.488378
34 4 1.38412 2.058 9.47859 2.11287
131 3 -0.833918 2.52175 8.40835 1.00726
36 4 1.58179 0.575885 11.3109 0.163322
83 1 -0.658144 -1.68904 9.82392 2.73984
323 2 0.249386 0.015329 8.412 0.0286825
259 2 0.16598 0.637982 8.76696 6.2414
258 2 0.156955 2.07165 8.98275 4.9992
69 1 -0.707173 -1.567 8.45423 6.19532
254 2 0.18198 -1.61464 10.5611 1.85141
354 3 -0.825291 -8.03567e-05 12.7026 0.769707
321 2 0.125682 -0.751408 7.83147 1.66202
28 4 1.14888 2.92562 7.06203 0.296437
134 3 -0.850137 1.05236 10.5302 1.49972
320 1 -0.648604 -0.982096 8.15489 0.558725
35 4 1.40802 -1.6064 11.2651 4.05043
82 1 -0.681987 1.0787 8.20174 3.17561
84 1 -0.685515 1.54447 9.36887 5.99361
132 3 -0.80734 -1.45029 12.6558 3.20993
23 4 1.62611 -0.110012 13.0693 7.80971
138 3 -0.849666 -0.22635 11.0459 4.86637
213 2 0.205065 -0.710789 9.18554 6.25062
215 2 0.160869 -1.21411 7.41329 6.27501
230 2 0.176169 1.06694 8.46185 7.81857
251 2 0.139947 1.9257 7.48667 3.63525
252 2 0.144258 0.302187 7.65006 2.54602
253 2 0.176041 0.590878 8.78631 3.98502
256 2 0.180759 -0.651406 9.15625 2.86988
135 3 -0.827015 -2.02091 10.011 8.44368
38 4 1.43823 1.14381 11.2285 5.64887
290 2 0.122219 -1.98078 6.9871 2.96097
4 4 1.19777 -6.05072 12.6093 12.6454
18 4 1.57315 -2.97931 8.40406 13.4004
19 4 1.57763 -4.21082 10.6169 11.3622
68 1 -0.668997 -4.93253 10.8621 15.4356
105 3 -0.850922 -6.22402 11.7096 8.8013
109 3 -0.804463 -4.00413 7.92933 14.5786
110 3 -0.851479 -2.58076 7.01831 12.6502
111 3 -0.853989 -5.47793 10.2265 10.499
112 3 -0.847667 -3.72124 9.3962 12.3398
113 3 -0.80618 -4.60518 11.9098 12.3518
137 3 -0.797569 -2.78406 11.036 10.4873
145 3 -0.785525 -2.21915 10.8821 16.0895
210 2 0.175362 -5.31308 11.9699 15.1022
211 2 0.162502 -5.69955 10.2596 16.0944
212 2 0.240756 -4.45337 10.2856 14.6307
279 2 0.178954 2.61278 8.89109 8.57442
14 4 0.960415 -3.65819 11.1129 16.7775
104 3 -0.83275 -3.19927 7.57639 8.5405
142 3 -0.850819 -1.63795 9.16772 14.0349
232 2 0.174017 -0.29838 7.8799 8.92493
143 3 -0.839362 0.0918296 9.84612 16.0268
144 3 -0.866206 -0.586414 11.623 14.2446
26 4 1.65317 0.0454284 12.7507 13.2931
146 3 -0.895464 -0.212249 10.253 10.3882
147 3 -0.864675 1.58638 9.32981 11.9594
236 2 0.272611 -0.648322 8.38217 12.0254
238 2 0.200848 -0.811424 7.91061 10.1964
237 2 0.193883 0.494216 7.01886 11.4322
75 1 -0.665024 0.851928 7.95708 8.81869
37 4 1.64568 -1.43716 10.9705 9.62566
39 4 1.58101 2.54661 8.32157 12.8182
40 4 1.61074 -1.03796 10.3278 15.0399
41 4 1.6293 1.14131 10.6008 11.1395
130 3 -0.808723 3.28979 6.56645 9.32715
77 1 -0.65863 -0.540055 7.55859 11.2751
231 2 0.2088 1.35898 8.47409 9.73058
136 3 -0.846041 -1.04386 12.3845 8.87931
140 3 -0.87599 1.70507 7.0754 13.4923
22 4 1.27317 6.76726 2.6068 0.450418
42 4 1.60091 9.20685 2.03922 3.88233
72 1 -0.694624 6.73627 4.07463 1.66832
86 1 -0.703479 8.30073 5.76066 4.55681
87 1 -0.68569 9.44841 4.49475 7.08167
124 3 -0.880892 6.79722 3.02429 7.17083
149 3 -0.827184 8.91401 0.871413 2.8126
150 3 -0.860782 7.97306 2.24386 4.93147
164 3 -0.880024 9.54159 3.45408 3.0096
168 3 -0.830021 9.51181 4.95729 0.86054
221 2 0.252679 7.7567 4.55184 1.46439
222 2 0.198668 6.72543 3.63646 2.69732
223 2 0.187595 5.8318 4.6322 1.32334
263 2 0.200504 7.66005 5.44905 5.43737
264 2 0.248494 8.84706 4.93333 3.98017
266 2 0.270764 8.48468 3.90389 7.07938
268 2 0.206241 9.20247 5.559 7.41167
267 2 0.169465 10.0509 4.42506 6.13336
80 1 -0.658983 5.17832 5.59439 3.78517
247 2 0.186372 6.36834 5.59444 4.09382
51 4 1.31403 8.99375 6.38896 0.116703
44 4 1.53504 13.5452 -0.129141 7.3419
245 2 0.143493 4.88773 6.46386 3.21086
152 3 -0.858367 14.402 0.906268 8.21064
165 3 -0.849913 11.0808 2.92206 0.925383
355 2 0.231787 15.5939 0.690893 5.56524
170 3 -0.854881 11.6653 2.78844 7.17168
166 3 -0.838065 11.6639 5.05996 2.51134
260 2 0.169094 12.9083 3.09736 4.09625
261 2 0.19466 14.2864 2.01235 4.93175
306 1 -0.671317 13.9615 1.42189 2.1367
269 2 0.185334 11.1399 6.21446 6.52607
205 2 0.153744 15.292 1.17679 3.70792
309 2 0.173501 13.7103 1.88718 3.19288
307 3 -0.760056 12.0966 0.484439 0.516607
308 2 0.200639 13.6208 2.11516 1.31134
287 4 1.19533 11.9637 6.43401 3.1435
155 3 -0.814226 10.5014 1.91477 4.81656
46 4 1.40221 11.8874 1.88153 5.84482
50 4 1.58549 10.4277 4.07628 1.87409
52 4 1.3816 10.8238 3.77304 8.21724
85 1 -0.67725 13.3774 2.73276 5.06155
363 2 0.121415 15.0639 0.95366 1.93506
156 3 -0.823526 12.4836 0.490413 6.18339
262 2 0.195589 13.6984 3.6722 5.75689
228 2 0.155373 5.02337 6.09864 0.213334
45 4 1.62582 9.58834 1.57823 9.7688
48 4 1.63422 9.72914 1.59331 15.0027
352 2 0.168732 7.21677 5.70771 16.1289
73 1 -0.698195 7.12495 3.17072 12.5186
154 3 -0.820204 8.28454 1.50026 10.6355
158 3 -0.865914 9.06648 0.510666 14.0849
160 3 -0.82212 8.66028 1.94827 16.2525
169 3 -0.825226 9.9296 3.15193 9.46429
172 3 -0.846951 6.36554 4.98132 8.92916
175 3 -0.847893 10.0113 3.0566 14.1313
180 3 -0.838506 10.0065 4.97883 12.1945
224 2 0.216486 7.42103 3.86628 11.6652
225 2 0.231734 8.07208 2.98021 13.1097
350 1 -0.681146 8.28832 5.24189 15.7402
351 2 0.182882 8.6226 5.5727 14.7531
353 2 0.234776 8.28488 4.10442 15.8882
56 4 1.43177 9.7545 6.26614 11.2081
303 2 0.159991 5.91324 4.7914 14.6329
248 2 0.162655 5.2389 4.998 12.1855
153 3 -0.85517 9.22891 0.635879 8.49553
171 3 -0.832495 11.6037 5.10705 8.58271
55 4 1.6024 10.8928 4.08436 13.2366
177 3 -0.843256 11.6118 5.10045 14.2442
316 2 0.169979 15.8107 -0.12743 16.78
157 3 -0.836783 14.6105 0.28481 14.3059
43 4 1.60568 12.2053 1.35418 16.67
151 3 -0.826716 13.5938 2.084 15.997
159 3 -0.862529 11.1141 1.15737 15.6037
163 3 -0.819337 12.5112 0.451083 12.6202
161 3 -0.85433 13.5003 2.00372 10.5431
49 4 1.63132 12.2845 1.71004 11.5687
176 3 -0.794283 12.014 3.15036 12.3216
162 3 -0.793274 10.9574 1.223 10.7156
2 4 1.6641 14.6797 1.90159 9.40145
5 4 1.38388 14.9154 1.60663 15.1656
226 2 0.169462 6.33099 3.53822 13.2285
179 3 -0.829987 8.49126 6.24906 10.2857
58 4 1.6019 3.8067 11.2875 4.01105
79 1 -0.661936 4.36824 7.77298 5.958
90 1 -0.685797 6.03604 9.24826 1.89047
229 2 0.171606 5.28367 7.9113 0.523828
183 3 -0.816938 3.31606 10.1033 2.99949
184 3 -0.796465 4.34091 12.373 2.88941
185 3 -0.800302 2.43779 11.7927 4.79962
192 3 -0.84433 4.98775 10.7984 4.82596
242 2 0.163062 4.90487 7.95532 4.96264
243 2 0.253685 5.01711 7.92933 6.77629
274 2 0.168874 5.75555 8.19555 2.10594
275 2 0.16708 5.4879 9.56881 0.846383
276 2 0.222107 5.86508 9.96061 2.75628
278 2 0.189848 3.90015 9.90501 7.37228
244 2 0.176842 3.31134 8.37578 6.00227
283 2 0.190612 4.25046 10.8588 0.214994
187 3 -0.772056 8.68883 8.21674 5.88526
139 3 -0.811153 0.931618 11.8372 7.04954
305 4 1.17994 4.83167 13.2482 1.64942
191 3 -0.881154 7.74202 11.0108 5.01809
327 2 0.174911 8.09964 12.6688 3.12521
364 2 0.311672 10.9723 8.13675 6.86253
325 2 0.167132 8.82016 11.3468 1.96079
277 2 0.153433 7.7903 10.8688 0.493888
193 3 -0.830424 6.53053 9.60025 7.08161
91 1 -0.674989 8.56562 9.99047 0.462051
348 2 0.168185 6.17582 11.124 1.16933
349 2 0.135251 7.30548 12.6282 1.00051
346 1 -0.678499 6.30212 12.2059 0.678352
194 3 -0.835795 6.40299 12.3044 6.73814
365 2 0.160022 9.71711 10.19 0.751401
270 2 0.224318 9.87491 6.81309 7.83301
293 2 0.256328 11.3478 7.6129 0.897046
13 4 1.41596 8.98752 10.4862 4.25511
54 4 1.13627 9.53719 7.06083 5.20777
57 4 1.14108 7.93077 8.86761 1.85539
59 4 1.47118 7.876 8.6707 7.43753
61 4 1.49839 6.46732 10.8987 5.9036
88 1 -0.623307 10.4534 7.05551 6.82496
174 3 -0.789414 11.0459 7.07706 4.19307
181 3 -0.767629 8.12034 7.24689 1.34976
182 3 -0.823286 8.71417 9.26747 3.09036
186 3 -0.85827 7.52052 7.13138 7.96654
188 3 -0.859395 9.08395 9.33982 8.40253
92 1 -0.665202 3.71372 9.42179 8.40896
257 2 0.150543 2.35361 9.46656 6.97173
265 2 0.18368 7.80215 6.57577 3.8842
33 4 1.31874 4.27344 6.715 10.6073
60 4 1.44858 3.7513 11.0608 9.39076
62 4 1.34604 3.77048 10.4573 15.0579
93 1 -0.661923 5.09296 9.61939 16.1093
173 3 -0.812865 5.93684 7.18158 10.2044
280 2 0.250953 4.58248 8.87885 8.86369
190 3 -0.847791 2.35955 11.0702 10.1641
195 3 -0.806643 3.30031 9.27233 13.8808
196 3 -0.79639 4.54397 11.74 14.2946
197 3 -0.790888 2.52292 10.8247 16.1228
199 3 -0.807385 5.14337 10.7371 10.2513
281 2 0.143581 6.06022 10.0004 15.5345
282 2 0.189027 5.14421 8.45734 16.284
227 2 0.167306 5.73949 6.62578 15.7071
285 2 0.261797 5.49375 8.77595 11.884
74 1 -0.689906 5.42932 6.4901 16.7344
148 3 -0.802994 0.880138 11.9613 12.1472
200 3 -0.859963 6.13022 12.1387 12.1617
94 1 -0.647221 6.47734 9.34289 12.1345
141 3 -0.849078 3.59584 7.60421 11.8083
53 4 1.54826 7.05769 6.41704 9.31728
273 2 0.147757 8.31198 7.92693 12.7766
284 2 0.188392 7.35552 8.62821 12.0251
272 2 0.194122 9.80104 7.14387 13.4963
286 2 0.158583 6.39347 9.84373 13.1561
63 4 1.42274 6.47725 10.9775 11.1339
366 2 0.165341 9.11094 8.79909 16.3314
356 2 0.190695 8.51985 10.8403 12.7346
357 2 0.229282 7.96028 12.2893 13.772
206 2 0.162121 9.19287 10.9194 14.503
16 4 1.62076 9.38254 10.4273 9.46628
11 4 1.50588 12.0449 6.28691 15.2787
347 2 0.172447 6.80768 11.4973 16.4462
66 1 -0.697044 8.81494 11.5412 13.5544
89 1 -0.667537 9.4011 7.59459 12.5508
167 3 -0.865073 10.8104 6.49443 16.3715
178 3 -0.830226 11.1413 6.83239 10.4802
198 3 -0.82598 7.94717 10.7827 10.4725
271 2 0.232521 10.1275 8.43451 12.2761
47 4 1.60114 5.29576 12.8712 13.3249
189 3 -0.776021 4.28514 12.2014 8.46844
9 4 1.52928 12.3228 6.35571 9.53701
ITEM: TIMESTEP
200
ITEM: NUMBER OF ATOMS
366
ITEM: BOX BOUNDS xy xz yz pp pp pp
-8.2538999999999998e+00 1.6741099999999999e+01 -8.2538999999999998e+00
-7.1359960000000022e-01 1.3422400000000000e+01 6.1619999999999997e-01
0.0000000000000000e+00 1.6908999999999999e+01 -7.1359960000000022e-01
ITEM: ATOMS id type q x y z
3 4 1.07722 0.796814 2.45668 4.92981
8 4 1.26073 -0.428757 4.18456 7.48184
64 1 -0.654896 0.690328 3.38399 3.32652
65 1 -0.675841 -0.321293 0.852025 4.82875
67 1 -0.675374 -1.91542 5.20144 6.89179
98 3 -0.77948 0.0209911 3.36494 6.17968
125 3 -0.802645 1.07739 5.29045 7.78334
201 2 0.165506 -0.00501334 4.31918 3.46901
202 2 0.147067 0.172446 2.52927 2.71801
203 2 0.169342 1.72054 3.6436 2.89494