ITEM: TIMESTEP
0
ITEM: NUMBER OF ATOMS
366
ITEM: BOX BOUNDS xy xz yz pp pp pp
-8.2538999999999998e+00 1.6741099999999999e+01 -8.2538999999999998e+00
-6.4910000000000001e-01 1.3422400000000000e+01 6.1619999999999997e-01
0.0000000000000000e+00 1.6908999999999999e+01 -6.4910000000000001e-01
ITEM: ATOMS id type x y z
3 4 0.727035 2.46681 4.71405
8 4 -0.392596 4.11215 7.37765
20 4 7.64848 0.0570593 1.75609
21 4 3.85397 1.76323 4.26858
25 4 6.57914 1.69481 6.09231
29 4 5.32787 3.74867 7.89618
31 4 4.17067 5.75355 5.62954
64 1 0.650239 3.56917 3.21945
97 3 -1.20934 3.0131 8.41952
67 1 -1.71031 5.275 6.79784
70 1 3.81499 0.243524 3.15258
71 1 3.87595 3.12822 2.89914
78 1 2.31989 5.64622 5.15749
98 3 0.173903 3.41779 5.98979
114 3 2.34957 1.81439 4.81215
115 3 6.9733 1.26081 0.944684
118 3 5.20523 1.73688 5.15566
119 3 6.90045 0.171009 6.62745
343 2 4.49695 4.79467 0.397108
125 3 0.894509 5.07308 8.14672
126 3 4.6546 4.65226 6.59852
201 2 -0.290687 2.93433 2.74019
202 2 1.44879 3.79603 2.40462
203 2 0.239783 4.50718 3.66578
317 1 -1.55496 5.10356 0.253166
207 2 -1.59404 6.01968 7.72278
342 1 3.94228 5.69357 0.766964
319 2 -2.54511 4.57349 0.247705
209 2 -1.53512 5.82903 5.80166
344 2 2.8195 5.42321 1.05141
217 2 3.12973 0.499971 2.32498
218 2 2.7944 3.38689 2.56415
219 2 4.47312 2.62916 2.05301
220 2 4.44487 4.11083 3.35257
239 2 2.55655 5.34378 4.04364
241 2 1.869 4.75743 5.75574
312 2 0.699054 0.291425 6.65646
288 1 -2.52518 6.40537 3.74318
291 2 -2.18204 5.42239 3.19137
292 2 -2.50006 6.11098 4.86548
361 2 3.23797 0.206699 0.918097
310 1 1.33555 0.680119 7.56838
341 2 3.19488 2.59645 1.06454
313 2 1.90317 1.64355 7.32766
318 2 -1.24641 5.44649 1.27767
208 2 -2.65678 4.64285 6.84998
6 4 0.960092 1.62051 11.1447
123 3 4.11368 3.03231 8.87041
360 2 5.16755 -0.22772 16.3999
10 4 -0.117419 3.75307 13.2086
12 4 -1.8268 6.24026 11.5759
24 4 3.866 1.85325 9.85269
340 2 2.43294 2.44916 16.6126
27 4 6.72437 1.62785 11.4028
30 4 1.8255 5.9438 9.06231
76 1 1.37803 5.07702 10.6842
250 2 3.76503 5.56735 12.8089
95 3 -0.251999 1.48012 10.0819
96 3 1.13851 0.169817 11.7749
81 1 4.46879 5.37089 11.9091
99 3 -0.979586 3.03662 14.3572
100 3 0.424101 2.62037 12.2253
120 3 5.89603 2.7272 16.5684
102 3 -2.5231 5.77339 10.196
103 3 -1.09996 4.89383 12.4087
116 3 3.76771 0.445955 9.02261
117 3 2.36523 1.96562 10.5617
121 3 5.17773 1.90765 10.7922
122 3 6.83019 0.173169 12.269
226 2 5.88857 3.31133 13.2167
127 3 1.2899 4.4384 13.909
337 2 3.6064 0.273868 14.258
233 2 1.92902 4.14712 10.8858
234 2 0.253143 4.82487 10.6147
235 2 1.56342 5.87109 11.5557
249 2 4.01442 4.56526 11.3028
359 2 -0.189818 3.84375 16.6986
296 4 4.79025 2.25355 15.6226
297 1 5.58864 0.713556 14.7319
298 1 4.18816 3.54054 14.28
299 2 6.61918 0.553653 15.1274
300 2 5.65423 1.32882 13.7538
301 2 5.13365 -0.288726 14.4775
302 2 3.96361 3.30656 13.1829
303 2 4.66843 4.56686 14.4614
304 2 3.15643 3.62489 14.9279
32 4 1.39846 6.03643 14.4076
314 1 -0.00448583 1.07777 16.0478
315 2 0.968447 0.877104 15.3615
334 1 2.49232 0.297211 14.2018
335 2 1.97029 -0.341118 15.0875
336 2 2.08453 1.37422 14.0703
130 3 3.33535 6.27762 9.18618
339 2 3.13035 0.567212 16.6705
358 2 0.170065 1.94554 16.7919
338 1 3.33682 1.70983 16.8221
7 4 -1.22761 6.08644 16.1342
311 2 0.693851 0.808382 8.51295
23 4 -0.262374 13.0002 7.74108
15 4 -3.02998 8.91658 7.67143
17 4 -4.38707 11.0642 6.00599
362 2 -5.02891 13.0167 3.99873
35 4 -1.58357 11.4322 3.90002
216 2 -3.34559 13.2018 2.89031
69 1 -1.9924 8.41659 6.14538
82 1 1.73907 8.31423 2.88826
83 1 -1.9125 9.80327 2.90192
84 1 1.55157 9.50514 5.86877
106 3 -5.76548 10.8504 4.89239
107 3 -4.16108 9.88838 7.09338
108 3 -4.81591 12.4819 6.65878
132 3 -1.66495 12.5852 2.70542
133 3 -2.99918 11.2708 4.96776
134 3 1.26465 9.98747 0.670742
138 3 -0.130052 11.2271 4.53042
213 2 -1.60165 9.3664 5.68055
214 2 -2.34486 7.74101 5.29868
215 2 -1.14899 7.90137 6.75185
230 2 1.21517 8.05362 7.71041
332 1 -3.98722 13.3044 0.481155
321 2 -0.311362 8.56498 0.234721
251 2 1.67267 8.7713 3.99537
252 2 2.38832 7.34955 2.87615
253 2 0.671983 8.19768 2.36992
254 2 -1.95328 10.182 1.78398
255 2 -2.81345 9.29627 3.3518
256 2 -0.96159 9.29719 3.18781
289 1 -4.29009 7.49956 1.47397
258 2 0.743926 8.9792 5.22243
259 2 1.13531 9.63117 6.96117
331 2 -5.53615 11.1585 2.07664
290 2 -1.90297 7.28718 3.44182
294 2 -3.30416 8.04289 1.18783
320 1 -1.36799 8.19296 0.484179
333 2 -3.10735 13.3697 1.24147
322 2 -1.53609 7.88661 1.53563
1 4 -5.43381 12.9803 8.11559
324 1 -7.19875 12.0779 2.85295
354 3 0.144493 12.4838 0.623014
326 2 -6.20217 12.6534 2.80496
240 2 1.76467 6.60408 5.34349
328 1 -4.73121 10.5219 1.49119
329 2 -3.71661 10.2784 2.11369
330 2 -5.19283 9.56547 1.00683
244 2 3.38981 7.72605 7.06642
139 3 0.743824 11.9712 6.81103
323 2 -2.04858 9.01255 0.143843
104 3 -3.61186 7.47494 8.43787
4 4 -6.54315 12.5689 12.8629
14 4 -3.53214 10.9017 16.8345
238 2 -0.736589 8.06927 10.1012
18 4 -3.12514 8.54714 13.2301
19 4 -4.3516 10.5896 11.1848
28 4 4.00581 6.31193 16.3824
135 3 -1.90867 9.81955 8.55871
36 4 1.50994 10.6218 16.5737
37 4 -1.63935 10.9887 9.72552
39 4 2.52933 8.36058 12.67
40 4 -1.0743 10.338 14.994
41 4 0.9438 10.7155 11.456
68 1 -4.8078 10.6972 15.4471
75 1 0.957105 7.70087 8.77357
77 1 -0.463845 7.5493 11.104
232 2 -0.158416 7.6748 8.83562
105 3 -6.37708 11.8615 8.80873
109 3 -4.43704 7.95063 14.3256
110 3 -2.61087 7.14457 12.5705
111 3 -5.57243 9.83775 10.3654
112 3 -3.67332 9.58719 12.2436
113 3 -5.22551 11.6912 12.2811
236 2 -0.624285 8.23241 11.9833
128 3 2.53253 6.13326 15.6672
237 2 0.504696 6.99432 11.0931
231 2 1.3272 8.37997 9.54692
136 3 -1.05162 12.2144 8.86992
137 3 -3.13513 11.2393 10.3713
140 3 1.82907 7.06755 13.1761
142 3 -1.75709 9.24875 13.9493
143 3 0.406812 10.0707 15.4808
144 3 -0.99771 11.7471 14.2682
145 3 -2.12718 10.3662 16.3373
146 3 -0.493591 10.4425 10.776
147 3 1.38339 9.35497 12.1433
26 4 -0.210195 12.783 13.3071
210 2 -5.68483 10.1725 16.0311
211 2 -4.5497 10.388 14.3965
212 2 -4.91685 11.8811 15.5025
101 3 -2.77849 6.19255 15.8518
129 3 -0.0415735 6.30518 15.1458
148 3 0.826541 11.9466 12.4683
279 2 2.56436 8.85545 8.53287
22 4 6.9558 2.78013 0.460241
42 4 9.07097 1.92028 3.86623
269 2 10.6525 5.56482 5.90155
46 4 11.5195 1.9624 5.74472
50 4 10.236 4.09691 1.98928
51 4 8.91502 6.39032 0.163273
52 4 10.3614 3.90293 7.96307
72 1 6.83158 3.97236 1.85743
85 1 12.8492 2.91536 4.754
86 1 8.44347 6.23477 4.11335
87 1 8.8599 4.57676 6.99034
153 3 9.02057 0.70467 8.36326
149 3 8.79555 0.773134 2.71436
150 3 7.80242 2.21722 4.97577
245 2 4.84681 5.83163 2.91005
155 3 10.3457 1.58684 4.69746
156 3 12.2966 0.74821 6.38969
164 3 9.28882 3.26372 3.08146
165 3 10.9781 3.08088 0.906072
166 3 11.3021 4.9586 2.92304
168 3 9.46059 5.14673 1.09264
170 3 10.9587 2.90705 6.98319
221 2 7.76472 4.61373 1.95762
222 2 6.72407 3.37905 2.81558
223 2 5.87835 4.60883 1.75092
246 2 6.185 5.0586 4.12147
260 2 13.2738 2.44949 3.78261
261 2 13.655 3.0303 5.50524
262 2 12.2528 3.91985 4.52364
205 2 15.5595 0.377438 3.75289
264 2 8.80918 5.2449 3.97507
363 2 14.6785 1.89313 1.02146
266 2 7.84257 3.88679 7.19092
267 2 9.008 4.61405 5.87732
268 2 8.74707 5.59462 7.45693
293 2 11.7832 6.4976 0.864697
80 1 5.36491 5.80669 3.9909
306 1 14.0062 1.74384 1.97915
307 3 11.927 0.476376 0.702145
308 2 13.2456 2.49804 2.09657
309 2 14.6451 1.58856 2.94892
355 2 14.4732 1.75428 4.80835
305 4 13.0407 0.113709 1.68601
152 3 14.0397 0.53748 8.38921
263 2 7.49258 6.21306 4.74536
287 4 11.8026 6.56259 3.1094
204 2 15.6395 0.403542 5.66175
171 3 11.444 5.12689 8.40895
345 2 4.57213 6.25067 1.58359
124 3 6.52892 2.79261 7.35156
65 1 15.5017 1.05832 4.71348
44 4 12.9842 -0.284474 7.45602
2 4 14.4482 1.76766 9.36172
5 4 14.5274 1.74539 15.0505
56 4 9.52772 6.19191 11.1768
45 4 9.35364 1.58688 9.62429
352 2 7.45447 4.8283 16.3585
48 4 9.62075 1.70836 15.044
49 4 11.9607 1.78359 11.2434
55 4 10.8036 4.07997 13.1321
229 2 5.88367 5.63967 15.2996
73 1 7.01072 3.11659 12.5667
151 3 13.3256 1.99285 16.0518
353 2 8.7592 4.46479 15.0638
154 3 7.96702 1.71896 10.459
157 3 14.3751 0.444278 14.1862
158 3 8.79238 0.58128 14.2402
159 3 10.8773 0.90012 15.5949
160 3 8.68503 2.42555 16.2593
161 3 13.0421 2.13916 10.1505
162 3 10.6709 1.08762 10.531
163 3 12.5089 0.56158 12.2954
169 3 9.63999 3.1727 9.16797
179 3 8.31743 6.08524 10.0861
172 3 6.1224 4.877 8.70683
175 3 10.0877 2.97593 14.1147
176 3 11.7342 3.09446 12.1686
177 3 11.529 5.20694 14.0437
350 1 8.28619 5.23909 15.7627
180 3 9.66356 4.84125 12.1942
224 2 7.15923 4.015 11.8577
225 2 7.82101 2.90142 13.2004
248 2 5.57359 5.31497 12.1507
43 4 12.0003 1.32881 16.734
316 2 15.714 0.0230032 16.5955
9 4 12.1336 6.18603 9.40045
47 4 13.4529 -0.464348 13.114
228 2 4.9091 6.17386 13.7551
13 4 8.87827 10.8113 4.28659
364 2 11.8698 7.02314 6.40688
54 4 9.72574 7.40381 4.95658
57 4 7.64992 9.03197 1.83081
58 4 3.82498 11.527 3.74652
59 4 7.81164 8.72434 7.30037
61 4 6.26128 10.834 5.86784
79 1 4.38135 7.57445 6.48113
348 2 6.02691 11.3789 1.10116
88 1 10.7513 6.62713 6.34125
90 1 5.83088 9.51785 1.89069
349 2 7.11016 12.9192 0.844252
277 2 7.62875 11.0978 0.392126
346 1 6.12979 12.4678 0.621763
91 1 8.36275 10.1641 0.339033
174 3 10.9495 7.59702 4.0237
181 3 7.95028 7.5163 1.40119
182 3 8.29472 9.56959 3.26585
183 3 3.38167 10.5215 2.43485
184 3 4.47552 12.8964 3.12024
185 3 2.59506 11.7615 4.71342
186 3 7.33203 7.38313 7.87304
187 3 8.82431 8.30844 6.01632
257 2 2.57519 9.10378 5.75045
191 3 7.75389 11.4628 5.21471
192 3 5.08266 10.6584 4.56019
193 3 6.46099 9.43633 6.78499
194 3 5.57833 11.9148 6.73382
242 2 4.52265 8.33049 5.77106
243 2 5.25727 7.50974 7.16181
365 2 9.48323 10.2718 0.724301
247 2 5.69252 6.87863 4.31556
295 2 10.9182 8.16485 1.31896
274 2 5.54214 8.30164 1.96837
275 2 5.27624 9.97788 0.997583
276 2 5.62637 9.98431 2.89047
34 4 2.5462 9.30268 1.51564
278 2 3.57665 9.99511 7.2727
265 2 8.23675 6.78341 2.98403
131 3 3.44113 8.36759 0.327479
38 4 1.21976 11.381 5.42823
92 1 3.52636 9.60189 8.34029
327 2 8.03127 12.7626 3.07714
270 2 10.1364 6.77872 7.26344
325 2 8.72302 11.4562 1.89605
11 4 11.8583 6.44309 15.111
33 4 4.36938 6.78029 10.589
280 2 4.45099 9.09717 8.72342
60 4 3.56198 11.1482 9.42623
62 4 3.87507 10.5723 14.6585
63 4 6.32911 10.8045 11.2531
366 2 8.91242 9.00762 16.2134
74 1 5.26623 6.48992 14.8699
89 1 9.22503 7.65456 12.4445
93 1 5.49099 9.86188 15.6246
94 1 6.46112 9.33051 12.5102
141 3 3.55342 7.96169 11.4926
351 2 8.11692 6.22255 15.1971
167 3 10.6667 6.42392 16.2276
173 3 5.99003 7.22286 10.2503
178 3 10.9883 6.58465 10.448
66 1 8.36644 11.4076 14.0167
190 3 2.23108 11.0794 10.2959
195 3 3.34497 9.32645 13.8139
196 3 4.39928 11.7688 13.8028
197 3 2.87977 10.831 15.8886
198 3 7.84143 10.7757 10.5347
199 3 5.13249 10.7752 10.2564
200 3 6.15756 12.1493 12.1031
227 2 5.83375 7.50158 14.922
283 2 5.02929 10.0645 16.6144
271 2 9.02794 8.49593 11.7333
272 2 10.0818 7.82529 13.204
273 2 8.33291 7.26764 13.011
347 2 6.53709 11.8178 16.4011
281 2 6.2755 10.6393 15.3519
282 2 5.77276 8.78933 15.4459
206 2 9.08391 10.9258 14.741
284 2 7.48869 8.74186 12.5093
285 2 5.71342 8.74407 11.9798
286 2 6.06562 9.55751 13.6956
16 4 9.19486 10.5277 9.59994
356 2 7.64935 10.6365 13.5131
357 2 7.76635 12.2659 14.4275
53 4 7.00765 6.41265 9.23792
188 3 8.68193 9.52815 8.47552
189 3 3.61393 12.3912 8.47745
ITEM: TIMESTEP
100
ITEM: NUMBER OF ATOMS
366
ITEM: BOX BOUNDS xy xz yz pp pp pp
-8.2497730499999999e+00 1.6732729450000001e+01 -8.2497730499999999e+00
-6.4910000000000001e-01 1.3422400000000000e+01 6.1589189999999994e-01
0.0000000000000000e+00 1.6908999999999999e+01 -6.4910000000000001e-01
ITEM: ATOMS id type x y z
3 4 0.652735 2.45098 4.73
8 4 -0.42508 4.07707 7.4276
20 4 7.8075 0.202672 1.72794
21 4 3.89233 1.7159 4.22633
25 4 6.5921 1.71865 6.09892
29 4 5.30814 3.84493 7.9869
31 4 4.23953 5.57164 5.50765
64 1 0.567683 3.55302 3.17197
97 3 -1.25687 2.98261 8.22692
67 1 -1.57348 5.49437 7.03898
70 1 3.9537 0.0428962 3.31037
71 1 3.94213 3.03685 2.89456
78 1 2.39787 5.27648 4.90386
98 3 0.182847 3.29738 5.96603
114 3 2.14778 1.9482 4.69326
115 3 6.87679 1.39747 1.15327
118 3 5.09402 1.82194 5.28491
119 3 6.99665 0.278946 6.62033
343 2 4.51666 4.87024 0.223738
125 3 0.815807 4.89914 8.03745
126 3 4.70855 4.59295 6.58638
201 2 -0.401919 2.88558 2.79468
202 2 1.54963 3.4563 2.47438
203 2 0.377234 4.64545 3.40453
317 1 -1.34469 5.18124 0.234509
358 2 -0.557529 2.45189 0.0653368
342 1 3.9581 5.7304 0.774248
319 2 -2.28133 4.73319 0.600816
209 2 -1.46884 5.54205 5.8912
344 2 2.87798 5.46005 1.09503
217 2 3.27865 0.320067 2.45437
218 2 2.89518 3.28066 2.43014
219 2 4.61641 2.48071 2.17408
220 2 4.58743 4.08613 3.2541
239 2 2.36997 4.35462 4.17796
241 2 1.87038 5.0683 5.8505
312 2 0.823399 0.189661 6.53096
288 1 -2.307 6.50127 3.69169
291 2 -1.72466 5.84786 2.99174
292 2 -2.41806 6.07872 4.76063
361 2 3.18864 0.272699 0.724887
310 1 1.44813 0.774775 7.38551
341 2 3.19751 2.3953 0.993469
313 2 2.08101 1.62572 6.94192
318 2 -0.725089 5.50822 1.09046
208 2 -2.63892 5.25039 7.34764
124 3 6.4266 2.79226 7.43485
240 2 1.95136 6.15374 4.45778
311 2 0.827611 1.07706 8.26202
6 4 0.804492 1.57996 11.1606
123 3 4.16535 3.19631 8.85058
360 2 5.13639 -0.128031 16.2499
10 4 -0.125477 3.86193 13.1512
12 4 -1.86888 6.07497 11.6393
24 4 3.75026 1.9593 9.79428
340 2 2.42998 2.39202 16.7068
27 4 6.66821 1.7425 11.5093
30 4 1.73798 5.92031 9.03029
76 1 1.40141 5.14374 10.6975
250 2 3.70585 5.53443 12.7777
95 3 -0.352124 1.38588 10.1677
96 3 1.03591 0.166543 12.077
81 1 4.50441 5.39213 11.9785
99 3 -0.910921 3.05726 14.3144
100 3 0.405565 2.81222 12.1751
120 3 5.83713 2.77423 16.4471
102 3 -2.58246 5.62247 10.1714
103 3 -1.03428 4.90397 12.3417
116 3 3.60878 0.539952 8.94648
117 3 2.21663 2.08178 10.4968
121 3 4.99206 1.83413 10.9081
122 3 7.02568 0.45605 12.4762
226 2 5.87165 3.36222 13.306
127 3 1.32741 4.54788 13.8099
337 2 3.47977 0.4739 14.3594
233 2 2.00984 4.21255 10.8517
234 2 0.252214 4.88722 10.3599
235 2 1.46767 5.78525 11.5928
249 2 4.44691 4.47485 11.3941
359 2 -0.14504 3.82446 16.4946
296 4 4.68525 2.23097 15.5741
297 1 5.44032 0.778332 14.5147
298 1 4.11406 3.57193 14.3296
299 2 6.60504 0.879555 14.655
300 2 5.03962 1.32093 13.6223
301 2 5.07216 -0.311038 14.5728
302 2 3.90394 3.27191 13.2789
303 2 4.64962 4.6103 14.5111
304 2 3.06087 3.52759 15.0661
32 4 1.45778 6.00432 14.4605
314 1 -0.10208 0.961264 16.2181
315 2 0.795031 0.788974 15.5191
334 1 2.29901 0.29506 14.2706
335 2 1.87712 -0.379072 15.1639
336 2 1.75713 1.33125 14.1056
338 1 3.27954 1.70674 16.8537
339 2 2.97268 0.701557 16.6453
128 3 2.67091 5.90052 15.7514
23 4 -0.188478 13.0398 7.66775
15 4 -2.88936 8.84969 7.59867
17 4 -4.3696 11.0315 5.84549
362 2 -4.63249 12.6054 3.89574
35 4 -1.666 11.3625 3.87436
216 2 -3.25394 13.2368 2.94922
69 1 -1.75695 8.34793 6.18516
82 1 1.9637 8.2578 2.91292
83 1 -1.99254 9.83486 2.85051
84 1 1.62282 9.42092 5.87187
106 3 -5.65374 10.7944 4.9169
107 3 -3.98123 9.77073 6.84732
108 3 -4.74792 12.1968 6.89673
132 3 -1.58056 12.6927 2.62019
133 3 -3.04657 11.4133 4.85064
134 3 1.11079 10.1546 0.904717
138 3 -0.256828 11.1557 4.68228
213 2 -1.70743 9.34235 5.59519
214 2 -2.20871 7.54899 5.46456
215 2 -0.710486 8.1116 6.57238
230 2 1.32834 7.84034 7.735
332 1 -4.03492 13.3398 0.355543
321 2 -0.367684 8.61726 0.0784109
251 2 1.83341 8.6804 3.9956
252 2 2.75333 7.40676 2.83496
253 2 0.971785 7.90557 2.38676
254 2 -2.07896 9.95564 1.6376
255 2 -3.03172 9.5603 3.34844
256 2 -1.01013 9.25167 3.15994
289 1 -4.25114 7.41759 1.47161
258 2 0.751922 8.93091 5.34906
259 2 1.45678 9.24034 6.98921
331 2 -5.57428 11.0603 2.01434
290 2 -1.93358 7.59279 3.70857
294 2 -3.20369 7.89857 1.18266
320 1 -1.33073 8.25083 0.499385
323 2 -2.18617 9.08093 0.545649
322 2 -1.20763 7.75552 1.44263
1 4 -5.52869 12.9191 8.0984
324 1 -7.09086 12.1982 2.83396
354 3 0.202416 12.656 0.603438
326 2 -6.14953 12.7741 2.9051
364 2 -4.07978 7.01642 6.14122
328 1 -4.73434 10.502 1.4631
329 2 -3.79379 10.3328 2.06239
330 2 -5.10501 9.50019 1.06769
244 2 3.46125 7.25774 7.23132
279 2 2.5306 8.90104 8.43207
207 2 -1.16425 6.42857 7.58639
333 2 -3.26008 13.3605 1.1094
4 4 -6.52358 12.5176 12.9692
14 4 -3.53895 10.8902 16.7503
238 2 -0.891316 8.03347 10.3467
18 4 -3.08873 8.44723 13.2815
19 4 -4.43059 10.5492 11.3311
28 4 4.03667 6.4513 16.4543
135 3 -1.9577 9.67929 8.66882
36 4 1.375 10.6072 16.6736
37 4 -1.70964 10.9777 9.61464
39 4 2.49771 8.36759 12.6608
40 4 -1.09008 10.3658 14.9487
41 4 0.987202 10.7088 11.2785
68 1 -4.90627 10.8383 15.5223
75 1 0.969052 7.67827 8.90931
77 1 -0.547191 7.42401 11.2286
232 2 -0.204944 7.84082 9.06694
105 3 -6.45419 12.0224 9.03214
109 3 -4.31214 8.0087 14.4166
110 3 -2.67681 7.18187 12.4646
111 3 -5.66208 9.88259 10.3244
112 3 -3.87304 9.56067 12.3903
113 3 -5.23366 11.6188 12.264
236 2 -0.518825 8.03155 12.1758
104 3 -3.51264 7.44191 8.5381
237 2 0.450363 6.85784 11.0187
231 2 1.52819 8.33011 9.59261
136 3 -1.08595 12.0977 8.67322
137 3 -3.16076 11.1341 10.4436
140 3 1.90318 7.07022 13.386
142 3 -1.74689 9.20527 14.0863
143 3 0.385233 9.93113 15.5796
144 3 -1.27908 11.8132 14.1574
145 3 -2.11111 10.4166 16.1789
146 3 -0.523787 10.4503 10.5728
147 3 1.32942 9.28184 11.9395
26 4 -0.303634 12.8127 13.2807
210 2 -5.80198 10.3306 16.0637
211 2 -4.661 10.4051 14.5358
212 2 -4.93579 12.045 15.5831
101 3 -2.79059 6.25048 15.6909
129 3 -0.10075 6.31157 15.0084
148 3 0.710257 11.8179 12.4156
7 4 -1.19127 6.10817 16.1647
130 3 3.17174 6.35614 9.26378
22 4 6.84437 2.81492 0.417814
42 4 9.01271 1.89892 3.89793
269 2 11.2244 5.321 5.87375
46 4 11.5983 1.91159 5.73903
50 4 10.2573 4.12938 1.97539
51 4 8.86284 6.4279 0.049928
52 4 10.4432 3.85292 7.95317
72 1 6.91663 4.0124 1.84806
85 1 12.8841 3.01885 4.89829
86 1 8.65318 6.3241 4.1043
87 1 8.87392 4.46793 6.89095
153 3 8.93613 0.716286 8.38137
149 3 8.90453 0.681763 2.80668
150 3 7.67062 2.13568 4.94951
245 2 4.91859 5.81214 3.00257
155 3 10.3857 1.58502 4.65191
156 3 12.5975 0.798118 6.49826
164 3 9.30171 3.34843 3.04207
165 3 10.9895 3.14565 1.06195
166 3 11.3916 5.14779 2.82369
168 3 9.44789 5.24679 0.980404
170 3 11.1195 3.02178 6.81343
221 2 7.85178 4.67606 1.85842
222 2 6.85039 3.36381 2.75712
223 2 5.95672 4.60933 1.70077
246 2 6.23768 4.92925 4.12572
260 2 13.3107 2.4677 3.84906
261 2 13.7318 3.33631 5.6822
262 2 12.1883 3.91598 4.67015
205 2 15.4798 0.415093 4.14201
264 2 9.33553 5.42808 4.03769
363 2 14.8058 1.84277 1.374
266 2 7.98539 3.83244 7.04472
267 2 9.25288 4.40432 5.78584
268 2 8.87762 5.56858 7.25988
293 2 11.7175 6.43791 0.81155
80 1 5.43913 5.75762 4.02485
306 1 14.0021 1.62726 2.18795
307 3 11.9604 0.55847 0.708867
308 2 13.2083 2.47055 2.17151
309 2 14.5186 1.42415 3.25649
355 2 14.4395 1.6943 5.06767
305 4 13.03 0.0384688 1.71138
345 2 4.5656 6.20948 1.68755
263 2 7.76634 6.29132 4.82907
65 1 15.4028 1.07957 5.01832
204 2 15.7115 0.611299 6.10082
44 4 13.1103 -0.259024 7.54661
88 1 11.1216 6.42867 6.24415
152 3 14.2573 0.381885 8.44492
2 4 14.4606 1.7756 9.28183
5 4 14.6022 1.72484 15.0968
56 4 9.62038 6.16081 11.2487
45 4 9.27576 1.74947 9.82033
352 2 7.47373 4.65706 16.3946
48 4 9.57604 1.76603 15.0291
49 4 11.979 1.82509 11.3629
55 4 10.7476 4.09474 13.0994
229 2 5.93288 5.69451 15.4553
73 1 6.8753 3.26645 12.6247
151 3 13.4798 2.08636 16.1131
353 2 8.69906 4.21673 14.9618
154 3 7.96298 1.91187 10.6925
157 3 14.2516 0.564855 14.1316
158 3 8.65109 0.495974 14.2836
159 3 10.9759 1.23498 15.6046
160 3 8.64965 2.37386 16.2648
161 3 13.1077 2.06815 10.2576
162 3 10.4858 1.20889 10.6727
163 3 12.5648 0.56292 12.2071
169 3 9.82051 3.09989 9.18188
179 3 8.22214 6.20027 10.0898
172 3 6.205 4.96073 8.82398
175 3 9.82849 2.89977 13.9726
176 3 11.753 3.18582 12.1808
177 3 11.3432 5.27125 14.0222
350 1 8.3334 5.0493 15.6682
180 3 9.6376 4.97987 12.3104
224 2 6.96973 4.12522 11.8791
225 2 7.84884 3.15772 13.2212
248 2 5.51219 5.49669 12.4407
43 4 12.0675 1.50022 16.7868
316 2 15.7428 -0.0311288 16.7658
9 4 12.1721 6.14451 9.45348
47 4 13.4492 -0.388889 13.0758
171 3 11.4549 4.93429 8.48434
351 2 7.95953 5.95721 15.1233
53 4 6.92537 6.27225 9.19198
228 2 4.93544 6.05564 13.8595
13 4 8.85339 10.8132 4.16574
280 2 4.42887 9.13302 8.40127
54 4 9.76672 7.42491 5.15904
57 4 7.76553 8.99919 1.88683
58 4 3.95019 11.5138 3.76199
59 4 7.74122 8.70082 7.32396
61 4 6.21652 10.8953 5.83224
79 1 4.16892 7.46064 6.38048
348 2 6.05619 11.2414 1.33575
295 2 10.9714 8.18681 1.419
90 1 5.91075 9.30909 1.98939
349 2 7.06119 12.9314 1.2649
277 2 7.63202 11.0791 0.332505
346 1 6.15061 12.397 0.861665
91 1 8.3714 10.14 0.350198
174 3 10.9284 7.60116 4.03964
181 3 7.96964 7.39464 1.34684
182 3 8.47249 9.57743 3.17682
183 3 3.45921 10.4813 2.48169
184 3 4.5609 12.8505 3.13734
185 3 2.6156 11.5766 4.75179
186 3 7.07378 7.34782 7.88125
187 3 8.69866 8.14175 6.14269
257 2 2.61009 9.00332 5.52703
191 3 7.6067 11.2347 5.08444
192 3 5.0506 10.6455 4.57922
193 3 6.60836 9.59186 6.70408
194 3 5.59524 11.9943 6.70243
242 2 3.82341 8.23566 5.61033
243 2 5.22215 7.72693 6.75485
365 2 9.50667 10.3182 0.722148
247 2 5.80831 6.85252 4.40069
139 3 0.879154 11.998 6.78722
274 2 5.6313 8.16588 2.05058
275 2 5.39445 9.76296 1.02027
276 2 5.6552 9.84106 2.98805
34 4 2.53963 9.51946 1.66533
278 2 3.46141 10.1465 7.1954
265 2 8.37144 6.67049 3.00082
131 3 3.4692 8.46151 0.44796
38 4 1.2319 11.2653 5.46143
92 1 3.46984 9.62977 8.21662
327 2 8.18392 12.8526 3.18441
270 2 10.6984 6.55702 7.27165
325 2 8.72802 11.5334 1.8448
188 3 8.64845 9.52215 8.42394
287 4 11.9402 6.59237 3.11192
11 4 11.6677 6.47514 15.0437
33 4 4.29598 6.81566 10.6985
357 2 7.49967 12.2276 14.1394
60 4 3.57543 11.0603 9.53481
62 4 3.78059 10.64 14.6002
63 4 6.52883 10.9925 11.1475
366 2 8.94866 8.86462 16.3734
74 1 5.21422 6.47193 14.8864
89 1 9.26176 7.71485 12.3044
93 1 5.47203 10.0092 15.3364
94 1 6.50368 9.45653 12.2745
141 3 3.57065 7.91993 11.5953
189 3 3.79734 12.3776 8.64062
167 3 10.5584 6.7063 16.2123
173 3 5.75136 7.17138 10.1791
178 3 10.9565 6.40132 10.4199
66 1 8.24667 11.414 14.0011
190 3 2.18387 11.0255 10.2499
195 3 3.38113 9.3685 13.7122
196 3 4.29367 11.8797 13.8163
197 3 2.7065 10.8137 15.9031
198 3 7.9499 10.7447 10.5645
199 3 4.93485 10.8211 10.3298
200 3 6.22382 12.242 12.0026
227 2 5.7542 7.52288 14.7835
283 2 5.09957 10.19 16.3889
271 2 9.0992 8.55967 11.5577
272 2 10.2024 7.87228 12.8906
273 2 8.29069 7.44012 12.8859
347 2 6.84351 11.6229 16.686
281 2 6.42043 10.5134 15.0487
282 2 5.45788 8.85273 15.0826
206 2 8.85234 11.0572 14.8815
284 2 7.48818 8.84095 12.162
285 2 5.63607 8.86654 11.7563
286 2 6.21262 9.68693 13.3872
16 4 9.23501 10.529 9.56906
356 2 7.81308 10.6294 13.3333
ITEM: TIMESTEP
200
ITEM: NUMBER OF ATOMS
366
ITEM: BOX BOUNDS xy xz yz pp pp pp
0.0000000000000000e+00 2.4587487899999996e+01 7.8631289999999971e+00
-6.4910000000000001e-01 1.3422400000000000e+01 6.1558379999999957e-01
0.0000000000000000e+00 1.6908999999999999e+01 -6.4910000000000001e-01
ITEM: ATOMS id type x y z
124 3 6.65627 2.93431 7.28549
313 2 2.05382 1.76869 7.05738
20 4 7.74734 0.150202 1.69531
21 4 3.76724 1.76733 4.19282
25 4 6.61313 1.86252 5.95272
29 4 5.42078 3.74602 7.89933
31 4 4.19856 5.77209 5.54034
341 2 3.1263 2.64144 1.26954
310 1 1.45393 0.839208 7.40042
361 2 3.09194 0.17542 0.614683
70 1 3.98652 0.0826873 3.17254
71 1 3.87677 3.20618 3.00365
312 2 0.908062 0.434006 6.43571
220 2 4.51588 4.23306 3.34239
114 3 2.27652 1.80608 4.71861
115 3 6.79783 1.3887 1.10226
118 3 5.13851 1.77138 5.15751
119 3 7.06867 0.466896 6.67291
343 2 4.45893 4.92486 0.341301
219 2 4.49815 2.66988 2.20833
126 3 4.6857 4.66654 6.53031
218 2 2.76966 3.47396 2.67337
217 2 3.5298 0.366303 2.17457
342 1 3.91736 5.8261 0.838304
22 4 6.74175 2.81776 0.381578
42 4 9.06368 1.94447 3.90832
333 2 4.96344 0.0352858 1.12026
269 2 11.165 5.40549 5.62249
50 4 10.3362 4.12615 2.00596
51 4 8.95291 6.40729 0.180584
263 2 7.68892 6.36187 4.74636
345 2 4.47629 6.31645 1.67667
52 4 10.583 3.95322 7.97559
72 1 6.78689 4.0545 1.77976
86 1 8.58447 6.15833 4.06188
87 1 9.00434 4.81463 7.08945
287 4 11.9873 6.50134 3.06461
150 3 7.81851 2.20121 4.79276
80 1 5.48319 5.86857 3.95378
293 2 11.4262 6.42598 0.97633
268 2 8.76786 5.83147 7.51838
267 2 9.47007 4.82901 6.0372
266 2 8.04257 4.12908 7.11542
245 2 4.81069 5.82119 2.93407
264 2 8.81596 5.06224 4.00775
164 3 9.37885 3.41552 3.12856
168 3 9.54773 5.1735 0.997267
221 2 7.80038 4.52027 1.50349
222 2 6.85296 3.42362 2.71757
246 2 6.20652 5.00403 4.07858
223 2 5.94456 4.8106 1.78929
338 1 2.68208 2.33429 0.0927735
353 2 8.87166 4.37887 15.2043
123 3 4.30162 3.11636 8.81015
360 2 5.04014 -0.173962 16.2263
154 3 7.71328 2.00264 10.549
336 2 1.77628 1.19958 14.2445
24 4 3.87688 1.91865 9.81604
158 3 8.83615 0.279565 14.3237
27 4 6.51957 1.78212 11.546
335 2 1.93265 -0.472677 15.2756
334 1 2.34595 0.179754 14.3391
153 3 8.83728 0.499862 8.69115
303 2 4.31342 4.65922 14.67
96 3 1.0066 0.268108 11.9848
81 1 4.35776 5.3524 12.0272
302 2 3.48187 3.39954 13.4096
301 2 5.20998 -0.313503 14.7209
120 3 5.80157 2.77858 16.3988
300 2 4.77954 1.37497 13.6504
299 2 6.49942 1.12647 14.5851
116 3 3.83793 0.421778 8.81853
117 3 2.39374 1.99998 10.4082
121 3 4.99608 1.80459 11.1217
122 3 6.87548 0.319996 12.3775
226 2 5.45651 3.33846 13.4006
298 1 3.79546 3.63578 14.4825
337 2 3.48944 0.313528 14.4339
297 1 5.41033 0.810462 14.5582
296 4 4.64384 2.25368 15.6112
249 2 4.217 4.29138 11.6567
56 4 9.5599 6.23287 11.2911
228 2 4.80217 6.0264 13.883
160 3 8.64991 2.22897 16.2308
351 2 8.19552 6.01444 15.0481
45 4 9.23771 1.66941 9.72483
352 2 7.4337 4.79906 16.2495
9 4 12.1272 6.19251 9.46642
48 4 9.61116 1.66462 15.0053
55 4 10.6876 4.07315 13.1812
248 2 5.40036 5.47089 12.4795
225 2 7.44194 2.87121 13.559
224 2 6.90131 4.10782 12.1585
180 3 9.66015 4.94703 12.1944
350 1 8.36847 5.20794 15.7631
177 3 11.3653 5.09493 14.2553
229 2 5.85598 5.82501 15.4325
175 3 9.65429 3.01716 14.0373
172 3 6.1948 4.94305 8.81483
179 3 8.21252 6.18939 10.2472
169 3 9.77916 3.06716 9.08542
73 1 6.58477 3.21978 12.7759
340 2 2.34734 2.2646 16.7834
53 4 6.81192 6.29517 9.35695
339 2 3.13915 0.560743 16.8306
23 4 15.8221 13.0336 7.71416
15 4 13.2585 8.83306 7.56004
17 4 11.8937 10.9857 5.84452
362 2 11.1696 12.9035 3.90429
35 4 14.4655 11.2344 3.91392
216 2 12.8818 13.0628 2.93657
187 3 8.80469 8.19399 6.14387
330 2 10.7967 9.34253 0.927324
329 2 12.2857 10.114 2.057
328 1 11.2774 10.3345 1.42603
106 3 10.4167 10.9006 4.79663
107 3 12.1984 9.67289 6.7072
108 3 11.3707 12.2164 6.7209
132 3 14.6299 12.6236 2.61427
133 3 13.1663 11.2111 4.91748
364 2 12.2441 6.96686 5.87518
326 2 10.0229 12.6627 2.73679
324 1 8.99125 12.0567 2.77321
1 4 10.6696 12.9916 7.91286
331 2 10.4423 10.9646 1.94519
289 1 11.8208 7.41217 1.53685
332 1 12.0576 13.3273 0.280854
255 2 13.1729 9.18287 3.27667
13 4 8.96054 10.7897 4.17872
270 2 10.6467 6.76436 6.98702
188 3 8.72641 9.48067 8.34285
325 2 8.74528 11.4713 1.80693
191 3 7.8615 11.3976 5.10573
327 2 8.08287 12.7415 3.10744
54 4 9.84815 7.32007 4.99264
57 4 7.71845 8.97428 1.76526
59 4 7.76279 8.68347 7.30068
265 2 8.40232 6.62873 2.99188
295 2 11.0354 8.22142 1.68064
90 1 5.88813 9.30259 1.88807
277 2 7.50095 11.0162 0.408321
91 1 8.36263 10.1368 0.309629
274 2 5.6589 8.14107 1.89779
174 3 11.0483 7.799 4.02907
247 2 6.09068 6.8346 4.08218
365 2 9.43554 10.2819 0.737768
88 1 11.2175 6.50367 5.91774
181 3 7.92735 7.37516 1.49799
182 3 8.51391 9.48643 3.09041
193 3 6.55882 9.57508 6.65741
186 3 7.15711 7.36099 7.99309
254 2 14.0899 10.2566 1.73001
104 3 12.58 7.44901 8.44728
4 4 9.53155 12.6102 12.9488
14 4 12.523 10.7913 16.8768
212 2 11.2857 11.9435 15.5111
18 4 13.0216 8.38862 13.3238
19 4 11.6806 10.5828 11.2565
211 2 11.6442 10.2999 14.4249
135 3 14.0955 9.65462 8.55209
210 2 10.4123 10.1909 16.0157
37 4 14.3393 10.9375 9.55649
26 4 15.8582 12.7854 13.3136
145 3 13.9414 10.325 16.3277
144 3 14.8781 11.6451 14.073
68 1 11.3238 10.7286 15.4688
137 3 12.9596 11.1042 10.4019
136 3 14.8475 12.2121 8.76323
285 2 5.89195 8.7686 11.704
105 3 9.79308 11.8822 8.75846
109 3 11.8392 7.88522 14.3852
113 3 10.8818 11.633 12.2288
111 3 10.6197 9.90188 10.3095
112 3 12.2887 9.44595 12.3059
11 4 11.8531 6.31683 15.1074
356 2 7.77304 10.7585 13.3616
16 4 9.22967 10.5923 9.46348
366 2 8.98427 8.93127 16.2435
74 1 5.09509 6.48242 14.9009
284 2 7.68149 8.85823 12.4036
206 2 8.97011 11.0178 14.8717
89 1 9.39316 7.7384 12.5228
94 1 6.5992 9.43152 12.2779
167 3 10.6411 6.51516 16.2676
273 2 8.41777 7.35531 13.0986
272 2 10.3215 7.85283 13.2019
271 2 9.25494 8.64992 11.8731
173 3 5.7163 7.02494 10.2909
227 2 5.48546 7.54515 14.7658
178 3 10.956 6.49792 10.544
66 1 8.27117 11.4662 14.0958
198 3 7.82902 10.9518 10.1837
152 3 14.3776 0.435055 8.30195
207 2 14.5087 6.10168 7.74933
204 2 15.6708 0.469284 6.05889
46 4 11.644 1.95816 5.77062
65 1 15.4601 1.00155 5.02941
305 4 12.9611 0.196297 1.81762
355 2 14.3921 1.66187 5.02122
309 2 14.6158 1.36055 3.19322
85 1 12.9344 3.03514 4.87717
308 2 13.3125 2.53226 2.21273
307 3 11.9562 0.662246 0.692137
306 1 14.0809 1.66276 2.13848
149 3 8.76748 0.876302 2.76191
363 2 14.8045 1.94432 1.26219
205 2 15.5814 0.220083 4.17223
155 3 10.3482 1.53827 4.84973
156 3 12.39 0.667737 6.5371
262 2 12.3846 3.98524 4.59629
165 3 11.2082 3.11979 1.12086
166 3 11.336 5.07172 2.89054
261 2 13.7231 3.16908 5.64384
170 3 11.175 3.01682 6.87278
260 2 13.3779 2.48305 3.84152
3 4 16.6669 2.43348 4.78042
311 2 16.8958 1.03811 8.28654
240 2 18.2921 5.72956 3.84561
8 4 15.6377 4.05409 7.32661
208 2 13.4105 4.7326 6.97627
318 2 14.8706 5.7392 1.15435
64 1 16.6127 3.48185 3.19196
97 3 14.8542 3.06978 8.38892
67 1 14.3659 5.36884 6.88779
78 1 18.5805 5.19147 4.83535
292 2 13.6583 5.99211 4.76207
291 2 14.3346 5.63803 3.02552
288 1 13.7832 6.38883 3.69313
98 3 16.1024 3.50129 5.77989
241 2 18.0092 5.63468 5.7482
239 2 18.5576 4.06954 4.86181
125 3 16.8994 4.81805 8.07122
201 2 15.7229 2.90348 2.81747
202 2 17.5097 3.4212 2.57047
203 2 16.2882 4.54185 3.3602
344 2 18.9186 5.59723 1.20251
209 2 14.5188 5.81566 5.80706
319 2 13.6002 4.65083 0.203997
317 1 14.5902 5.21738 0.175241
2 4 14.4753 1.78256 9.31766
5 4 14.5882 1.67162 15.088