ITEM: TIMESTEP
0
ITEM: NUMBER OF ATOMS
366
ITEM: BOX BOUNDS xy xz yz pp pp pp
-8.2538999999999998e+00 1.6741099999999999e+01 -8.2538999999999998e+00
-6.4910000000000001e-01 1.3422400000000000e+01 6.1619999999999997e-01
0.0000000000000000e+00 1.6908999999999999e+01 -6.4910000000000001e-01
ITEM: ATOMS id type x y z
3 4 0.727035 2.46681 4.71405
8 4 -0.392596 4.11215 7.37765
20 4 7.64848 0.0570593 1.75609
21 4 3.85397 1.76323 4.26858
25 4 6.57914 1.69481 6.09231
29 4 5.32787 3.74867 7.89618
31 4 4.17067 5.75355 5.62954
64 1 0.650239 3.56917 3.21945
97 3 -1.20934 3.0131 8.41952
67 1 -1.71031 5.275 6.79784
70 1 3.81499 0.243524 3.15258
71 1 3.87595 3.12822 2.89914
78 1 2.31989 5.64622 5.15749
98 3 0.173903 3.41779 5.98979
114 3 2.34957 1.81439 4.81215
115 3 6.9733 1.26081 0.944684
118 3 5.20523 1.73688 5.15566
119 3 6.90045 0.171009 6.62745
343 2 4.49695 4.79467 0.397108
125 3 0.894509 5.07308 8.14672
126 3 4.6546 4.65226 6.59852
201 2 -0.290687 2.93433 2.74019
202 2 1.44879 3.79603 2.40462
203 2 0.239783 4.50718 3.66578
317 1 -1.55496 5.10356 0.253166
207 2 -1.59404 6.01968 7.72278
342 1 3.94228 5.69357 0.766964
319 2 -2.54511 4.57349 0.247705
209 2 -1.53512 5.82903 5.80166
344 2 2.8195 5.42321 1.05141
217 2 3.12973 0.499971 2.32498
218 2 2.7944 3.38689 2.56415
219 2 4.47312 2.62916 2.05301
220 2 4.44487 4.11083 3.35257
239 2 2.55655 5.34378 4.04364
241 2 1.869 4.75743 5.75574
312 2 0.699054 0.291425 6.65646
288 1 -2.52518 6.40537 3.74318
291 2 -2.18204 5.42239 3.19137
292 2 -2.50006 6.11098 4.86548
361 2 3.23797 0.206699 0.918097
310 1 1.33555 0.680119 7.56838
341 2 3.19488 2.59645 1.06454
313 2 1.90317 1.64355 7.32766
318 2 -1.24641 5.44649 1.27767
208 2 -2.65678 4.64285 6.84998
6 4 0.960092 1.62051 11.1447
123 3 4.11368 3.03231 8.87041
360 2 5.16755 -0.22772 16.3999
10 4 -0.117419 3.75307 13.2086
12 4 -1.8268 6.24026 11.5759
24 4 3.866 1.85325 9.85269
340 2 2.43294 2.44916 16.6126
27 4 6.72437 1.62785 11.4028
30 4 1.8255 5.9438 9.06231
76 1 1.37803 5.07702 10.6842
250 2 3.76503 5.56735 12.8089
95 3 -0.251999 1.48012 10.0819
96 3 1.13851 0.169817 11.7749
81 1 4.46879 5.37089 11.9091
99 3 -0.979586 3.03662 14.3572
100 3 0.424101 2.62037 12.2253
120 3 5.89603 2.7272 16.5684
102 3 -2.5231 5.77339 10.196
103 3 -1.09996 4.89383 12.4087
116 3 3.76771 0.445955 9.02261
117 3 2.36523 1.96562 10.5617
121 3 5.17773 1.90765 10.7922
122 3 6.83019 0.173169 12.269
226 2 5.88857 3.31133 13.2167
127 3 1.2899 4.4384 13.909
337 2 3.6064 0.273868 14.258
233 2 1.92902 4.14712 10.8858
234 2 0.253143 4.82487 10.6147
235 2 1.56342 5.87109 11.5557
249 2 4.01442 4.56526 11.3028
359 2 -0.189818 3.84375 16.6986
296 4 4.79025 2.25355 15.6226
297 1 5.58864 0.713556 14.7319
298 1 4.18816 3.54054 14.28
299 2 6.61918 0.553653 15.1274
300 2 5.65423 1.32882 13.7538
301 2 5.13365 -0.288726 14.4775
302 2 3.96361 3.30656 13.1829
303 2 4.66843 4.56686 14.4614
304 2 3.15643 3.62489 14.9279
32 4 1.39846 6.03643 14.4076
314 1 -0.00448583 1.07777 16.0478
315 2 0.968447 0.877104 15.3615
334 1 2.49232 0.297211 14.2018
335 2 1.97029 -0.341118 15.0875
336 2 2.08453 1.37422 14.0703
130 3 3.33535 6.27762 9.18618
339 2 3.13035 0.567212 16.6705
358 2 0.170065 1.94554 16.7919
338 1 3.33682 1.70983 16.8221
7 4 -1.22761 6.08644 16.1342
311 2 0.693851 0.808382 8.51295
23 4 -0.262374 13.0002 7.74108
15 4 -3.02998 8.91658 7.67143
17 4 -4.38707 11.0642 6.00599
362 2 -5.02891 13.0167 3.99873
35 4 -1.58357 11.4322 3.90002
216 2 -3.34559 13.2018 2.89031
69 1 -1.9924 8.41659 6.14538
82 1 1.73907 8.31423 2.88826
83 1 -1.9125 9.80327 2.90192
84 1 1.55157 9.50514 5.86877
106 3 -5.76548 10.8504 4.89239
107 3 -4.16108 9.88838 7.09338
108 3 -4.81591 12.4819 6.65878
132 3 -1.66495 12.5852 2.70542
133 3 -2.99918 11.2708 4.96776
134 3 1.26465 9.98747 0.670742
138 3 -0.130052 11.2271 4.53042
213 2 -1.60165 9.3664 5.68055
214 2 -2.34486 7.74101 5.29868
215 2 -1.14899 7.90137 6.75185
230 2 1.21517 8.05362 7.71041
332 1 -3.98722 13.3044 0.481155
321 2 -0.311362 8.56498 0.234721
251 2 1.67267 8.7713 3.99537
252 2 2.38832 7.34955 2.87615
253 2 0.671983 8.19768 2.36992
254 2 -1.95328 10.182 1.78398
255 2 -2.81345 9.29627 3.3518
256 2 -0.96159 9.29719 3.18781
289 1 -4.29009 7.49956 1.47397
258 2 0.743926 8.9792 5.22243
259 2 1.13531 9.63117 6.96117
331 2 -5.53615 11.1585 2.07664
290 2 -1.90297 7.28718 3.44182
294 2 -3.30416 8.04289 1.18783
320 1 -1.36799 8.19296 0.484179
333 2 -3.10735 13.3697 1.24147
322 2 -1.53609 7.88661 1.53563
1 4 -5.43381 12.9803 8.11559
324 1 -7.19875 12.0779 2.85295
354 3 0.144493 12.4838 0.623014
326 2 -6.20217 12.6534 2.80496
240 2 1.76467 6.60408 5.34349
328 1 -4.73121 10.5219 1.49119
329 2 -3.71661 10.2784 2.11369
330 2 -5.19283 9.56547 1.00683
244 2 3.38981 7.72605 7.06642
139 3 0.743824 11.9712 6.81103
323 2 -2.04858 9.01255 0.143843
104 3 -3.61186 7.47494 8.43787
4 4 -6.54315 12.5689 12.8629
14 4 -3.53214 10.9017 16.8345
238 2 -0.736589 8.06927 10.1012
18 4 -3.12514 8.54714 13.2301
19 4 -4.3516 10.5896 11.1848
28 4 4.00581 6.31193 16.3824
135 3 -1.90867 9.81955 8.55871
36 4 1.50994 10.6218 16.5737
37 4 -1.63935 10.9887 9.72552
39 4 2.52933 8.36058 12.67
40 4 -1.0743 10.338 14.994
41 4 0.9438 10.7155 11.456
68 1 -4.8078 10.6972 15.4471
75 1 0.957105 7.70087 8.77357
77 1 -0.463845 7.5493 11.104
232 2 -0.158416 7.6748 8.83562
105 3 -6.37708 11.8615 8.80873
109 3 -4.43704 7.95063 14.3256
110 3 -2.61087 7.14457 12.5705
111 3 -5.57243 9.83775 10.3654
112 3 -3.67332 9.58719 12.2436
113 3 -5.22551 11.6912 12.2811
236 2 -0.624285 8.23241 11.9833
128 3 2.53253 6.13326 15.6672
237 2 0.504696 6.99432 11.0931
231 2 1.3272 8.37997 9.54692
136 3 -1.05162 12.2144 8.86992
137 3 -3.13513 11.2393 10.3713
140 3 1.82907 7.06755 13.1761
142 3 -1.75709 9.24875 13.9493
143 3 0.406812 10.0707 15.4808
144 3 -0.99771 11.7471 14.2682
145 3 -2.12718 10.3662 16.3373
146 3 -0.493591 10.4425 10.776
147 3 1.38339 9.35497 12.1433
26 4 -0.210195 12.783 13.3071
210 2 -5.68483 10.1725 16.0311
211 2 -4.5497 10.388 14.3965
212 2 -4.91685 11.8811 15.5025
101 3 -2.77849 6.19255 15.8518
129 3 -0.0415735 6.30518 15.1458
148 3 0.826541 11.9466 12.4683
279 2 2.56436 8.85545 8.53287
22 4 6.9558 2.78013 0.460241
42 4 9.07097 1.92028 3.86623
269 2 10.6525 5.56482 5.90155
46 4 11.5195 1.9624 5.74472
50 4 10.236 4.09691 1.98928
51 4 8.91502 6.39032 0.163273
52 4 10.3614 3.90293 7.96307
72 1 6.83158 3.97236 1.85743
85 1 12.8492 2.91536 4.754
86 1 8.44347 6.23477 4.11335
87 1 8.8599 4.57676 6.99034
153 3 9.02057 0.70467 8.36326
149 3 8.79555 0.773134 2.71436
150 3 7.80242 2.21722 4.97577
245 2 4.84681 5.83163 2.91005
155 3 10.3457 1.58684 4.69746
156 3 12.2966 0.74821 6.38969
164 3 9.28882 3.26372 3.08146
165 3 10.9781 3.08088 0.906072
166 3 11.3021 4.9586 2.92304
168 3 9.46059 5.14673 1.09264
170 3 10.9587 2.90705 6.98319
221 2 7.76472 4.61373 1.95762
222 2 6.72407 3.37905 2.81558
223 2 5.87835 4.60883 1.75092
246 2 6.185 5.0586 4.12147
260 2 13.2738 2.44949 3.78261
261 2 13.655 3.0303 5.50524
262 2 12.2528 3.91985 4.52364
205 2 15.5595 0.377438 3.75289
264 2 8.80918 5.2449 3.97507
363 2 14.6785 1.89313 1.02146
266 2 7.84257 3.88679 7.19092
267 2 9.008 4.61405 5.87732
268 2 8.74707 5.59462 7.45693
293 2 11.7832 6.4976 0.864697
80 1 5.36491 5.80669 3.9909
306 1 14.0062 1.74384 1.97915
307 3 11.927 0.476376 0.702145
308 2 13.2456 2.49804 2.09657
309 2 14.6451 1.58856 2.94892
355 2 14.4732 1.75428 4.80835
305 4 13.0407 0.113709 1.68601
152 3 14.0397 0.53748 8.38921
263 2 7.49258 6.21306 4.74536
287 4 11.8026 6.56259 3.1094
204 2 15.6395 0.403542 5.66175
171 3 11.444 5.12689 8.40895
345 2 4.57213 6.25067 1.58359
124 3 6.52892 2.79261 7.35156
65 1 15.5017 1.05832 4.71348
44 4 12.9842 -0.284474 7.45602
2 4 14.4482 1.76766 9.36172
5 4 14.5274 1.74539 15.0505
56 4 9.52772 6.19191 11.1768
45 4 9.35364 1.58688 9.62429
352 2 7.45447 4.8283 16.3585
48 4 9.62075 1.70836 15.044
49 4 11.9607 1.78359 11.2434
55 4 10.8036 4.07997 13.1321
229 2 5.88367 5.63967 15.2996
73 1 7.01072 3.11659 12.5667
151 3 13.3256 1.99285 16.0518
353 2 8.7592 4.46479 15.0638
154 3 7.96702 1.71896 10.459
157 3 14.3751 0.444278 14.1862
158 3 8.79238 0.58128 14.2402
159 3 10.8773 0.90012 15.5949
160 3 8.68503 2.42555 16.2593
161 3 13.0421 2.13916 10.1505
162 3 10.6709 1.08762 10.531
163 3 12.5089 0.56158 12.2954
169 3 9.63999 3.1727 9.16797
179 3 8.31743 6.08524 10.0861
172 3 6.1224 4.877 8.70683
175 3 10.0877 2.97593 14.1147
176 3 11.7342 3.09446 12.1686
177 3 11.529 5.20694 14.0437
350 1 8.28619 5.23909 15.7627
180 3 9.66356 4.84125 12.1942
224 2 7.15923 4.015 11.8577
225 2 7.82101 2.90142 13.2004
248 2 5.57359 5.31497 12.1507
43 4 12.0003 1.32881 16.734
316 2 15.714 0.0230032 16.5955
9 4 12.1336 6.18603 9.40045
47 4 13.4529 -0.464348 13.114
228 2 4.9091 6.17386 13.7551
13 4 8.87827 10.8113 4.28659
364 2 11.8698 7.02314 6.40688
54 4 9.72574 7.40381 4.95658
57 4 7.64992 9.03197 1.83081
58 4 3.82498 11.527 3.74652
59 4 7.81164 8.72434 7.30037
61 4 6.26128 10.834 5.86784
79 1 4.38135 7.57445 6.48113
348 2 6.02691 11.3789 1.10116
88 1 10.7513 6.62713 6.34125
90 1 5.83088 9.51785 1.89069
349 2 7.11016 12.9192 0.844252
277 2 7.62875 11.0978 0.392126
346 1 6.12979 12.4678 0.621763
91 1 8.36275 10.1641 0.339033
174 3 10.9495 7.59702 4.0237
181 3 7.95028 7.5163 1.40119
182 3 8.29472 9.56959 3.26585
183 3 3.38167 10.5215 2.43485
184 3 4.47552 12.8964 3.12024
185 3 2.59506 11.7615 4.71342
186 3 7.33203 7.38313 7.87304
187 3 8.82431 8.30844 6.01632
257 2 2.57519 9.10378 5.75045
191 3 7.75389 11.4628 5.21471
192 3 5.08266 10.6584 4.56019
193 3 6.46099 9.43633 6.78499
194 3 5.57833 11.9148 6.73382
242 2 4.52265 8.33049 5.77106
243 2 5.25727 7.50974 7.16181
365 2 9.48323 10.2718 0.724301
247 2 5.69252 6.87863 4.31556
295 2 10.9182 8.16485 1.31896
274 2 5.54214 8.30164 1.96837
275 2 5.27624 9.97788 0.997583
276 2 5.62637 9.98431 2.89047
34 4 2.5462 9.30268 1.51564
278 2 3.57665 9.99511 7.2727
265 2 8.23675 6.78341 2.98403
131 3 3.44113 8.36759 0.327479
38 4 1.21976 11.381 5.42823
92 1 3.52636 9.60189 8.34029
327 2 8.03127 12.7626 3.07714
270 2 10.1364 6.77872 7.26344
325 2 8.72302 11.4562 1.89605
11 4 11.8583 6.44309 15.111
33 4 4.36938 6.78029 10.589
280 2 4.45099 9.09717 8.72342
60 4 3.56198 11.1482 9.42623
62 4 3.87507 10.5723 14.6585
63 4 6.32911 10.8045 11.2531
366 2 8.91242 9.00762 16.2134
74 1 5.26623 6.48992 14.8699
89 1 9.22503 7.65456 12.4445
93 1 5.49099 9.86188 15.6246
94 1 6.46112 9.33051 12.5102
141 3 3.55342 7.96169 11.4926
351 2 8.11692 6.22255 15.1971
167 3 10.6667 6.42392 16.2276
173 3 5.99003 7.22286 10.2503
178 3 10.9883 6.58465 10.448
66 1 8.36644 11.4076 14.0167
190 3 2.23108 11.0794 10.2959
195 3 3.34497 9.32645 13.8139
196 3 4.39928 11.7688 13.8028
197 3 2.87977 10.831 15.8886
198 3 7.84143 10.7757 10.5347
199 3 5.13249 10.7752 10.2564
200 3 6.15756 12.1493 12.1031
227 2 5.83375 7.50158 14.922
283 2 5.02929 10.0645 16.6144
271 2 9.02794 8.49593 11.7333
272 2 10.0818 7.82529 13.204
273 2 8.33291 7.26764 13.011
347 2 6.53709 11.8178 16.4011
281 2 6.2755 10.6393 15.3519
282 2 5.77276 8.78933 15.4459
206 2 9.08391 10.9258 14.741
284 2 7.48869 8.74186 12.5093
285 2 5.71342 8.74407 11.9798
286 2 6.06562 9.55751 13.6956
16 4 9.19486 10.5277 9.59994
356 2 7.64935 10.6365 13.5131
357 2 7.76635 12.2659 14.4275
53 4 7.00765 6.41265 9.23792
188 3 8.68193 9.52815 8.47552
189 3 3.61393 12.3912 8.47745
ITEM: TIMESTEP
100
ITEM: NUMBER OF ATOMS
366
ITEM: BOX BOUNDS xy xz yz pp pp pp
-8.2538999999999998e+00 1.6741099999999999e+01 -8.2538999999999998e+00
-6.5755449999999982e-01 1.3422400000000000e+01 6.1619999999999997e-01
0.0000000000000000e+00 1.6908999999999999e+01 -6.5755449999999982e-01
ITEM: ATOMS id type x y z
3 4 0.653062 2.44862 4.73
8 4 -0.425293 4.07336 7.4276
20 4 7.8114 0.201808 1.72794
21 4 3.89428 1.71378 4.22633
25 4 6.5954 1.7156 6.09892
29 4 5.31079 3.84094 7.9869
31 4 4.24165 5.56889 5.50765
64 1 0.567967 3.55143 3.17197
97 3 -1.25749 2.9785 8.22692
67 1 -1.57427 5.49085 7.03898
70 1 3.95568 0.041241 3.31037
71 1 3.9441 3.03541 2.89456
78 1 2.39907 5.27403 4.90386
98 3 0.182938 3.29439 5.96603
114 3 2.14886 1.94585 4.69326
115 3 6.88023 1.39689 1.15327
118 3 5.09657 1.8193 5.28491
119 3 7.00015 0.275636 6.62033
343 2 4.51892 4.87013 0.223738
125 3 0.816215 4.89512 8.03745
126 3 4.71091 4.58966 6.58638
201 2 -0.40212 2.88419 2.79468
202 2 1.55041 3.45506 2.47438
203 2 0.377423 4.64375 3.40453
317 1 -1.34537 5.18112 0.234509
358 2 -0.557808 2.45186 0.0653368
342 1 3.96008 5.73002 0.774248
319 2 -2.28247 4.73289 0.600816
209 2 -1.46957 5.53911 5.8912
344 2 2.87942 5.4595 1.09503
217 2 3.28029 0.31884 2.45437
218 2 2.89663 3.27945 2.43014
219 2 4.61872 2.47962 2.17408
220 2 4.58973 4.0845 3.2541
239 2 2.37116 4.35253 4.17796
241 2 1.87132 5.06537 5.8505
312 2 0.823811 0.186396 6.53096
288 1 -2.30816 6.49942 3.69169
291 2 -1.72552 5.84636 2.99174
292 2 -2.41927 6.07634 4.76063
361 2 3.19024 0.272336 0.724887
310 1 1.44885 0.771082 7.38551
341 2 3.19911 2.3948 0.993469
313 2 2.08205 1.62225 6.94192
318 2 -0.725452 5.50768 1.09046
208 2 -2.64024 5.24671 7.34764
124 3 6.42981 2.78854 7.43485
240 2 1.95233 6.15151 4.45778
311 2 0.828025 1.07293 8.26202
6 4 0.804894 1.57438 11.1606
123 3 4.16743 3.19188 8.85058
360 2 5.13896 -0.136156 16.2499
10 4 -0.12554 3.85536 13.1512
12 4 -1.86981 6.06915 11.6393
24 4 3.75214 1.9544 9.79428
340 2 2.4312 2.38366 16.7068
27 4 6.67155 1.73674 11.5093
30 4 1.73884 5.9158 9.03029
76 1 1.40211 5.13839 10.6975
250 2 3.7077 5.52804 12.7777
95 3 -0.3523 1.3808 10.1677
96 3 1.03643 0.160505 12.077
81 1 4.50667 5.38614 11.9785
99 3 -0.911377 3.0501 14.3144
100 3 0.405768 2.80613 12.1751
120 3 5.84005 2.76601 16.4471
102 3 -2.58375 5.61739 10.1714
103 3 -1.03479 4.8978 12.3417
116 3 3.61059 0.535478 8.94648
117 3 2.21774 2.07653 10.4968
121 3 4.99456 1.82868 10.9081
122 3 7.02919 0.449812 12.4762
226 2 5.87458 3.35557 13.306
127 3 1.32808 4.54098 13.8099
337 2 3.48151 0.46672 14.3594
233 2 2.01084 4.20712 10.8517
234 2 0.25234 4.88204 10.3599
235 2 1.46841 5.77946 11.5928
249 2 4.44913 4.46915 11.3941
359 2 -0.145112 3.81622 16.4946
296 4 4.6876 2.22318 15.5741
297 1 5.44304 0.771075 14.5147
298 1 4.11612 3.56477 14.3296
299 2 6.60834 0.872227 14.655
300 2 5.04214 1.31411 13.6223
301 2 5.07469 -0.318324 14.5728
302 2 3.9059 3.26527 13.2789
303 2 4.65195 4.60304 14.5111
304 2 3.0624 3.52005 15.0661
32 4 1.45851 5.99709 14.4605
314 1 -0.102131 0.953155 16.2181
315 2 0.795429 0.781215 15.5191
334 1 2.30016 0.287924 14.2706
335 2 1.87806 -0.386654 15.1639
336 2 1.75801 1.32419 14.1056
338 1 3.28118 1.69832 16.8537
339 2 2.97417 0.693234 16.6453
128 3 2.67225 5.89264 15.7514
23 4 -0.188573 13.036 7.66775
15 4 -2.89081 8.84589 7.59867
17 4 -4.37179 11.0286 5.84549
362 2 -4.6348 12.6035 3.89574
35 4 -1.66684 11.3605 3.87436
216 2 -3.25557 13.2354 2.94922
69 1 -1.75783 8.34484 6.18516
82 1 1.96468 8.25634 2.91292
83 1 -1.99353 9.83344 2.85051
84 1 1.62363 9.41799 5.87187
106 3 -5.65656 10.792 4.9169
107 3 -3.98322 9.7673 6.84732
108 3 -4.75029 12.1934 6.89673
132 3 -1.58135 12.6914 2.62019
133 3 -3.0481 11.4109 4.85064
134 3 1.11135 10.1541 0.904717
138 3 -0.256956 11.1533 4.68228
213 2 -1.70829 9.33956 5.59519
214 2 -2.20981 7.54626 5.46456
215 2 -0.710841 8.10832 6.57238
230 2 1.329 7.83648 7.735
332 1 -4.03694 13.3396 0.355543
321 2 -0.367868 8.61722 0.0784109
251 2 1.83433 8.6784 3.9956
252 2 2.75471 7.40534 2.83496
253 2 0.972271 7.90437 2.38676
254 2 -2.08 9.95483 1.6376
255 2 -3.03324 9.55862 3.34844
256 2 -1.01063 9.25009 3.15994
289 1 -4.25327 7.41685 1.47161
258 2 0.752298 8.92824 5.34906
259 2 1.45751 9.23685 6.98921
331 2 -5.57707 11.0593 2.01434
290 2 -1.93455 7.59094 3.70857
294 2 -3.20529 7.89798 1.18266
320 1 -1.33139 8.25058 0.499385
323 2 -2.18726 9.08065 0.545649
322 2 -1.20823 7.7548 1.44263
1 4 -5.53146 12.915 8.0984
324 1 -7.09441 12.1968 2.83396
354 3 0.202517 12.6557 0.603438
326 2 -6.15261 12.7727 2.9051
364 2 -4.08182 7.01335 6.14122
328 1 -4.73671 10.5013 1.4631
329 2 -3.79569 10.3318 2.06239
330 2 -5.10757 9.49965 1.06769
244 2 3.46298 7.25412 7.23132
279 2 2.53186 8.89682 8.43207
207 2 -1.16483 6.42478 7.58639
333 2 -3.26171 13.36 1.1094
4 4 -6.52684 12.5111 12.9692
14 4 -3.54072 10.8818 16.7503
238 2 -0.891762 8.0283 10.3467
18 4 -3.09028 8.44059 13.2815
19 4 -4.43281 10.5435 11.3311
28 4 4.03869 6.44307 16.4543
135 3 -1.95868 9.67496 8.66882
36 4 1.37569 10.5989 16.6736
37 4 -1.71049 10.9729 9.61464
39 4 2.49896 8.36126 12.6608
40 4 -1.09062 10.3583 14.9487
41 4 0.987696 10.7031 11.2785
68 1 -4.90872 10.8306 15.5223
75 1 0.969536 7.67382 8.90931
77 1 -0.547465 7.41839 11.2286
232 2 -0.205047 7.83629 9.06694
105 3 -6.45742 12.0179 9.03214
109 3 -4.31429 8.00149 14.4166
110 3 -2.67815 7.17564 12.4646
111 3 -5.66492 9.87743 10.3244
112 3 -3.87498 9.55448 12.3903
113 3 -5.23628 11.6127 12.264
236 2 -0.519084 8.02546 12.1758
104 3 -3.51439 7.43764 8.5381
237 2 0.450589 6.85233 11.0187
231 2 1.52895 8.32532 9.59261
136 3 -1.0865 12.0934 8.67322
137 3 -3.16234 11.1288 10.4436
140 3 1.90413 7.06353 13.386
142 3 -1.74777 9.19822 14.0863
143 3 0.385426 9.92334 15.5796
144 3 -1.27972 11.8061 14.1574
145 3 -2.11217 10.4085 16.1789
146 3 -0.524049 10.445 10.5728
147 3 1.33009 9.27587 11.9395
26 4 -0.303786 12.8061 13.2807
210 2 -5.80488 10.3225 16.0637
211 2 -4.66334 10.3978 14.5358
212 2 -4.93826 12.0372 15.5831
101 3 -2.79198 6.24263 15.6909
129 3 -0.1008 6.30406 15.0084
148 3 0.710613 11.8117 12.4156
7 4 -1.19187 6.10009 16.1647
130 3 3.17333 6.35151 9.26378
22 4 6.8478 2.81471 0.417814
42 4 9.01722 1.89697 3.89793
269 2 11.23 5.31806 5.87375
46 4 11.6041 1.90872 5.73903
50 4 10.2624 4.12839 1.97539
51 4 8.86728 6.42787 0.049928
52 4 10.4485 3.84895 7.95317
72 1 6.92009 4.01147 1.84806
85 1 12.8905 3.01641 4.89829
86 1 8.65751 6.32205 4.1043
87 1 8.87836 4.46449 6.89095
153 3 8.9406 0.712095 8.38137
149 3 8.90898 0.68036 2.80668
150 3 7.67445 2.13321 4.94951
245 2 4.92105 5.81064 3.00257
155 3 10.3909 1.58269 4.65191
156 3 12.6038 0.794869 6.49826
164 3 9.30636 3.34691 3.04207
165 3 10.995 3.14512 1.06195
166 3 11.3973 5.14638 2.82369
168 3 9.45262 5.2463 0.980404
170 3 11.1251 3.01838 6.81343
221 2 7.8557 4.67513 1.85842
222 2 6.85382 3.36243 2.75712
223 2 5.9597 4.60848 1.70077
246 2 6.2408 4.92718 4.12572
260 2 13.3174 2.46578 3.84906
261 2 13.7387 3.33347 5.6822
262 2 12.1944 3.91365 4.67015
205 2 15.4875 0.413021 4.14201
264 2 9.3402 5.42606 4.03769
363 2 14.8132 1.84208 1.374
266 2 7.98939 3.82891 7.04472
267 2 9.25751 4.40143 5.78584
268 2 8.88207 5.56495 7.25988
293 2 11.7234 6.43751 0.81155
80 1 5.44185 5.75561 4.02485
306 1 14.0091 1.62617 2.18795
307 3 11.9664 0.558115 0.708867
308 2 13.2149 2.46947 2.17151
309 2 14.5259 1.42252 3.25649
355 2 14.4467 1.69176 5.06767
305 4 13.0365 0.0376131 1.71138
345 2 4.56788 6.20863 1.68755
263 2 7.77023 6.28891 4.82907
65 1 15.4105 1.07706 5.01832
204 2 15.7194 0.608249 6.10082
44 4 13.1168 -0.262797 7.54661
88 1 11.1272 6.42555 6.24415
152 3 14.2644 0.377663 8.44492
2 4 14.4679 1.77096 9.28183
5 4 14.6095 1.7173 15.0968
56 4 9.6252 6.15518 11.2487
45 4 9.2804 1.74456 9.82033
352 2 7.47747 4.64887 16.3946
48 4 9.58083 1.75851 15.0291
49 4 11.985 1.81941 11.3629
55 4 10.753 4.08819 13.0994
229 2 5.93585 5.68679 15.4553
73 1 6.87874 3.26014 12.6247
151 3 13.4866 2.07831 16.1131
353 2 8.70341 4.20925 14.9618
154 3 7.96696 1.90653 10.6925
157 3 14.2587 0.557789 14.1316
158 3 8.65542 0.488832 14.2836
159 3 10.9813 1.22718 15.6046
160 3 8.65398 2.36573 16.2648
161 3 13.1142 2.06303 10.2576
162 3 10.491 1.20355 10.6727
163 3 12.5711 0.556816 12.2071
169 3 9.82542 3.0953 9.18188
179 3 8.22625 6.19522 10.0898
172 3 6.20811 4.95632 8.82398
175 3 9.8334 2.89279 13.9726
176 3 11.7589 3.17973 12.1808
177 3 11.3489 5.26424 14.0222
350 1 8.33757 5.04147 15.6682
180 3 9.64242 4.97371 12.3104
224 2 6.97321 4.11928 11.8791
225 2 7.85276 3.15111 13.2212
248 2 5.51495 5.49047 12.4407
43 4 12.0736 1.49183 16.7868
316 2 15.7506 -0.0395117 16.7658
9 4 12.1782 6.13978 9.45348
47 4 13.456 -0.395427 13.0758
171 3 11.4606 4.93005 8.48434
351 2 7.96351 5.94965 15.1233
53 4 6.92883 6.26765 9.19198
228 2 4.9379 6.04871 13.8595
13 4 8.85782 10.8111 4.16574
280 2 4.43109 9.12881 8.40127
54 4 9.7716 7.42233 5.15904
57 4 7.76941 8.99825 1.88683
58 4 3.95216 11.512 3.76199
59 4 7.74509 8.69716 7.32396
61 4 6.21963 10.8924 5.83224
79 1 4.17101 7.45745 6.38048
348 2 6.05922 11.2407 1.33575
295 2 10.9769 8.1861 1.419
90 1 5.9137 9.30809 1.98939
349 2 7.06473 12.9308 1.2649
277 2 7.63584 11.0789 0.332505
346 1 6.15369 12.3966 0.861665
91 1 8.37559 10.1399 0.350198
174 3 10.9339 7.59914 4.03964
181 3 7.97363 7.39396 1.34684
182 3 8.47673 9.57584 3.17682
183 3 3.46094 10.48 2.48169
184 3 4.56318 12.849 3.13734
185 3 2.61691 11.5742 4.75179
186 3 7.07732 7.34388 7.88125
187 3 8.70301 8.13868 6.14269
257 2 2.61139 9.00056 5.52703
191 3 7.6105 11.2321 5.08444
192 3 5.05313 10.6432 4.57922
193 3 6.61167 9.58851 6.70408
194 3 5.59804 11.9909 6.70243
242 2 3.82532 8.23286 5.61033
243 2 5.22476 7.72355 6.75485
365 2 9.51142 10.3178 0.722148
247 2 5.81121 6.85032 4.40069
139 3 0.879594 11.9946 6.78722
274 2 5.63411 8.16486 2.05058
275 2 5.39715 9.76245 1.02027
276 2 5.65803 9.83957 2.98805
34 4 2.5409 9.51862 1.66533
278 2 3.46314 10.1429 7.1954
265 2 8.37563 6.66899 3.00082
131 3 3.47094 8.46129 0.44796
38 4 1.23252 11.2626 5.46143
92 1 3.47157 9.62566 8.21662
327 2 8.18801 12.851 3.18441
270 2 10.7038 6.55338 7.27165
325 2 8.73238 11.5325 1.8448
188 3 8.65277 9.51794 8.42394
287 4 11.9462 6.59082 3.11192
11 4 11.6736 6.46761 15.0437
33 4 4.29813 6.81031 10.6985
357 2 7.50342 12.2205 14.1394
60 4 3.57721 11.0555 9.53481
62 4 3.78248 10.6327 14.6002
63 4 6.53209 10.9869 11.1475
366 2 8.95314 8.85643 16.3734
74 1 5.21683 6.46448 14.8864
89 1 9.26639 7.7087 12.3044
93 1 5.47477 10.0016 15.3364
94 1 6.50694 9.45039 12.2745
141 3 3.57243 7.91413 11.5953
189 3 3.79924 12.3732 8.64062
167 3 10.5637 6.69819 16.2123
173 3 5.75424 7.16629 10.1791
178 3 10.962 6.39611 10.4199
66 1 8.25079 11.407 14.0011
190 3 2.18496 11.0204 10.2499
195 3 3.38282 9.36164 13.7122
196 3 4.29582 11.8728 13.8163
197 3 2.70785 10.8058 15.9031
198 3 7.95388 10.7395 10.5645
199 3 4.93732 10.8159 10.3298
200 3 6.22693 12.236 12.0026
227 2 5.75708 7.51549 14.7835
283 2 5.10212 10.1818 16.3889
271 2 9.10375 8.55389 11.5577
272 2 10.2075 7.86584 12.8906
273 2 8.29484 7.43368 12.8859
347 2 6.84693 11.6145 16.686
281 2 6.42364 10.5058 15.0487
282 2 5.46061 8.84519 15.0826
206 2 8.85677 11.0498 14.8815
284 2 7.49193 8.83487 12.162
285 2 5.63889 8.86067 11.7563
286 2 6.21572 9.68023 13.3872
16 4 9.23963 10.5242 9.56906
356 2 7.81699 10.6228 13.3333
ITEM: TIMESTEP
200
ITEM: NUMBER OF ATOMS
366
ITEM: BOX BOUNDS xy xz yz pp pp pp
0.0000000000000000e+00 2.4612099999999998e+01 7.8710000000000004e+00
-6.6600900000000074e-01 1.3422400000000000e+01 6.1619999999999997e-01
0.0000000000000000e+00 1.6908999999999999e+01 -6.6600900000000074e-01
ITEM: ATOMS id type x y z
124 3 6.65748 2.86105 7.12407
313 2 1.97955 1.71603 6.95013
20 4 7.73636 0.0902982 1.7578
21 4 3.74057 1.78286 4.1532
25 4 6.62736 1.76346 5.95942
29 4 5.48426 3.78284 7.89065
31 4 4.18968 5.69699 5.54869
341 2 3.09765 2.66336 1.26023
310 1 1.46269 0.766088 7.31345
361 2 3.37154 0.375038 0.806643
70 1 3.96639 0.0935369 3.22009
71 1 3.88858 3.23355 3.01644
312 2 0.938656 0.29102 6.33615
220 2 4.57399 4.24751 3.3203
114 3 2.11508 1.99901 4.66792
115 3 6.72505 1.3548 1.09619
118 3 5.12459 1.80223 5.25396
119 3 7.16195 0.346684 6.59746
343 2 4.54079 4.89021 0.380006
219 2 4.53757 2.57602 2.19615
126 3 4.73422 4.64731 6.56751
218 2 2.74621 3.57769 2.75551
217 2 3.49707 0.109549 2.20758
342 1 3.95063 5.81957 0.81979
22 4 6.71638 2.76313 0.384545
42 4 9.15371 1.88519 3.88118
333 2 5.19491 -0.0890414 0.88784
269 2 11.2669 5.4304 5.73659
50 4 10.3109 4.09326 2.06336
51 4 8.95061 6.41038 0.167971
263 2 7.55448 6.37185 4.74337
345 2 4.4969 6.35436 1.65588
52 4 10.508 3.94548 8.03785
72 1 6.77894 4.07744 1.75513
86 1 8.51394 6.28991 4.08717
87 1 9.02113 4.85503 7.05863
338 1 2.63149 2.3528 0.110718
150 3 7.8421 2.1289 4.83456
80 1 5.51604 5.91783 4.00224
293 2 11.4875 6.41705 0.991612
268 2 8.88955 5.88379 7.58425
267 2 9.3437 4.85114 6.00235
266 2 8.12065 4.17486 7.18651
245 2 5.00902 6.01998 2.9346
264 2 8.92102 5.1853 4.06645
164 3 9.41352 3.40527 3.15007
168 3 9.57593 5.13591 1.03626
221 2 7.8383 4.53109 1.60544
222 2 6.70175 3.51154 2.75699
246 2 6.1325 4.97743 4.13802
223 2 5.91324 4.76567 1.45856
287 4 12.002 6.50661 3.09139
353 2 8.87996 4.35493 15.1709
123 3 4.30576 3.11231 8.85716
360 2 5.02541 -0.230497 16.2311
153 3 8.83525 0.569808 8.73338
336 2 1.81214 1.15046 14.1313
24 4 3.84456 1.90435 9.79728
158 3 8.83192 0.345224 14.326
27 4 6.58235 1.7606 11.542
335 2 1.97795 -0.432049 15.3231
334 1 2.33842 0.127866 14.358
154 3 7.68566 1.99603 10.4474
303 2 4.28157 4.58932 14.6587
96 3 1.06641 0.219516 11.8923
81 1 4.47955 5.22985 11.971
302 2 3.44932 3.32859 13.3688
301 2 5.3495 -0.383856 14.5438
120 3 5.82098 2.81101 16.3755
300 2 4.93192 1.3121 13.651
299 2 6.53028 1.07172 14.6407
116 3 3.81692 0.548971 8.81254
117 3 2.39348 2.00298 10.4366
121 3 5.08627 1.78547 11.0684
122 3 6.89775 0.286419 12.5073
226 2 5.49851 3.2886 13.3851
298 1 3.78447 3.56861 14.4957
337 2 3.48566 0.334182 14.3608
297 1 5.42487 0.782333 14.5661
296 4 4.59664 2.1959 15.6248
249 2 4.46695 4.20559 11.5192
56 4 9.57737 6.26151 11.3035
228 2 4.82326 5.94637 13.8217
160 3 8.56971 2.25897 16.2826
351 2 8.01456 5.98526 15.1077
45 4 9.15021 1.71778 9.80459
352 2 7.55815 4.71673 16.357
9 4 12.0916 6.18552 9.46247
48 4 9.55743 1.65881 15.0544
55 4 10.6356 4.08577 13.156
248 2 5.49106 5.40307 12.5317
225 2 7.42675 2.75805 13.6625
224 2 6.97065 3.9747 12.2395
180 3 9.58651 4.90129 12.2217
350 1 8.36836 5.17762 15.7641
177 3 11.3692 5.11998 14.1853
229 2 5.87891 5.75891 15.3803
175 3 9.68765 3.01798 14.0933
172 3 6.34915 4.91505 8.76875
179 3 8.2069 6.25612 10.1806
169 3 9.70195 3.05925 9.10769
73 1 6.64058 3.10521 12.8776
340 2 2.36655 2.35016 16.7302
171 3 11.5101 5.03457 8.53763
53 4 6.84113 6.29681 9.35518
339 2 2.95097 0.597356 16.8946
23 4 15.8629 13.012 7.70296
15 4 13.2496 8.81054 7.54633
17 4 11.9108 10.9746 5.845
362 2 11.2797 12.94 4.0332
35 4 14.4473 11.2459 3.92507
216 2 12.8796 13.1445 3.06998
187 3 8.83259 8.18228 6.15469
330 2 10.8286 9.33951 0.869183
329 2 12.2998 10.1081 2.06015
328 1 11.2994 10.3424 1.41575
106 3 10.4342 10.8749 4.79175
107 3 12.2063 9.65458 6.72608
108 3 11.3917 12.1959 6.7065
132 3 14.6135 12.6003 2.64005
133 3 13.1905 11.1919 4.89298
364 2 12.1989 7.08753 5.91535
326 2 10.0312 12.7013 2.7762
324 1 9.01364 12.0389 2.75158
1 4 10.6845 12.9695 7.89578
331 2 10.4736 10.9554 1.91037
289 1 11.841 7.41891 1.55076
332 1 12.1037 13.3259 0.276712
255 2 13.147 9.30558 3.32666
13 4 8.97145 10.8042 4.19018
270 2 10.6302 6.73942 7.01774
188 3 8.72001 9.46904 8.35767
325 2 8.80329 11.4998 1.7863
191 3 7.88145 11.3795 5.08907
327 2 8.07117 12.7165 3.08376
54 4 9.86796 7.36417 4.99435
57 4 7.73568 8.97885 1.77584
59 4 7.76876 8.69799 7.31032
265 2 8.30214 6.70249 3.02685
295 2 11.0135 8.17747 1.62417
90 1 5.87979 9.28215 1.88495
277 2 7.66325 11.0713 0.291142
91 1 8.34906 10.1448 0.307554
274 2 5.62615 8.12809 1.86869
174 3 11.0863 7.78456 4.01934
247 2 6.12863 6.88402 4.27257
365 2 9.46311 10.2793 0.745291
88 1 11.2259 6.51861 5.97255
181 3 7.95792 7.39168 1.48023
182 3 8.5063 9.50747 3.07633
193 3 6.5733 9.58436 6.6784
186 3 7.14592 7.37162 7.94724
254 2 14.0616 10.1789 1.6999
4 4 9.56133 12.5516 12.9393
14 4 12.5288 10.7806 16.8809
212 2 11.303 11.9379 15.5351
18 4 13.0336 8.36712 13.319
19 4 11.6919 10.5707 11.2574
211 2 11.6171 10.2946 14.404
135 3 14.1103 9.64506 8.54166
210 2 10.4345 10.1677 16.025
37 4 14.3592 10.9213 9.55752
26 4 15.8756 12.7788 13.3192
145 3 13.9438 10.3173 16.3306
144 3 14.8874 11.6217 14.0869
68 1 11.3373 10.7082 15.4623
137 3 12.9758 11.0984 10.4023
136 3 14.8403 12.204 8.77158
104 3 12.5704 7.41656 8.46183
105 3 9.82018 11.883 8.77446
109 3 11.8504 7.88063 14.4015
113 3 10.905 11.6057 12.2356
111 3 10.6264 9.89799 10.3098
112 3 12.3048 9.41916 12.2953
11 4 11.8665 6.32023 15.1106
356 2 7.78171 10.7511 13.3372
16 4 9.23804 10.5819 9.46447
366 2 8.99892 8.94548 16.2387
74 1 5.09677 6.41444 14.8793
284 2 7.67152 8.84551 12.4041
206 2 8.96114 10.9761 14.9015
89 1 9.40031 7.76284 12.5517
94 1 6.60487 9.42554 12.2814
167 3 10.6509 6.49313 16.2613
273 2 8.4333 7.39554 13.1288
272 2 10.3376 7.87596 13.2412
271 2 9.27986 8.68296 11.9202
173 3 5.68689 6.99978 10.2703
227 2 5.5044 7.4516 14.6898
178 3 10.9605 6.47342 10.5606
66 1 8.29776 11.4607 14.0884
198 3 7.82957 10.9403 10.1855
285 2 5.88456 8.75985 11.6973
152 3 14.4213 0.449198 8.34531
207 2 14.5792 6.16858 7.69961
204 2 15.6995 0.402429 6.0448
46 4 11.6782 1.97858 5.78999
65 1 15.4792 0.963434 5.03032
305 4 12.9869 0.179697 1.81518
355 2 14.3971 1.59627 5.03487
309 2 14.6579 1.4124 3.21301
85 1 12.9938 3.02907 4.88744
308 2 13.3785 2.53213 2.22034
307 3 11.9818 0.690048 0.714017
306 1 14.1253 1.65408 2.17046
149 3 8.81511 0.863973 2.71308
363 2 14.8809 1.914 1.32953
205 2 15.5771 0.217136 4.14942
155 3 10.3702 1.51862 4.77661
156 3 12.3821 0.631883 6.52645
262 2 12.4242 3.98272 4.64583
165 3 11.1665 3.10308 1.13135
166 3 11.3553 5.08753 2.94674
261 2 13.7429 3.04274 5.74775
170 3 11.0993 3.04835 6.84508
260 2 13.4139 2.47543 3.89213
3 4 16.6628 2.43917 4.72738
311 2 16.8536 1.01395 8.10317
240 2 18.2252 5.59625 3.85185
8 4 15.6587 4.06511 7.35488
208 2 13.3536 4.84609 7.04922
318 2 15.0159 5.75255 1.13759
64 1 16.6268 3.51207 3.15115
97 3 14.9089 3.05059 8.36767
67 1 14.3487 5.3497 6.90435
78 1 18.5828 5.14605 4.86911
292 2 13.6674 6.01297 4.72796
291 2 14.3537 5.6473 2.98683
288 1 13.8431 6.4109 3.64764
98 3 16.0658 3.50163 5.80317
241 2 18.0096 5.61633 5.72839
239 2 18.505 4.01988 4.92319
125 3 16.9542 4.8633 8.10903
201 2 15.7302 2.95196 2.76048
202 2 17.5192 3.4491 2.51496
203 2 16.316 4.52863 3.36776
344 2 19.0223 5.52516 1.20397
209 2 14.4894 5.70045 5.79549
319 2 13.5586 4.72192 0.386117
317 1 14.5521 5.22063 0.200236