ITEM: TIMESTEP
0
ITEM: NUMBER OF ATOMS
366
ITEM: BOX BOUNDS xy xz yz pp pp pp
-8.2538999999999998e+00 1.6741099999999999e+01 -8.2538999999999998e+00
-6.4910000000000001e-01 1.3422400000000000e+01 6.1619999999999997e-01
0.0000000000000000e+00 1.6908999999999999e+01 -6.4910000000000001e-01
ITEM: ATOMS id type q x y z
3 4 1.04845 0.749599 2.53725 4.7515
8 4 1.25193 -0.268124 4.12615 7.38832
361 2 0.174421 3.79125 0.210111 0.789359
21 4 1.19168 4.06846 2.06882 4.3792
216 2 0.281726 5.23884 -0.0438768 3.26624
312 2 0.224193 1.44301 0.651529 6.43002
338 1 -0.650029 2.69776 1.89883 0.332566
64 1 -0.675934 0.389807 3.51299 3.25573
65 1 -0.675483 -0.300365 0.843823 4.72323
67 1 -0.674392 -1.62236 5.30462 6.91031
70 1 -0.648046 4.21258 0.341418 3.51385
71 1 -0.669305 4.25101 3.27513 2.87394
78 1 -0.664477 2.68335 5.58658 5.05273
98 3 -0.784774 0.182344 3.275 6.08223
114 3 -0.751314 2.56953 2.11828 4.9398
239 2 0.15992 2.27685 6.52964 4.4098
118 3 -0.78898 5.36939 2.10102 5.24773
119 3 -0.812929 7.06696 0.468544 6.86449
220 2 0.165735 4.93484 4.25601 3.29671
125 3 -0.810142 1.24673 5.27073 7.62026
25 4 1.56011 6.81804 1.91896 6.18165
201 2 0.181556 -0.529041 4.29501 3.45635
202 2 0.1513 0.262563 2.82707 2.32964
203 2 0.151926 1.33507 4.11144 3.17898
290 2 0.158508 -1.40772 6.36583 4.30065
341 2 0.163116 3.25473 2.38239 1.29564
339 2 0.142859 2.24742 0.862993 0.51464
311 2 0.275203 0.556564 0.465143 7.94263
209 2 0.165742 -1.76365 5.41073 5.71722
115 3 -0.8373 6.90401 1.14873 1.23283
217 2 0.144382 3.60257 0.743831 2.58402
218 2 0.146788 3.23259 3.60121 2.45776
219 2 0.177869 4.8244 2.56211 2.18267
342 1 -0.647389 4.28935 5.76455 0.677617
344 2 0.18089 3.53802 4.92431 0.545478
241 2 0.183969 2.67203 4.64241 4.46767
358 2 0.141162 -1.13741 2.04999 0.519852
288 1 -0.664646 -2.05143 5.63986 3.72614
291 2 0.155063 -1.65274 5.40678 2.6242
292 2 0.162448 -2.25009 4.58384 4.25953
359 2 0.192781 -0.931403 4.084 0.193037
310 1 -0.670862 1.45711 0.864818 7.53688
240 2 0.277301 2.15034 5.42471 6.11829
313 2 0.22596 1.6065 1.95907 7.84305
317 1 -0.651678 -1.26032 5.10826 0.672616
318 2 0.145061 -0.485631 5.68341 1.2767
319 2 0.167877 -2.24022 4.95089 1.30111
207 2 0.157217 -1.04685 6.27828 7.28083
204 2 0.199773 0.390637 -0.0501574 4.55457
208 2 0.240452 -2.53531 5.07156 7.50994
126 3 -0.800596 5.0467 4.88624 6.65532
20 4 1.56358 7.99789 -0.0481703 1.90429
6 4 1.60247 1.2072 1.5671 10.988
120 3 -0.765064 5.83985 2.01541 16.4244
334 1 -0.675424 2.01453 0.068142 14.3535
10 4 1.62197 0.00952194 3.84632 13.0148
315 2 0.15846 0.892282 2.38166 16.4856
24 4 1.55944 4.02449 1.98382 9.73035
336 2 0.165857 2.61437 1.11235 14.1785
27 4 1.39968 6.76524 1.67216 11.861
299 2 0.239145 6.06347 -0.451071 15.2577
76 1 -0.66199 1.28473 5.20729 10.3996
81 1 -0.679038 4.6492 5.24267 11.5352
95 3 -0.863909 -0.0623328 1.32655 10.0923
96 3 -0.829371 1.58661 0.222332 11.8365
7 4 1.22145 -0.851382 6.02202 16.3553
99 3 -0.847503 -0.824699 3.06843 14.1602
100 3 -0.825889 0.734817 2.80431 12.0749
335 2 0.19313 0.881524 0.184314 14.2679
102 3 -0.817511 -2.63625 5.76237 10.208
103 3 -0.844825 -0.988952 4.84171 12.3048
116 3 -0.811635 3.94218 0.624618 8.7693
117 3 -0.889015 2.5135 2.22975 10.3089
121 3 -0.784553 5.21653 1.8645 10.9046
122 3 -0.835599 6.96598 0.420627 12.784
123 3 -0.810764 4.51701 3.23856 8.80251
127 3 -0.834556 1.36134 4.70478 13.6316
12 4 1.43292 -1.83432 6.07459 11.6203
233 2 0.268315 1.79778 4.20142 10.3907
234 2 0.196985 0.1478 5.10282 10.1316
235 2 0.197287 1.43914 5.8271 11.4054
249 2 0.237826 4.83097 4.34489 10.7173
316 2 0.160349 0.404039 0.62328 15.9142
296 4 0.933275 4.57853 1.5112 15.7262
297 1 -0.629188 4.93718 -0.157102 14.9346
298 1 -0.691079 3.73486 2.7669 14.2909
97 3 -0.793508 -0.951298 3.34677 8.66452
300 2 0.212604 4.85709 0.253377 13.8534
32 4 1.53585 1.63711 6.02796 14.4057
302 2 0.174106 4.04216 2.35408 13.317
303 2 0.19836 4.2849 3.68872 14.4734
304 2 0.221229 2.66156 2.87871 14.376
226 2 0.163175 5.57732 3.02878 13.5383
314 1 -0.683805 0.066314 1.63744 16.3228
30 4 1.1948 1.81894 6.07833 8.79003
250 2 0.199966 3.67029 5.08349 12.0804
340 2 0.145091 2.56033 1.97869 16.7232
128 3 -0.783809 3.07117 5.86265 15.5123
101 3 -0.827545 -2.43794 6.0597 15.9269
337 2 0.144204 2.4113 -0.455531 15.2841
332 1 -0.633837 -3.86885 12.6506 1.00593
15 4 1.34143 -2.98792 9.04523 7.59242
17 4 1.56422 -4.32561 11.1234 5.80397
293 2 0.173971 -2.95669 7.55564 1.53495
35 4 1.42889 -1.63035 11.3571 4.11044
244 2 0.166305 3.3279 7.65286 6.48333
69 1 -0.673583 -2.27953 8.16884 6.08704
82 1 -0.677898 1.74234 8.08731 3.22384
83 1 -0.68781 -1.89184 9.59773 3.23325
84 1 -0.671244 1.18089 9.48962 6.03294
106 3 -0.786944 -5.55332 10.975 4.6638
107 3 -0.855971 -4.02006 9.93827 6.84062
108 3 -0.784462 -4.79428 12.4634 6.60652
132 3 -0.822341 -1.40425 12.438 2.91722
133 3 -0.840883 -2.89747 11.4984 5.02224
134 3 -0.815748 1.08481 10.0632 1.22427
138 3 -0.84017 -0.265792 11.295 4.83323
213 2 0.183194 -2.2875 8.81309 5.09202
214 2 0.205579 -2.99305 7.30867 5.96145
215 2 0.156512 -1.24116 7.87058 6.37058
230 2 0.181439 0.968781 8.35223 7.71934
326 2 0.153408 -5.83754 13.1094 3.04575
331 2 0.25248 -5.45829 9.87731 1.80516
289 1 -0.662457 -3.98181 7.02737 1.83294
252 2 0.148606 1.90135 7.14054 2.59073
253 2 0.162361 0.685113 8.37562 3.51481
254 2 0.184626 -1.81072 9.95007 2.13009
255 2 0.166841 -2.9286 9.24177 3.54086
256 2 0.157378 -0.990688 9.01712 3.68775
1 4 1.41582 -5.38804 13.0877 8.09211
258 2 0.168384 1.38489 8.94306 4.99611
259 2 0.187238 0.0844386 9.32875 6.44389
330 2 0.209593 -4.52368 9.00526 0.503225
327 2 0.156827 -7.93082 13.2241 2.87623
360 2 0.2493 -2.75031 12.8372 0.884838
320 1 -0.667724 -1.16922 8.08651 0.756361
325 2 0.147151 -6.9343 11.9937 1.66746
322 2 0.149415 -1.44493 7.73266 1.84468
23 4 1.67299 -0.2277 13.1105 7.94612
324 1 -0.661368 -7.01062 12.5798 2.72751
321 2 0.270562 -0.203919 8.67052 0.734388
251 2 0.162236 2.5541 8.29436 3.94019
333 2 0.155437 -4.22573 11.9277 2.00367
328 1 -0.698986 -4.44632 9.83414 1.28538
329 2 0.171354 -3.48385 9.78008 1.99713
323 2 0.18606 -2.05655 8.695 0.254584
354 3 -0.853192 0.289045 12.6082 0.664388
135 3 -0.845083 -1.75124 9.67933 8.37598
362 2 0.225778 -4.63397 12.9865 4.19918
279 2 0.177129 2.52031 8.83996 8.41052
257 2 0.158271 2.05132 9.38388 6.86674
38 4 1.39897 1.10271 11.3195 5.66104
129 3 -0.820058 0.326317 6.21631 15.3744
28 4 1.13063 4.1899 6.48518 16.4993
238 2 0.199006 -0.76192 7.87633 10.0798
18 4 1.58087 -3.00202 8.39897 13.3972
19 4 1.61121 -4.21712 10.5438 11.3385
212 2 0.12655 -5.72104 11.7925 15.9958
26 4 1.62385 -0.0566612 12.8521 13.2934
211 2 0.208534 -4.77332 10.8674 14.5691
37 4 1.60594 -1.5861 10.8587 9.5887
39 4 1.56969 2.63519 8.53178 12.976
40 4 1.59897 -0.998766 10.1717 14.9558
41 4 1.60933 0.980666 10.8061 11.3054
68 1 -0.668265 -5.27207 10.8193 15.577
75 1 -0.679734 0.853845 7.76281 8.7018
77 1 -0.659981 -0.542852 7.45426 11.1941
301 2 0.180909 -4.14575 12.4219 15.1338
105 3 -0.839326 -6.34896 11.9867 8.85214
109 3 -0.847439 -3.98615 7.92687 14.5947
110 3 -0.833726 -2.71396 6.98319 12.5787
111 3 -0.862518 -5.62545 10.1314 10.6204
112 3 -0.867268 -3.58654 9.43674 12.2454
113 3 -0.808049 -4.6026 11.8412 12.3907
232 2 0.167591 -0.306478 7.56246 8.82155
231 2 0.194026 1.25592 8.35095 9.57961
237 2 0.19365 0.506221 7.03843 11.2265
14 4 0.962226 -3.64539 10.4778 16.8432
136 3 -0.84053 -1.12607 12.258 8.91581
137 3 -0.828185 -3.13898 11.0306 10.2897
140 3 -0.871874 1.77623 7.24786 13.3648
142 3 -0.852023 -1.58891 8.97644 14.0459
143 3 -0.856843 0.232397 9.81989 15.8532
144 3 -0.861541 -0.645772 11.5817 14.1662
145 3 -0.80316 -2.31132 10.4238 16.0179
146 3 -0.860551 -0.490308 10.3855 10.6158
147 3 -0.848791 1.60644 9.68107 12.1607
236 2 0.260634 -0.705979 8.28218 12.0154
4 4 1.21304 -6.02045 12.5424 12.7617
130 3 -0.791993 3.24008 6.35881 9.30355
104 3 -0.777859 -3.75084 7.61765 8.6572
36 4 1.58215 1.32538 10.5817 16.8603
22 4 1.34098 6.83107 2.48323 0.42459
42 4 1.56454 9.28236 1.84722 3.84133
305 4 1.14933 13.3051 0.0114998 1.72301
46 4 1.43422 11.8481 1.74013 5.85884
50 4 1.58923 10.3941 3.94321 1.99677
263 2 0.17749 7.75188 6.35068 4.92135
52 4 1.36836 10.5147 3.57667 8.04401
72 1 -0.675348 6.80472 3.93839 1.61207
85 1 -0.673387 13.358 2.82239 5.203
205 2 0.162979 15.0917 1.01407 3.78017
87 1 -0.688692 9.50506 4.04449 6.51344
124 3 -0.855714 6.73752 2.98766 7.4323
149 3 -0.830452 9.1218 0.557744 2.83842
150 3 -0.851818 7.98349 1.975 4.99791
270 2 0.21265 9.5193 6.23873 7.34743
155 3 -0.835514 10.6904 1.78812 4.6536
156 3 -0.824472 12.7224 0.490709 6.11182
164 3 -0.852046 9.30728 3.18087 2.92571
165 3 -0.855783 11.3213 2.95609 1.10589
166 3 -0.831807 11.2733 4.80888 3.12769
168 3 -0.865995 9.58144 4.97789 1.08018
170 3 -0.844926 11.3557 2.42327 7.20064
221 2 0.269767 7.84387 4.44018 1.47142
222 2 0.200391 6.66751 3.51739 2.62134
223 2 0.191236 5.86785 4.65475 1.30866
246 2 0.183771 6.1866 4.87865 3.82757
260 2 0.18191 12.7388 3.15218 4.25545
261 2 0.202235 14.2452 2.12187 5.04958
269 2 0.172 10.9845 5.45234 6.42997
245 2 0.125393 5.05938 6.31501 3.12827
264 2 0.217077 9.13619 5.21448 4.42898
355 2 0.231081 15.2679 0.846123 5.659
266 2 0.251852 8.97859 3.1126 5.93305
267 2 0.162717 10.1391 4.63217 5.78923
268 2 0.191799 8.73802 4.69676 7.09468
287 4 1.10626 12.0346 6.18497 3.41408
80 1 -0.670753 5.76188 5.91221 3.99751
306 1 -0.655377 14.0413 1.73864 2.2271
307 3 -0.769857 12.2964 0.529601 0.480956
308 2 0.190387 13.9193 2.55296 1.43441
309 2 0.184627 13.7952 2.13046 3.30238
152 3 -0.872193 14.4874 0.713485 8.21531
51 4 1.27504 9.22893 6.30186 0.244582
295 2 0.238816 11.9247 6.15916 1.1285
262 2 0.181643 13.5951 3.74445 5.90138
86 1 -0.682325 8.71203 6.22872 4.31737
44 4 1.56703 13.5578 -0.260817 7.3718
29 4 1.59248 5.68919 4.06169 7.92812
345 2 0.143991 4.53881 6.13471 1.82303
363 2 0.0967226 15.2159 1.25499 2.1265
31 4 0.966755 4.5264 5.90566 5.56732
2 4 1.59287 14.7526 1.80277 9.3711
5 4 1.35381 14.8059 1.89126 15.0556
350 1 -0.706196 8.64343 5.42058 15.6765
45 4 1.66597 9.26933 1.72176 9.93886
351 2 0.195044 9.28362 5.7493 14.8041
48 4 1.63404 9.77397 1.57277 15.1173
49 4 1.64731 12.1638 1.88595 11.4773
55 4 1.60393 10.8239 4.05614 13.4058
153 3 -0.870861 8.8414 0.67939 8.83101
228 2 0.152782 6.10182 6.04858 14.7923
151 3 -0.835482 13.4471 2.10116 15.9649
353 2 0.221781 8.59472 4.29388 15.726
154 3 -0.835981 8.04146 1.89691 10.9613
157 3 -0.80749 14.5205 0.263152 14.196
158 3 -0.843823 9.00389 0.453088 14.2434
159 3 -0.86848 11.1642 1.14093 15.7186
160 3 -0.836102 8.67139 2.04263 16.3772
161 3 -0.816556 13.4216 2.04329 10.4209
162 3 -0.790746 10.775 1.35373 10.7604
163 3 -0.846286 12.5415 0.829437 12.5718
169 3 -0.850093 9.56426 3.13308 9.19815
73 1 -0.658342 6.71523 3.12688 13.0854
172 3 -0.826533 6.37613 5.2188 8.94522
175 3 -0.859586 10.0038 2.90416 14.2015
176 3 -0.802764 11.7822 3.30419 12.3145
177 3 -0.817053 11.7395 5.08004 14.4262
47 4 1.64212 13.4898 -0.329842 13.1435
180 3 -0.818941 9.74756 4.9797 12.6333
224 2 0.189476 6.81135 4.04129 12.3577
225 2 0.23854 7.55012 3.15527 13.796
9 4 1.53753 12.0673 6.19654 9.59539
352 2 0.169004 7.66091 6.00458 15.6355
43 4 1.641 12.3259 1.3509 16.7356
248 2 0.158581 5.55891 5.53146 12.1614
171 3 -0.791712 11.5639 4.90822 8.5516
343 2 0.147551 5.89486 5.01223 16.8693
13 4 1.30421 9.08732 10.9532 3.73151
348 2 0.172465 5.98508 11.1362 1.33274
54 4 1.20228 9.92597 7.35487 5.32069
57 4 1.0362 7.68445 8.86179 1.60196
58 4 1.48847 3.85243 11.2945 3.87338
59 4 1.54578 8.04824 8.78826 7.37571
61 4 1.54943 6.42033 10.7829 5.76342
79 1 -0.665663 4.41269 7.73034 6.27546
131 3 -0.807689 3.14003 8.35235 0.576344
283 2 0.209648 4.25744 11.0261 0.165753
90 1 -0.658201 6.06877 8.67981 2.52418
349 2 0.164297 7.41744 12.3304 1.73378
347 2 0.160965 6.49786 12.5075 0.0303459
139 3 -0.796639 0.871477 12.054 7.11163
92 1 -0.669797 3.52286 9.48565 8.26365
174 3 -0.809325 11.3083 7.20248 4.5474
181 3 -0.751859 8.24246 7.39353 1.53716
182 3 -0.778205 9.06511 9.89962 2.57903
183 3 -0.828942 3.40068 10.1951 2.68504
184 3 -0.766957 4.52835 12.6251 3.02676
185 3 -0.775957 2.44305 11.6505 4.70216
186 3 -0.845895 7.72622 7.17015 7.89535
187 3 -0.768469 9.0315 8.56199 5.9139
189 3 -0.773116 4.02062 12.3644 8.28898
191 3 -0.809014 7.63573 10.9596 4.62436
192 3 -0.845604 4.99747 10.6814 5.01144
193 3 -0.832755 6.73149 9.46728 6.77181
194 3 -0.818829 6.34903 12.0639 6.77595
242 2 0.210939 4.60036 8.5315 5.48727
243 2 0.248433 5.11736 7.79307 7.15017
346 1 -0.670111 6.41853 12.1873 1.1076
34 4 1.3198 2.41141 9.30561 1.78154
364 2 0.268369 11.248 7.11149 7.48984
274 2 0.183501 5.88606 7.66843 3.08719
275 2 0.184884 5.29974 8.80524 1.65014
276 2 0.201731 6.14178 9.65623 3.18696
88 1 -0.661337 10.4859 6.47862 6.82011
278 2 0.195847 3.68314 9.93228 7.21463
247 2 0.170564 6.58982 6.71668 4.18281
265 2 0.261424 8.66 6.67373 3.23342
294 2 0.213026 11.2445 7.8221 2.103
16 4 1.58347 9.24241 10.6276 9.55264
33 4 1.20754 4.38631 6.8178 10.6188
53 4 1.53052 7.07274 6.58865 9.30318
60 4 1.38805 3.51744 11.1321 9.2503
62 4 1.40151 3.76536 10.7508 14.9523
63 4 1.37098 6.18269 11.0709 11.1708
179 3 -0.812713 8.24571 6.39813 10.5221
74 1 -0.66797 5.75645 7.00076 15.3322
89 1 -0.671371 9.49253 7.86079 12.5686
93 1 -0.671485 5.25914 10.1203 16.0189
94 1 -0.678137 6.07941 9.67411 12.4692
141 3 -0.820141 3.73138 7.9875 11.92
178 3 -0.829521 10.9773 6.53562 10.6687
366 2 0.168405 7.12807 9.30804 16.4234
173 3 -0.801447 5.82156 7.47897 9.92014
66 1 -0.688122 8.91255 11.1103 13.0266
188 3 -0.873617 8.82009 9.59837 8.46595
190 3 -0.782665 2.04042 11.1019 9.98403
195 3 -0.84853 3.31347 9.36997 14.1446
196 3 -0.832804 4.40326 11.8912 13.9372
197 3 -0.823273 2.6253 11.0152 16.0929
198 3 -0.796254 7.73544 10.9005 10.3158
199 3 -0.799263 4.83656 10.8979 10.3163
200 3 -0.826607 6.07201 12.4948 11.9172
227 2 0.18303 5.21985 7.66087 14.56
229 2 0.15378 6.61296 7.67448 15.7891
271 2 0.152412 8.37783 7.92727 12.7816
272 2 0.250467 9.87719 8.70033 11.8185
273 2 0.20285 10.0935 7.75162 13.5302
91 1 -0.684211 8.15312 8.83946 16.675
281 2 0.1625 6.05403 10.7775 15.6125
282 2 0.180597 5.43412 8.96158 15.8182
277 2 0.14992 9.02695 9.62836 16.4737
284 2 0.160252 7.10744 9.15203 12.1646
285 2 0.288689 5.16247 8.99148 12.1684
286 2 0.177984 6.09346 10.0906 13.496
148 3 -0.828346 0.782124 12.2492 12.0172
356 2 0.236671 8.51947 10.9631 11.9208
357 2 0.175732 8.15249 11.5976 13.6981
365 2 0.163226 8.4678 7.84922 16.2085
11 4 1.52684 12.2421 6.36338 15.3257
280 2 0.236036 4.44748 8.90602 8.7095
167 3 -0.832338 11.1647 6.36996 16.6379
206 2 0.171802 9.37679 10.1429 13.5109
210 2 0.162679 10.1155 9.91319 15.6329
56 4 1.35416 9.59523 6.28794 11.4871
ITEM: TIMESTEP
100
ITEM: NUMBER OF ATOMS
366
ITEM: BOX BOUNDS xy xz yz pp pp pp
-8.2538999999999998e+00 1.6741099999999999e+01 -8.2538999999999998e+00
-6.4910000000000001e-01 1.3422400000000000e+01 6.1619999999999997e-01
0.0000000000000000e+00 1.6875181999999999e+01 -6.4910000000000001e-01
ITEM: ATOMS id type q x y z
3 4 1.17526 0.929958 2.65986 4.79455
8 4 1.27679 -0.208964 4.17468 7.37003
361 2 0.16937 3.81175 0.273166 0.612426
21 4 1.18238 4.03465 1.97572 4.32213
20 4 1.54672 7.79871 0.0169238 1.87867
312 2 0.21394 1.36155 0.390135 6.17839
338 1 -0.662867 2.66227 1.93287 0.412328
64 1 -0.653665 0.393263 3.69299 3.33409
65 1 -0.677596 -0.0989734 0.972352 4.72187
67 1 -0.666909 -1.65356 5.31494 7.04181
70 1 -0.671391 4.14785 0.357206 3.36226
71 1 -0.662886 4.00712 3.39463 2.9457
78 1 -0.676284 2.69965 5.48711 5.01689
98 3 -0.807304 0.278833 3.35963 6.0186
114 3 -0.816697 2.45634 2.27687 4.66255
239 2 0.161049 2.29757 6.2715 4.33463
118 3 -0.787996 5.31678 1.94761 5.25549
119 3 -0.796896 6.99139 0.493506 6.9245
220 2 0.165646 4.67735 4.33032 3.34024
125 3 -0.794731 1.25658 5.25948 7.7582
25 4 1.50931 6.84396 1.93636 6.18078
201 2 0.182154 -0.558843 4.40414 3.61094
202 2 0.142287 0.153377 2.74984 2.65097
203 2 0.157682 1.30382 4.29658 3.03139
290 2 0.154503 -1.57618 6.4402 4.46065
341 2 0.154118 3.17698 2.44042 1.39708
339 2 0.158184 2.06733 1.02717 0.695991
311 2 0.241737 0.374847 0.312502 7.82563
209 2 0.153612 -1.82733 5.49213 5.8231
115 3 -0.864525 6.84224 1.27841 1.34275
217 2 0.148384 3.61225 0.664155 2.28267
218 2 0.167135 2.9494 3.56309 2.64262
219 2 0.162384 4.61035 2.72425 2.25173
342 1 -0.657209 4.20517 5.87498 0.747549
344 2 0.1745 3.57716 4.94453 0.64542
241 2 0.216722 2.76411 4.53565 4.53842
216 2 0.288227 5.14542 -0.117204 3.22081
288 1 -0.673664 -2.13828 5.66363 3.81769
291 2 0.141288 -1.64182 5.47813 2.69154
292 2 0.154639 -2.26482 4.56039 4.32342
359 2 0.187205 -1.012 3.84103 0.261636
310 1 -0.686845 1.31307 0.64229 7.28345
240 2 0.261832 2.09081 5.39324 6.01795
313 2 0.227517 1.48326 1.71959 7.38888
317 1 -0.641343 -1.28115 4.94658 0.768064
318 2 0.153221 -0.520661 5.29515 1.46618
319 2 0.172294 -2.27619 4.86757 1.25657
207 2 0.148961 -1.08927 6.27675 7.57574
204 2 0.192367 0.491007 0.0178045 4.60443
208 2 0.256603 -2.61734 4.99267 7.6508
23 4 1.64275 8.06199 -0.298782 7.91873
345 2 0.166216 4.24519 6.18512 1.81515
6 4 1.61548 1.21931 1.69904 10.8739
120 3 -0.781857 5.98912 2.02421 16.3565
334 1 -0.676985 1.84645 0.128138 14.2456
10 4 1.5146 0.184587 3.9005 13.0856
315 2 0.169873 0.74415 2.21269 16.4271
24 4 1.53951 4.16361 1.9733 9.65175
336 2 0.161526 2.57386 1.12749 14.2276
27 4 1.398 6.77934 1.576 11.9154
299 2 0.256393 5.94194 -0.330145 15.037
76 1 -0.682328 1.16504 5.11581 10.3109
81 1 -0.684787 4.65015 5.26961 11.4932
95 3 -0.844859 -0.0604916 1.39878 9.94851
96 3 -0.799903 1.72807 0.309134 11.515
7 4 1.19571 -0.852989 5.9789 16.4741
99 3 -0.772065 -0.595573 2.9565 14.3306
100 3 -0.790842 0.588895 2.54641 12.0451
335 2 0.235896 0.726008 0.337651 14.1938
102 3 -0.848161 -2.52238 5.79595 10.1906
103 3 -0.845522 -0.863009 4.86864 12.2948
116 3 -0.810411 3.86655 0.667581 8.78447
117 3 -0.84044 2.54873 2.41855 10.3015
121 3 -0.789032 5.26023 1.81896 10.9052
122 3 -0.807368 6.84926 0.27881 12.762
123 3 -0.851496 4.56082 3.18839 8.6555
127 3 -0.854349 1.60791 4.59844 13.471
12 4 1.43419 -1.79444 6.01838 11.6515
233 2 0.270819 1.78236 4.11156 10.3712
234 2 0.213248 0.144304 4.94341 9.93252
235 2 0.179202 1.23856 5.70021 11.3105
249 2 0.223297 5.08316 4.50584 10.7004
316 2 0.166642 0.400298 0.332836 16.068
296 4 0.913372 4.5869 1.5767 15.7797
297 1 -0.640131 4.87634 -0.0733328 14.901
298 1 -0.657492 3.74533 2.80125 14.3834
97 3 -0.824494 -0.82208 3.17453 8.46972
300 2 0.213373 4.59486 0.293537 13.8333
32 4 1.48002 1.7138 5.94478 14.435
302 2 0.173074 3.8865 2.30419 13.3396
303 2 0.193108 4.21624 3.87327 14.4843
304 2 0.20641 2.6282 2.87115 14.6224
226 2 0.172785 5.60052 2.91839 13.6613
314 1 -0.668694 0.00952782 1.35808 16.4478
30 4 1.14347 1.7505 6.1965 8.91366
250 2 0.204677 3.60915 5.02667 11.9135
340 2 0.140253 2.61341 2.11855 16.8296
128 3 -0.784965 2.98694 5.87074 15.472
101 3 -0.79508 -2.39701 6.06267 15.9386
129 3 -0.800048 0.335868 5.89515 15.4943
332 1 -0.661427 -3.76255 12.7176 0.836827
15 4 1.33699 -3.05106 9.01051 7.55855
17 4 1.5555 -4.48707 11.2555 5.82313
293 2 0.179871 -3.08812 7.53098 1.43258
35 4 1.40015 -1.6777 11.3348 4.19253
257 2 0.149364 2.13703 9.26166 6.67649
69 1 -0.665859 -2.12494 8.08791 6.23913
82 1 -0.681467 1.69259 8.00872 3.01769
83 1 -0.685339 -2.09499 9.61199 3.33519
84 1 -0.657159 1.2027 9.36948 5.97712
106 3 -0.826382 -5.70064 10.9791 4.6287
107 3 -0.821109 -4.16132 9.9772 6.83913
108 3 -0.819135 -4.86402 12.5216 6.63602
132 3 -0.805523 -1.49142 12.442 2.94998
133 3 -0.811123 -3.06716 11.6135 4.96773
134 3 -0.803088 1.29607 10.3019 1.13444
138 3 -0.861128 -0.326403 11.1391 4.90372
213 2 0.174267 -2.1327 8.71536 5.19413
214 2 0.184327 -2.79784 7.16597 6.06508
215 2 0.164879 -1.11582 7.74597 6.69299
230 2 0.167353 1.04014 8.49524 7.80513
326 2 0.17874 -5.86528 12.9567 2.81619
331 2 0.23366 -5.75064 9.73975 1.64507
289 1 -0.66902 -4.03973 6.95504 1.74903
252 2 0.161007 1.6681 7.08696 2.31123
253 2 0.146405 0.600977 8.42258 3.24933
254 2 0.181701 -2.05386 10.0002 2.26174
255 2 0.186349 -3.14041 9.21801 3.66498
256 2 0.158717 -1.23497 8.94675 3.6314
1 4 1.43133 -5.51075 13.0794 8.09502
258 2 0.166272 1.33373 8.89187 4.8016
259 2 0.186939 0.234231 9.12614 6.45988
330 2 0.221846 -4.52459 8.97014 0.312969
327 2 0.159166 -7.71174 13.2533 2.88541
360 2 0.25798 -2.69278 12.9603 0.659028
320 1 -0.68062 -1.35178 8.19559 0.646385
325 2 0.164855 -6.91161 11.9742 1.64366
322 2 0.134621 -1.17456 7.71918 1.7016
38 4 1.43371 1.05815 11.2877 5.6894
324 1 -0.691719 -6.87957 12.5403 2.61042
321 2 0.253554 -0.42177 8.72194 0.270188
251 2 0.14579 2.42802 7.98015 3.9141
333 2 0.169883 -3.92128 12.2658 1.89974
328 1 -0.675 -4.63897 9.66738 1.24263
329 2 0.175453 -3.78359 9.50106 2.00247
323 2 0.189971 -2.32374 8.7461 0.507834
354 3 -0.842603 -0.152536 12.5263 0.603275
135 3 -0.84804 -1.85457 9.74449 8.33963
362 2 0.213585 -4.71326 13.0974 4.03391
244 2 0.129157 3.23311 7.60845 6.26505
279 2 0.182861 2.60571 8.89648 8.38873
36 4 1.58305 1.37296 10.657 16.8312
28 4 1.11037 4.18683 6.52412 16.4937
238 2 0.191308 -0.942526 7.92097 10.3468
18 4 1.52569 -3.00529 8.28063 13.4454
19 4 1.60123 -4.25526 10.5375 11.2914
212 2 0.130487 -5.60632 11.7982 15.8814
26 4 1.62623 -0.0666721 12.7451 13.3658
211 2 0.224139 -4.81362 10.6265 14.6183
37 4 1.59849 -1.68313 10.8458 9.5463
39 4 1.57271 2.62523 8.60862 12.8847
40 4 1.625 -0.932116 10.1395 14.9321
41 4 1.62273 1.03766 10.8802 11.2343
68 1 -0.669393 -5.15099 10.7876 15.6696
75 1 -0.669707 0.884347 7.90904 8.83376
77 1 -0.651871 -0.490754 7.40928 11.305
301 2 0.193315 -4.12654 12.5076 15.1689
105 3 -0.846615 -6.16611 11.9259 8.97101
109 3 -0.835167 -4.12196 7.83762 14.5052
110 3 -0.869955 -2.57863 6.91941 12.7066
111 3 -0.874112 -5.64589 10.0848 10.6579
112 3 -0.808414 -3.83125 9.39611 12.3357
113 3 -0.769962 -4.61554 11.9307 12.4148
232 2 0.168685 -0.295552 7.74308 9.08048
231 2 0.200933 1.41622 8.43463 9.70727
237 2 0.164788 0.602165 6.94581 11.1501
14 4 0.95509 -3.58038 10.5026 16.8711
136 3 -0.824801 -1.16193 12.2325 8.87288
137 3 -0.857791 -3.14366 10.9769 10.2849
140 3 -0.827561 1.82239 7.42624 13.6517
142 3 -0.832934 -1.50464 9.03498 13.9281
143 3 -0.83026 0.359065 9.78965 15.8136
144 3 -0.877889 -0.644667 11.5347 14.2043
145 3 -0.790923 -2.28361 10.3411 15.9695
146 3 -0.817676 -0.48577 10.4493 10.6618
147 3 -0.85076 1.52666 9.7048 12.1538
236 2 0.279797 -0.581534 8.06458 12.2593
4 4 1.19951 -6.04108 12.61 12.6123
130 3 -0.810144 3.27645 6.7146 9.38711
104 3 -0.804082 -3.6341 7.61876 8.63741
337 2 0.144954 -6.16734 12.8069 15.0351
22 4 1.37921 6.7825 2.51307 0.396442
42 4 1.53191 9.43419 1.84411 3.79032
343 2 0.137912 5.3081 5.85566 0.170938
46 4 1.39517 11.9795 1.6117 5.77732
50 4 1.48919 10.1877 3.90191 1.95617
263 2 0.166442 7.84594 6.45564 5.02737
52 4 1.36548 10.6594 3.58757 8.06147
72 1 -0.662197 6.63562 3.90524 1.71683
85 1 -0.664327 13.4209 2.77963 5.26732
205 2 0.168087 15.3006 1.16709 3.87822
87 1 -0.664694 9.44759 4.07859 6.72843
124 3 -0.841002 6.95666 3.18209 7.12915
149 3 -0.808244 9.07896 0.577342 2.71253
150 3 -0.794229 8.26882 1.87989 5.15211
270 2 0.203978 9.74882 6.07899 7.4469
155 3 -0.82687 10.8712 1.6808 4.50053
156 3 -0.80424 12.7495 0.318704 6.0423
164 3 -0.842523 9.09282 3.26408 3.0534
165 3 -0.863094 11.0114 2.75017 1.22417
166 3 -0.792657 11.266 4.8156 3.10116
168 3 -0.850908 9.55245 4.94329 0.783751
170 3 -0.8034 11.3894 2.44444 7.23033
221 2 0.243221 7.60213 4.4828 1.66286
222 2 0.200458 6.49691 3.37019 2.70659
223 2 0.186959 5.70684 4.56245 1.42887
246 2 0.186581 6.26297 4.78493 3.77932
260 2 0.17492 12.9059 3.17081 4.31282
261 2 0.198677 14.3537 2.09998 5.09708
269 2 0.153907 11.136 5.4479 6.39128
245 2 0.139564 5.21915 6.21238 3.11067
264 2 0.21222 9.31759 5.29336 4.37686
355 2 0.217187 15.4957 0.85432 5.76121
266 2 0.280098 9.07571 3.12744 6.10716
267 2 0.141599 10.1398 4.69042 6.01227
268 2 0.230079 8.55509 4.71757 7.04847
287 4 1.0824 12.1341 6.16648 3.41905
80 1 -0.666748 5.85469 5.84363 3.99234
306 1 -0.661394 14.0472 1.55473 2.35329
307 3 -0.77543 12.1869 0.433024 0.696063
308 2 0.185606 13.7657 2.26727 1.51239
309 2 0.181467 13.8443 2.00579 3.42258
152 3 -0.808369 14.0558 0.903952 8.21207
51 4 1.29222 9.24371 6.37161 0.172494
295 2 0.227448 11.8546 6.13834 1.02076
262 2 0.181599 13.704 3.77329 5.95023
86 1 -0.677677 8.85501 6.33755 4.35915
126 3 -0.752823 4.98208 5.17069 6.80843
88 1 -0.654832 10.6287 6.42366 6.85699
358 2 0.14763 14.931 1.88569 0.629416
363 2 0.116875 15.1437 1.09002 2.15028
31 4 0.948925 4.56302 6.0428 5.5299
29 4 1.51753 5.72205 4.07005 7.99517
2 4 1.60956 14.6771 1.94076 9.3353
5 4 1.3137 14.8064 1.70729 15.1271
350 1 -0.704034 8.69841 5.6662 15.6422
45 4 1.61995 9.3621 1.79418 10.0219
248 2 0.16595 5.38837 5.44929 12.3069
48 4 1.61754 9.82645 1.60786 15.087
49 4 1.65544 12.1125 2.03284 11.5986
55 4 1.62494 10.8485 4.17771 13.3623
153 3 -0.816813 9.03435 0.628218 8.83412
228 2 0.148657 6.00188 5.98811 14.7621
151 3 -0.844801 13.3297 2.04037 16.159
353 2 0.224604 8.73307 4.55393 15.4549
154 3 -0.829007 8.12618 1.80175 11.0981
157 3 -0.827635 14.7708 0.403954 14.1738
158 3 -0.819253 9.1055 0.430707 14.2265
159 3 -0.866276 10.9768 1.03667 15.9369
160 3 -0.801205 8.57067 2.11382 16.2693
161 3 -0.786255 13.4407 2.16044 10.4097
162 3 -0.827 10.7489 1.57488 10.8676
163 3 -0.868852 12.5403 0.999745 12.6944
169 3 -0.817928 9.70713 3.24531 9.28863
73 1 -0.663395 6.71896 2.9608 13.1589
172 3 -0.859737 6.56096 4.98161 9.02202
175 3 -0.860613 10.0857 2.93366 14.1515
176 3 -0.817282 11.9625 3.46973 12.284
177 3 -0.912302 11.5495 5.07584 14.4175
47 4 1.58077 13.4895 -0.233025 13.1694
180 3 -0.836038 9.74695 5.07047 12.517
224 2 0.188166 6.77173 3.90759 12.5633
225 2 0.233912 7.56628 2.87621 13.9423
9 4 1.56472 12.1975 6.20941 9.54008
171 3 -0.798333 11.7591 4.99791 8.53836
43 4 1.62782 12.2079 1.30875 16.8891
352 2 0.168056 7.65572 6.10136 15.4896
13 4 1.3554 9.0758 10.9868 3.77612
348 2 0.16647 5.90978 11.127 1.16869
54 4 1.19548 10.0854 7.35857 5.29822
57 4 1.08401 7.80474 8.81091 1.66699
58 4 1.55371 3.75749 11.3294 3.93832
59 4 1.58584 8.01877 8.69194 7.27745
61 4 1.53751 6.43545 10.7354 5.73316
79 1 -0.6504 4.54412 7.76171 6.15601
131 3 -0.771642 3.19482 8.29346 0.666299
283 2 0.193397 4.3421 10.9523 0.0451093
90 1 -0.661039 6.20812 8.70488 2.5789
349 2 0.177497 7.36669 12.2134 1.79371
265 2 0.275588 8.65534 6.70271 3.253
139 3 -0.816786 0.834105 12.2876 7.01281
92 1 -0.65938 3.60658 9.50924 8.17254
174 3 -0.813408 11.4276 7.32629 4.45302
181 3 -0.764102 8.31351 7.27214 1.67431
182 3 -0.81065 8.7752 9.91148 2.6037
183 3 -0.831691 3.46782 10.1726 2.73494
184 3 -0.816016 4.1953 12.6057 3.0845
185 3 -0.836318 2.37518 11.4377 4.87243
186 3 -0.847561 7.46537 7.31517 8.00131
187 3 -0.818612 9.0609 8.34954 6.15024
189 3 -0.828372 3.97362 12.3398 8.28497
191 3 -0.821201 7.7047 11.1177 4.65975
192 3 -0.857062 5.05701 10.6928 4.8564
193 3 -0.855852 6.66334 9.49736 6.65682
194 3 -0.830038 6.35327 11.9967 6.88366
242 2 0.242821 4.8166 8.80135 5.69829
243 2 0.247789 5.07478 7.55825 7.13606
346 1 -0.683106 6.37187 12.2073 1.17905
188 3 -0.805881 8.88565 9.54775 8.36372
364 2 0.272191 11.3501 7.05236 7.48469
274 2 0.184756 6.04807 7.71705 3.18543
275 2 0.175995 5.54393 8.77516 1.60033
276 2 0.237402 6.06471 9.5603 3.20454
294 2 0.236439 11.1716 7.61126 1.91286
278 2 0.182678 3.63988 9.89957 7.11657
247 2 0.166952 6.6939 6.58779 4.31407
44 4 1.56449 5.19006 12.968 7.43336
305 4 1.22029 4.85778 13.2882 1.8646
347 2 0.162961 6.53547 12.5867 0.165429
34 4 1.30564 2.45851 9.3261 1.92443
280 2 0.243027 4.57097 8.85418 8.42456
16 4 1.59361 9.3261 10.5533 9.59559
33 4 1.29023 4.36611 6.89261 10.5935
53 4 1.55523 7.10287 6.43211 9.34389
60 4 1.4241 3.53378 11.1092 9.23536
62 4 1.38685 3.87663 10.7469 14.819
63 4 1.34465 6.14077 11.0704 10.9852
179 3 -0.798966 8.2347 6.35309 10.4826
74 1 -0.676267 5.7159 7.00455 15.2141
89 1 -0.683587 9.31323 7.773 12.7331
93 1 -0.66996 5.34261 10.1281 15.8756
94 1 -0.643226 5.97477 9.75257 12.2954
141 3 -0.840999 3.62192 7.97372 11.8485
178 3 -0.806279 10.9974 6.45308 10.5653
366 2 0.165978 7.14162 9.19099 16.331
173 3 -0.787526 5.85193 7.37934 10.108
66 1 -0.715267 8.95171 11.1386 12.8715
56 4 1.36488 9.60108 6.34138 11.5361
190 3 -0.84407 2.06986 11.0923 10.0221
195 3 -0.831416 3.62287 9.35421 13.9085
196 3 -0.838733 4.48862 11.992 13.9832
197 3 -0.810499 2.59181 11.0389 15.8666
198 3 -0.811065 7.84629 10.8011 10.2088
199 3 -0.836169 4.83329 10.7592 10.1536
200 3 -0.825562 5.90609 12.379 11.9396
227 2 0.211792 5.07575 7.58037 14.5214
229 2 0.154816 6.56604 7.65849 15.7694
271 2 0.158671 8.32151 7.44566 13.2608
272 2 0.208325 9.18983 8.67159 12.0384
273 2 0.237358 10.2507 7.86104 13.4186
91 1 -0.677452 8.11944 8.64374 16.6408
281 2 0.161872 6.18269 10.8229 15.5698
282 2 0.17995 5.52879 8.97014 15.6361
277 2 0.152171 9.04596 9.29644 16.4188
284 2 0.174152 6.93063 9.11616 12.0327
285 2 0.302133 5.00975 9.04936 12.023
286 2 0.201683 6.01364 10.1671 13.3164
148 3 -0.821904 0.807292 12.2666 12.1275
356 2 0.245696 8.63556 10.8212 11.8484
357 2 0.18333 8.20205 11.7516 13.4104
365 2 0.169274 8.29422 7.54814 16.1444
11 4 1.47265 12.1195 6.2595 15.2593
351 2 0.184244 9.37627 6.20974 14.8221
167 3 -0.832149 11.0569 6.59465 16.6287
206 2 0.188514 9.4845 10.3504 13.4319
210 2 0.152993 10.1974 9.96214 15.9726
ITEM: TIMESTEP
200
ITEM: NUMBER OF ATOMS
366
ITEM: BOX BOUNDS xy xz yz pp pp pp
-8.2538999999999998e+00 1.6741099999999999e+01 -8.2538999999999998e+00
-6.4910000000000001e-01 1.3422400000000000e+01 6.1619999999999997e-01
0.0000000000000000e+00 1.6841363999999999e+01 -6.4910000000000001e-01
ITEM: ATOMS id type q x y z
3 4 1.05748 0.864962 2.6982 4.8049
8 4 1.25979 -0.304207 4.24281 7.4481
361 2 0.179115 3.92931 0.273524 0.630426
21 4 1.18944 4.11539 2.08826 4.4325
20 4 1.5676 7.68309 -0.0671371 1.90736
312 2 0.198555 1.23477 0.634236 6.40121
338 1 -0.640759 2.72378 1.85683 0.376081
64 1 -0.632346 0.476947 3.81283 3.30445
65 1 -0.698622 -0.232125 1.0342 4.79506
67 1 -0.664416 -1.74664 5.38998 7.06012
70 1 -0.675311 3.84053 0.449364 3.36956