ITEM: TIMESTEP
0
ITEM: NUMBER OF ATOMS
366
ITEM: BOX BOUNDS xy xz yz pp pp pp
-8.2538999999999998e+00 1.6741099999999999e+01 -8.2538999999999998e+00
-6.4910000000000001e-01 1.3422400000000000e+01 6.1619999999999997e-01
0.0000000000000000e+00 1.6908999999999999e+01 -6.4910000000000001e-01
ITEM: ATOMS id type x y z
3 4 0.727035 2.46681 4.71405
8 4 -0.392596 4.11215 7.37765
20 4 7.64848 0.0570593 1.75609
21 4 3.85397 1.76323 4.26858
25 4 6.57914 1.69481 6.09231
29 4 5.32787 3.74867 7.89618
31 4 4.17067 5.75355 5.62954
64 1 0.650239 3.56917 3.21945
97 3 -1.20934 3.0131 8.41952
67 1 -1.71031 5.275 6.79784
70 1 3.81499 0.243524 3.15258
71 1 3.87595 3.12822 2.89914
78 1 2.31989 5.64622 5.15749
98 3 0.173903 3.41779 5.98979
114 3 2.34957 1.81439 4.81215
115 3 6.9733 1.26081 0.944684
118 3 5.20523 1.73688 5.15566
119 3 6.90045 0.171009 6.62745
343 2 4.49695 4.79467 0.397108
125 3 0.894509 5.07308 8.14672
126 3 4.6546 4.65226 6.59852
201 2 -0.290687 2.93433 2.74019
202 2 1.44879 3.79603 2.40462
203 2 0.239783 4.50718 3.66578
317 1 -1.55496 5.10356 0.253166
207 2 -1.59404 6.01968 7.72278
342 1 3.94228 5.69357 0.766964
319 2 -2.54511 4.57349 0.247705
209 2 -1.53512 5.82903 5.80166
344 2 2.8195 5.42321 1.05141
217 2 3.12973 0.499971 2.32498
218 2 2.7944 3.38689 2.56415
219 2 4.47312 2.62916 2.05301
220 2 4.44487 4.11083 3.35257
239 2 2.55655 5.34378 4.04364
241 2 1.869 4.75743 5.75574
312 2 0.699054 0.291425 6.65646
288 1 -2.52518 6.40537 3.74318
291 2 -2.18204 5.42239 3.19137
292 2 -2.50006 6.11098 4.86548
361 2 3.23797 0.206699 0.918097
310 1 1.33555 0.680119 7.56838
341 2 3.19488 2.59645 1.06454
313 2 1.90317 1.64355 7.32766
318 2 -1.24641 5.44649 1.27767
208 2 -2.65678 4.64285 6.84998
6 4 0.960092 1.62051 11.1447
123 3 4.11368 3.03231 8.87041
360 2 5.16755 -0.22772 16.3999
10 4 -0.117419 3.75307 13.2086
12 4 -1.8268 6.24026 11.5759
24 4 3.866 1.85325 9.85269
340 2 2.43294 2.44916 16.6126
27 4 6.72437 1.62785 11.4028
30 4 1.8255 5.9438 9.06231
76 1 1.37803 5.07702 10.6842
250 2 3.76503 5.56735 12.8089
95 3 -0.251999 1.48012 10.0819
96 3 1.13851 0.169817 11.7749
81 1 4.46879 5.37089 11.9091
99 3 -0.979586 3.03662 14.3572
100 3 0.424101 2.62037 12.2253
120 3 5.89603 2.7272 16.5684
102 3 -2.5231 5.77339 10.196
103 3 -1.09996 4.89383 12.4087
116 3 3.76771 0.445955 9.02261
117 3 2.36523 1.96562 10.5617
121 3 5.17773 1.90765 10.7922
122 3 6.83019 0.173169 12.269
226 2 5.88857 3.31133 13.2167
127 3 1.2899 4.4384 13.909
337 2 3.6064 0.273868 14.258
233 2 1.92902 4.14712 10.8858
234 2 0.253143 4.82487 10.6147
235 2 1.56342 5.87109 11.5557
249 2 4.01442 4.56526 11.3028
359 2 -0.189818 3.84375 16.6986
296 4 4.79025 2.25355 15.6226
297 1 5.58864 0.713556 14.7319
298 1 4.18816 3.54054 14.28
299 2 6.61918 0.553653 15.1274
300 2 5.65423 1.32882 13.7538
301 2 5.13365 -0.288726 14.4775
302 2 3.96361 3.30656 13.1829
303 2 4.66843 4.56686 14.4614
304 2 3.15643 3.62489 14.9279
32 4 1.39846 6.03643 14.4076
314 1 -0.00448583 1.07777 16.0478
315 2 0.968447 0.877104 15.3615
334 1 2.49232 0.297211 14.2018
335 2 1.97029 -0.341118 15.0875
336 2 2.08453 1.37422 14.0703
130 3 3.33535 6.27762 9.18618
339 2 3.13035 0.567212 16.6705
358 2 0.170065 1.94554 16.7919
338 1 3.33682 1.70983 16.8221
7 4 -1.22761 6.08644 16.1342
311 2 0.693851 0.808382 8.51295
23 4 -0.262374 13.0002 7.74108
15 4 -3.02998 8.91658 7.67143
17 4 -4.38707 11.0642 6.00599
362 2 -5.02891 13.0167 3.99873
35 4 -1.58357 11.4322 3.90002
216 2 -3.34559 13.2018 2.89031
69 1 -1.9924 8.41659 6.14538
82 1 1.73907 8.31423 2.88826
83 1 -1.9125 9.80327 2.90192
84 1 1.55157 9.50514 5.86877
106 3 -5.76548 10.8504 4.89239
107 3 -4.16108 9.88838 7.09338
108 3 -4.81591 12.4819 6.65878
132 3 -1.66495 12.5852 2.70542
133 3 -2.99918 11.2708 4.96776
134 3 1.26465 9.98747 0.670742
138 3 -0.130052 11.2271 4.53042
213 2 -1.60165 9.3664 5.68055
214 2 -2.34486 7.74101 5.29868
215 2 -1.14899 7.90137 6.75185
230 2 1.21517 8.05362 7.71041
332 1 -3.98722 13.3044 0.481155
321 2 -0.311362 8.56498 0.234721
251 2 1.67267 8.7713 3.99537
252 2 2.38832 7.34955 2.87615
253 2 0.671983 8.19768 2.36992
254 2 -1.95328 10.182 1.78398
255 2 -2.81345 9.29627 3.3518
256 2 -0.96159 9.29719 3.18781
289 1 -4.29009 7.49956 1.47397
258 2 0.743926 8.9792 5.22243
259 2 1.13531 9.63117 6.96117
331 2 -5.53615 11.1585 2.07664
290 2 -1.90297 7.28718 3.44182
294 2 -3.30416 8.04289 1.18783
320 1 -1.36799 8.19296 0.484179
333 2 -3.10735 13.3697 1.24147
322 2 -1.53609 7.88661 1.53563
1 4 -5.43381 12.9803 8.11559
324 1 -7.19875 12.0779 2.85295
354 3 0.144493 12.4838 0.623014
326 2 -6.20217 12.6534 2.80496
240 2 1.76467 6.60408 5.34349
328 1 -4.73121 10.5219 1.49119
329 2 -3.71661 10.2784 2.11369
330 2 -5.19283 9.56547 1.00683
244 2 3.38981 7.72605 7.06642
139 3 0.743824 11.9712 6.81103
323 2 -2.04858 9.01255 0.143843
104 3 -3.61186 7.47494 8.43787
4 4 -6.54315 12.5689 12.8629
14 4 -3.53214 10.9017 16.8345
238 2 -0.736589 8.06927 10.1012
18 4 -3.12514 8.54714 13.2301
19 4 -4.3516 10.5896 11.1848
28 4 4.00581 6.31193 16.3824
135 3 -1.90867 9.81955 8.55871
36 4 1.50994 10.6218 16.5737
37 4 -1.63935 10.9887 9.72552
39 4 2.52933 8.36058 12.67
40 4 -1.0743 10.338 14.994
41 4 0.9438 10.7155 11.456
68 1 -4.8078 10.6972 15.4471
75 1 0.957105 7.70087 8.77357
77 1 -0.463845 7.5493 11.104
232 2 -0.158416 7.6748 8.83562
105 3 -6.37708 11.8615 8.80873
109 3 -4.43704 7.95063 14.3256
110 3 -2.61087 7.14457 12.5705
111 3 -5.57243 9.83775 10.3654
112 3 -3.67332 9.58719 12.2436
113 3 -5.22551 11.6912 12.2811
236 2 -0.624285 8.23241 11.9833
128 3 2.53253 6.13326 15.6672
237 2 0.504696 6.99432 11.0931
231 2 1.3272 8.37997 9.54692
136 3 -1.05162 12.2144 8.86992
137 3 -3.13513 11.2393 10.3713
140 3 1.82907 7.06755 13.1761
142 3 -1.75709 9.24875 13.9493
143 3 0.406812 10.0707 15.4808
144 3 -0.99771 11.7471 14.2682
145 3 -2.12718 10.3662 16.3373
146 3 -0.493591 10.4425 10.776
147 3 1.38339 9.35497 12.1433
26 4 -0.210195 12.783 13.3071
210 2 -5.68483 10.1725 16.0311
211 2 -4.5497 10.388 14.3965
212 2 -4.91685 11.8811 15.5025
101 3 -2.77849 6.19255 15.8518
129 3 -0.0415735 6.30518 15.1458
148 3 0.826541 11.9466 12.4683
279 2 2.56436 8.85545 8.53287
22 4 6.9558 2.78013 0.460241
42 4 9.07097 1.92028 3.86623
269 2 10.6525 5.56482 5.90155
46 4 11.5195 1.9624 5.74472
50 4 10.236 4.09691 1.98928
51 4 8.91502 6.39032 0.163273
52 4 10.3614 3.90293 7.96307
72 1 6.83158 3.97236 1.85743
85 1 12.8492 2.91536 4.754
86 1 8.44347 6.23477 4.11335
87 1 8.8599 4.57676 6.99034
153 3 9.02057 0.70467 8.36326
149 3 8.79555 0.773134 2.71436
150 3 7.80242 2.21722 4.97577
245 2 4.84681 5.83163 2.91005
155 3 10.3457 1.58684 4.69746
156 3 12.2966 0.74821 6.38969
164 3 9.28882 3.26372 3.08146
165 3 10.9781 3.08088 0.906072
166 3 11.3021 4.9586 2.92304
168 3 9.46059 5.14673 1.09264
170 3 10.9587 2.90705 6.98319
221 2 7.76472 4.61373 1.95762
222 2 6.72407 3.37905 2.81558
223 2 5.87835 4.60883 1.75092
246 2 6.185 5.0586 4.12147
260 2 13.2738 2.44949 3.78261
261 2 13.655 3.0303 5.50524
262 2 12.2528 3.91985 4.52364
205 2 15.5595 0.377438 3.75289
264 2 8.80918 5.2449 3.97507
363 2 14.6785 1.89313 1.02146
266 2 7.84257 3.88679 7.19092
267 2 9.008 4.61405 5.87732
268 2 8.74707 5.59462 7.45693
293 2 11.7832 6.4976 0.864697
80 1 5.36491 5.80669 3.9909
306 1 14.0062 1.74384 1.97915
307 3 11.927 0.476376 0.702145
308 2 13.2456 2.49804 2.09657
309 2 14.6451 1.58856 2.94892
355 2 14.4732 1.75428 4.80835
305 4 13.0407 0.113709 1.68601
152 3 14.0397 0.53748 8.38921
263 2 7.49258 6.21306 4.74536
287 4 11.8026 6.56259 3.1094
204 2 15.6395 0.403542 5.66175
171 3 11.444 5.12689 8.40895
345 2 4.57213 6.25067 1.58359
124 3 6.52892 2.79261 7.35156
65 1 15.5017 1.05832 4.71348
44 4 12.9842 -0.284474 7.45602
2 4 14.4482 1.76766 9.36172
5 4 14.5274 1.74539 15.0505
56 4 9.52772 6.19191 11.1768
45 4 9.35364 1.58688 9.62429
352 2 7.45447 4.8283 16.3585
48 4 9.62075 1.70836 15.044
49 4 11.9607 1.78359 11.2434
55 4 10.8036 4.07997 13.1321
229 2 5.88367 5.63967 15.2996
73 1 7.01072 3.11659 12.5667
151 3 13.3256 1.99285 16.0518
353 2 8.7592 4.46479 15.0638
154 3 7.96702 1.71896 10.459
157 3 14.3751 0.444278 14.1862
158 3 8.79238 0.58128 14.2402
159 3 10.8773 0.90012 15.5949
160 3 8.68503 2.42555 16.2593
161 3 13.0421 2.13916 10.1505
162 3 10.6709 1.08762 10.531
163 3 12.5089 0.56158 12.2954
169 3 9.63999 3.1727 9.16797
179 3 8.31743 6.08524 10.0861
172 3 6.1224 4.877 8.70683
175 3 10.0877 2.97593 14.1147
176 3 11.7342 3.09446 12.1686
177 3 11.529 5.20694 14.0437
350 1 8.28619 5.23909 15.7627
180 3 9.66356 4.84125 12.1942
224 2 7.15923 4.015 11.8577
225 2 7.82101 2.90142 13.2004
248 2 5.57359 5.31497 12.1507
43 4 12.0003 1.32881 16.734
316 2 15.714 0.0230032 16.5955
9 4 12.1336 6.18603 9.40045
47 4 13.4529 -0.464348 13.114
228 2 4.9091 6.17386 13.7551
13 4 8.87827 10.8113 4.28659
364 2 11.8698 7.02314 6.40688
54 4 9.72574 7.40381 4.95658
57 4 7.64992 9.03197 1.83081
58 4 3.82498 11.527 3.74652
59 4 7.81164 8.72434 7.30037
61 4 6.26128 10.834 5.86784
79 1 4.38135 7.57445 6.48113
348 2 6.02691 11.3789 1.10116
88 1 10.7513 6.62713 6.34125
90 1 5.83088 9.51785 1.89069
349 2 7.11016 12.9192 0.844252
277 2 7.62875 11.0978 0.392126
346 1 6.12979 12.4678 0.621763
91 1 8.36275 10.1641 0.339033
174 3 10.9495 7.59702 4.0237
181 3 7.95028 7.5163 1.40119
182 3 8.29472 9.56959 3.26585
183 3 3.38167 10.5215 2.43485
184 3 4.47552 12.8964 3.12024
185 3 2.59506 11.7615 4.71342
186 3 7.33203 7.38313 7.87304
187 3 8.82431 8.30844 6.01632
257 2 2.57519 9.10378 5.75045
191 3 7.75389 11.4628 5.21471
192 3 5.08266 10.6584 4.56019
193 3 6.46099 9.43633 6.78499
194 3 5.57833 11.9148 6.73382
242 2 4.52265 8.33049 5.77106
243 2 5.25727 7.50974 7.16181
365 2 9.48323 10.2718 0.724301
247 2 5.69252 6.87863 4.31556
295 2 10.9182 8.16485 1.31896
274 2 5.54214 8.30164 1.96837
275 2 5.27624 9.97788 0.997583
276 2 5.62637 9.98431 2.89047
34 4 2.5462 9.30268 1.51564
278 2 3.57665 9.99511 7.2727
265 2 8.23675 6.78341 2.98403
131 3 3.44113 8.36759 0.327479
38 4 1.21976 11.381 5.42823
92 1 3.52636 9.60189 8.34029
327 2 8.03127 12.7626 3.07714
270 2 10.1364 6.77872 7.26344
325 2 8.72302 11.4562 1.89605
11 4 11.8583 6.44309 15.111
33 4 4.36938 6.78029 10.589
280 2 4.45099 9.09717 8.72342
60 4 3.56198 11.1482 9.42623
62 4 3.87507 10.5723 14.6585
63 4 6.32911 10.8045 11.2531
366 2 8.91242 9.00762 16.2134
74 1 5.26623 6.48992 14.8699
89 1 9.22503 7.65456 12.4445
93 1 5.49099 9.86188 15.6246
94 1 6.46112 9.33051 12.5102
141 3 3.55342 7.96169 11.4926
351 2 8.11692 6.22255 15.1971
167 3 10.6667 6.42392 16.2276
173 3 5.99003 7.22286 10.2503
178 3 10.9883 6.58465 10.448
66 1 8.36644 11.4076 14.0167
190 3 2.23108 11.0794 10.2959
195 3 3.34497 9.32645 13.8139
196 3 4.39928 11.7688 13.8028
197 3 2.87977 10.831 15.8886
198 3 7.84143 10.7757 10.5347
199 3 5.13249 10.7752 10.2564
200 3 6.15756 12.1493 12.1031
227 2 5.83375 7.50158 14.922
283 2 5.02929 10.0645 16.6144
271 2 9.02794 8.49593 11.7333
272 2 10.0818 7.82529 13.204
273 2 8.33291 7.26764 13.011
347 2 6.53709 11.8178 16.4011
281 2 6.2755 10.6393 15.3519
282 2 5.77276 8.78933 15.4459
206 2 9.08391 10.9258 14.741
284 2 7.48869 8.74186 12.5093
285 2 5.71342 8.74407 11.9798
286 2 6.06562 9.55751 13.6956
16 4 9.19486 10.5277 9.59994
356 2 7.64935 10.6365 13.5131
357 2 7.76635 12.2659 14.4275
53 4 7.00765 6.41265 9.23792
188 3 8.68193 9.52815 8.47552
189 3 3.61393 12.3912 8.47745
ITEM: TIMESTEP
100
ITEM: NUMBER OF ATOMS
366
ITEM: BOX BOUNDS xy xz yz pp pp pp
-8.2538999999999998e+00 1.6732645500000000e+01 -8.2538999999999998e+00
-6.4910000000000001e-01 1.3422400000000000e+01 6.0774550000000005e-01
0.0000000000000000e+00 1.6908999999999999e+01 -6.4910000000000001e-01
ITEM: ATOMS id type x y z
3 4 0.650697 2.45098 4.73
8 4 -0.429007 4.07707 7.4276
20 4 7.81054 0.202672 1.72794
21 4 3.89217 1.7159 4.22633
25 4 6.59235 1.71865 6.09892
29 4 5.3068 3.84493 7.9869
31 4 4.23889 5.57164 5.50765
64 1 0.566381 3.55302 3.17197
97 3 -1.26161 2.98261 8.22692
67 1 -1.57779 5.49437 7.03898
70 1 3.95402 0.0428962 3.31037
71 1 3.94265 3.03685 2.89456
78 1 2.39662 5.27648 4.90386
98 3 0.179955 3.29738 5.96603
114 3 2.14651 1.9482 4.69326
115 3 6.87965 1.39747 1.15327
118 3 5.09392 1.82194 5.28491
119 3 6.99684 0.278946 6.62033
343 2 4.5188 4.87024 0.223738
125 3 0.812197 4.89914 8.03745
126 3 4.70761 4.59295 6.58638
201 2 -0.403518 2.88558 2.79468
202 2 1.54917 3.4563 2.47438
203 2 0.375721 4.64545 3.40453
317 1 -1.34548 5.18124 0.234509
358 2 -0.557841 2.45189 0.0653368
342 1 3.95969 5.7304 0.774248
319 2 -2.28277 4.73319 0.600816
209 2 -1.47252 5.54205 5.8912
344 2 2.87887 5.46005 1.09503
217 2 3.27907 0.320067 2.45437
218 2 2.89542 3.28066 2.43014
219 2 4.61763 2.48071 2.17408
220 2 4.5881 4.08613 3.2541
239 2 2.36907 4.35462 4.17796
241 2 1.86839 5.0683 5.8505
312 2 0.820546 0.189661 6.53096
288 1 -2.31 6.50127 3.69169
291 2 -1.72702 5.84786 2.99174
292 2 -2.42165 6.07872 4.76063
361 2 3.18987 0.272699 0.724887
310 1 1.44516 0.774775 7.38551
341 2 3.19861 2.3953 0.993469
313 2 2.07858 1.62572 6.94192
318 2 -0.725997 5.50822 1.09046
208 2 -2.64392 5.25039 7.34764
124 3 6.42609 2.79226 7.43485
240 2 1.9501 6.15374 4.45778
311 2 0.823894 1.07706 8.26202
6 4 0.799314 1.57996 11.1606
123 3 4.16301 3.19631 8.85058
360 2 5.13084 -0.128031 16.2499
10 4 -0.132116 3.86193 13.1512
12 4 -1.87563 6.07497 11.6393
24 4 3.74724 1.9593 9.79428
340 2 2.42284 2.39202 16.7068
27 4 6.66579 1.7425 11.5093
30 4 1.73433 5.92031 9.03029
76 1 1.39676 5.14374 10.6975
250 2 3.70131 5.53443 12.7777
95 3 -0.357384 1.38588 10.1677
96 3 1.03039 0.166543 12.077
81 1 4.50068 5.39213 11.9785
99 3 -0.918534 3.05726 14.3144
100 3 0.399681 2.81222 12.1751
120 3 5.83183 2.77423 16.4471
102 3 -2.58884 5.62247 10.1714
103 3 -1.04096 4.90397 12.3417
116 3 3.60612 0.539952 8.94648
117 3 2.21249 2.08178 10.4968
121 3 4.9891 1.83413 10.9081
122 3 7.02295 0.45605 12.4762
226 2 5.86793 3.36222 13.306
127 3 1.32117 4.54788 13.8099
337 2 3.47433 0.4739 14.3594
233 2 2.00542 4.21255 10.8517
234 2 0.24716 4.88722 10.3599
235 2 1.46261 5.78525 11.5928
249 2 4.44344 4.47485 11.3941
359 2 -0.153359 3.82446 16.4946
296 4 4.67981 2.23097 15.5741
297 1 5.43578 0.778332 14.5147
298 1 4.10896 3.57193 14.3296
299 2 6.60102 0.879555 14.655
300 2 5.03533 1.32093 13.6223
301 2 5.06741 -0.311038 14.5728
302 2 3.89926 3.27191 13.2789
303 2 4.64469 4.6103 14.5111
304 2 3.05487 3.52759 15.0661
32 4 1.45128 6.00432 14.4605
314 1 -0.11024 0.961264 16.2181
315 2 0.787669 0.788974 15.5191
334 1 2.29303 0.29506 14.2706
335 2 1.87048 -0.379072 15.1639
336 2 1.75096 1.33125 14.1056
338 1 3.27276 1.70674 16.8537
339 2 2.96585 0.701557 16.6453
128 3 2.66437 5.90052 15.7514
23 4 -0.192406 13.0398 7.66775
15 4 -2.89461 8.84969 7.59867
17 4 -4.37471 11.0315 5.84549
362 2 -4.63675 12.6054 3.89574
35 4 -1.66878 11.3625 3.87436
216 2 -3.25704 13.2368 2.94922
69 1 -1.76092 8.34793 6.18516
82 1 1.96322 8.2578 2.91292
83 1 -1.99496 9.83486 2.85051
84 1 1.62069 9.42092 5.87187
106 3 -5.65902 10.7944 4.9169
107 3 -3.98665 9.77073 6.84732
108 3 -4.75374 12.1968 6.89673
132 3 -1.58266 12.6927 2.62019
133 3 -3.05052 11.4133 4.85064
134 3 1.1109 10.1546 0.904717
138 3 -0.259297 11.1557 4.68228
213 2 -1.71108 9.34235 5.59519
214 2 -2.21255 7.54899 5.46456
215 2 -0.714128 8.1116 6.57238
230 2 1.32513 7.84034 7.735
332 1 -4.03712 13.3398 0.355543
321 2 -0.367908 8.61726 0.0784109
251 2 1.83233 8.6804 3.9956
252 2 2.75329 7.40676 2.83496
253 2 0.971078 7.90557 2.38676
254 2 -2.08082 9.95564 1.6376
255 2 -3.03491 9.5603 3.34844
256 2 -1.01221 9.25167 3.15994
289 1 -4.254 7.41759 1.47161
258 2 0.749623 8.93091 5.34906
259 2 1.45402 9.24034 6.98921
331 2 -5.57808 11.0603 2.01434
290 2 -1.9364 7.59279 3.70857
294 2 -3.20588 7.89857 1.18266
320 1 -1.33164 8.25083 0.499385
323 2 -2.18754 9.08093 0.545649
322 2 -1.20895 7.75552 1.44263
1 4 -5.53551 12.9191 8.0984
324 1 -7.09583 12.1982 2.83396
354 3 0.202216 12.656 0.603438
326 2 -6.15406 12.7741 2.9051
364 2 -4.08489 7.01642 6.14122
328 1 -4.73744 10.502 1.4631
329 2 -3.79672 10.3328 2.06239
330 2 -5.1081 9.50019 1.06769
244 2 3.45937 7.25774 7.23132
279 2 2.52765 8.90104 8.43207
207 2 -1.16862 6.42857 7.58639
333 2 -3.26227 13.3605 1.1094
4 4 -6.53333 12.5176 12.9692
14 4 -3.5491 10.8902 16.7503
238 2 -0.896935 8.03347 10.3467
18 4 -3.09692 8.44723 13.2815
19 4 -4.43848 10.5492 11.3311
28 4 4.03046 6.4513 16.4543
135 3 -1.96301 9.67929 8.66882
36 4 1.36735 10.6072 16.6736
37 4 -1.7153 10.9777 9.61464
39 4 2.49263 8.36759 12.6608
40 4 -1.0981 10.3658 14.9487
41 4 0.982057 10.7088 11.2785
68 1 -4.91648 10.8383 15.5223
75 1 0.965082 7.67827 8.90931
77 1 -0.553079 7.42401 11.2286
232 2 -0.20958 7.84082 9.06694
105 3 -6.46193 12.0224 9.03214
109 3 -4.3215 8.0087 14.4166
110 3 -2.68438 7.18187 12.4646
111 3 -5.67008 9.88259 10.3244
112 3 -3.88118 9.56067 12.3903
113 3 -5.24241 11.6188 12.264
236 2 -0.525172 8.03155 12.1758
104 3 -3.51866 7.44191 8.5381
237 2 0.445079 6.85784 11.0187
231 2 1.52416 8.33011 9.59261
136 3 -1.09083 12.0977 8.67322
137 3 -3.16756 11.1341 10.4436
140 3 1.89744 7.07022 13.386
142 3 -1.75481 9.20527 14.0863
143 3 0.377636 9.93113 15.5796
144 3 -1.2868 11.8132 14.1574
145 3 -2.12026 10.4166 16.1789
146 3 -0.529336 10.4503 10.5728
147 3 1.32412 9.28184 11.9395
26 4 -0.310427 12.8127 13.2807
210 2 -5.81291 10.3306 16.0637
211 2 -4.6706 10.4051 14.5358
212 2 -4.94605 12.045 15.5831
101 3 -2.79983 6.25048 15.6909
129 3 -0.108304 6.31157 15.0084
148 3 0.704405 11.8179 12.4156
7 4 -1.19995 6.10817 16.1647
130 3 3.1687 6.35614 9.26378
22 4 6.84759 2.81492 0.417814
42 4 9.01527 1.89892 3.89793
269 2 11.227 5.321 5.87375
46 4 11.6013 1.91159 5.73903
50 4 10.2614 4.12938 1.97539
51 4 8.86725 6.4279 0.049928
52 4 10.4445 3.85292 7.95317
72 1 6.91916 4.0124 1.84806
85 1 12.8881 3.01885 4.89829
86 1 8.65545 6.3241 4.1043
87 1 8.87491 4.46793 6.89095
153 3 8.93641 0.716286 8.38137
149 3 8.90758 0.681763 2.80668
150 3 7.67198 2.13568 4.94951
245 2 4.91955 5.81214 3.00257
155 3 10.3885 1.58502 4.65191
156 3 12.6005 0.798118 6.49826
164 3 9.30484 3.34843 3.04207
165 3 10.9945 3.14565 1.06195
166 3 11.3959 5.14779 2.82369
168 3 9.45213 5.24679 0.980404
170 3 11.1217 3.02178 6.81343
221 2 7.85477 4.67606 1.85842
222 2 6.85244 3.36381 2.75712
223 2 5.95885 4.60933 1.70077
246 2 6.23873 4.92925 4.12572
260 2 13.3155 2.4677 3.84906
261 2 13.7358 3.33631 5.6822
262 2 12.1921 3.91598 4.67015
205 2 15.4854 0.415093 4.14201
264 2 9.33818 5.42808 4.03769
363 2 14.8125 1.84277 1.374
266 2 7.98587 3.83244 7.04472
267 2 9.25462 4.40432 5.78584
268 2 8.87844 5.56858 7.25988
293 2 11.723 6.43791 0.81155
80 1 5.43983 5.75762 4.02485
306 1 14.0081 1.62726 2.18795
307 3 11.966 0.55847 0.708867
308 2 13.2139 2.47055 2.17151
309 2 14.5242 1.42415 3.25649
355 2 14.4441 1.6943 5.06767
305 4 13.0357 0.0384688 1.71138
345 2 4.56704 6.20948 1.68755
263 2 7.76781 6.29132 4.82907
65 1 15.408 1.07957 5.01832
204 2 15.7163 0.611299 6.10082
44 4 13.1131 -0.259024 7.54661
88 1 11.124 6.42867 6.24415
152 3 14.2602 0.381885 8.44492
2 4 14.4632 1.7756 9.28183
5 4 14.602 1.72484 15.0968
56 4 9.61957 6.16081 11.2487
45 4 9.27549 1.74947 9.82033
352 2 7.46928 4.65706 16.3946
48 4 9.57331 1.76603 15.0291
49 4 11.9794 1.82509 11.3629
55 4 10.7464 4.09474 13.0994
229 2 5.92812 5.69451 15.4553
73 1 6.87243 3.26645 12.6247
151 3 13.4785 2.08636 16.1131
353 2 8.69593 4.21673 14.9618
154 3 7.96162 1.91187 10.6925
157 3 14.2516 0.564855 14.1316
158 3 8.64827 0.495974 14.2836
159 3 10.9735 1.23498 15.6046
160 3 8.64585 2.37386 16.2648
161 3 13.1091 2.06815 10.2576
162 3 10.4857 1.20889 10.6727
163 3 12.565 0.56292 12.2071
169 3 9.82083 3.09989 9.18188
179 3 8.22121 6.20027 10.0898
172 3 6.20369 4.96073 8.82398
175 3 9.82642 2.89977 13.9726
176 3 11.7528 3.18582 12.1808
177 3 11.3418 5.27125 14.0222
350 1 8.32974 5.0493 15.6682
180 3 9.63626 4.97987 12.3104
224 2 6.96727 4.12522 11.8791
225 2 7.84615 3.15772 13.2212
248 2 5.50873 5.49669 12.4407
43 4 12.0652 1.50022 16.7868
316 2 15.7423 -0.0311288 16.7658
9 4 12.1734 6.14451 9.45348
47 4 13.4494 -0.388889 13.0758
171 3 11.4564 4.93429 8.48434
351 2 7.95595 5.95721 15.1233
53 4 6.92423 6.27225 9.19198
228 2 4.93097 6.05564 13.8595
13 4 8.85574 10.8132 4.16574
280 2 4.42689 9.13302 8.40127
54 4 9.76903 7.42491 5.15904
57 4 7.76847 8.99919 1.88683
58 4 3.95028 11.5138 3.76199
59 4 7.74143 8.70082 7.32396
61 4 6.21672 10.8953 5.83224
79 1 4.16782 7.46064 6.38048
348 2 6.05855 11.2414 1.33575
295 2 10.9762 8.18681 1.419
90 1 5.91271 9.30909 1.98939
349 2 7.06409 12.9314 1.2649
277 2 7.63567 11.0791 0.332505
346 1 6.15325 12.397 0.861665
91 1 8.37541 10.14 0.350198
174 3 10.9318 7.60116 4.03964
181 3 7.97296 7.39464 1.34684
182 3 8.47514 9.57743 3.17682
183 3 3.4597 10.4813 2.48169
184 3 4.56161 12.8505 3.13734
185 3 2.61453 11.5766 4.75179
186 3 7.07338 7.34782 7.88125
187 3 8.69994 8.14175 6.14269
257 2 2.60863 9.00332 5.52703
191 3 7.60796 11.2347 5.08444
192 3 5.05084 10.6455 4.57922
193 3 6.60832 9.59186 6.70408
194 3 5.59468 11.9943 6.70243
242 2 3.82252 8.23566 5.61033
243 2 5.22138 7.72693 6.75485
365 2 9.51106 10.3182 0.722148
247 2 5.80901 6.85252 4.40069
139 3 0.876201 11.998 6.78722
274 2 5.63309 8.16588 2.05058
275 2 5.39664 9.76296 1.02027
276 2 5.65654 9.84106 2.98805
34 4 2.54006 9.51946 1.66533
278 2 3.45954 10.1465 7.1954
265 2 8.37413 6.67049 3.00082
131 3 3.47071 8.46151 0.44796
38 4 1.22979 11.2653 5.46143
92 1 3.46746 9.62977 8.21662
327 2 8.18642 12.8526 3.18441
270 2 10.7001 6.55702 7.27165
325 2 8.73146 11.5334 1.8448
188 3 8.64856 9.52215 8.42394
287 4 11.9446 6.59237 3.11192
11 4 11.6661 6.47514 15.0437
33 4 4.29278 6.81566 10.6985
357 2 7.49635 12.2276 14.1394
60 4 3.57245 11.0603 9.53481
62 4 3.77518 10.64 14.6002
63 4 6.52652 10.9925 11.1475
366 2 8.94495 8.86462 16.3734
74 1 5.20939 6.47193 14.8864
89 1 9.26024 7.71485 12.3044
93 1 5.4671 10.0092 15.3364
94 1 6.5008 9.45653 12.2745
141 3 3.56664 7.91993 11.5953
189 3 3.79492 12.3776 8.64062
167 3 10.5556 6.7063 16.2123
173 3 5.74915 7.17138 10.1791
178 3 10.9568 6.40132 10.4199
66 1 8.24379 11.414 14.0011
190 3 2.17984 11.0255 10.2499
195 3 3.37596 9.3685 13.7122
196 3 4.28891 11.8797 13.8163
197 3 2.6999 10.8137 15.9031
198 3 7.9486 10.7447 10.5645
199 3 4.93216 10.8211 10.3298
200 3 6.22093 12.242 12.0026
227 2 5.74969 7.52288 14.7835
283 2 5.09393 10.19 16.3889
271 2 9.09798 8.55967 11.5577
272 2 10.201 7.87228 12.8906
273 2 8.2884 7.44012 12.8859
347 2 6.83859 11.6229 16.686
281 2 6.41611 10.5134 15.0487
282 2 5.45307 8.85273 15.0826
206 2 8.84933 11.0572 14.8815
284 2 7.48585 8.84095 12.162
285 2 5.63301 8.86654 11.7563
286 2 6.20903 9.68693 13.3872
16 4 9.23485 10.529 9.56906
356 2 7.81032 10.6294 13.3333
ITEM: TIMESTEP
200
ITEM: NUMBER OF ATOMS
366
ITEM: BOX BOUNDS xy xz yz pp pp pp
0.0000000000000000e+00 2.4595191000000000e+01 7.8710000000000004e+00
-6.4910000000000001e-01 1.3422400000000000e+01 5.9929100000000091e-01
0.0000000000000000e+00 1.6908999999999999e+01 -6.4910000000000001e-01
ITEM: ATOMS id type x y z
124 3 6.64703 2.85963 7.13259
313 2 1.99477 1.72118 6.94059
20 4 7.73681 0.0881539 1.75741
21 4 3.74235 1.78808 4.14591
25 4 6.61911 1.76379 5.95734
29 4 5.47405 3.78563 7.88851
31 4 4.19035 5.70662 5.54439
341 2 3.07526 2.68195 1.27224
310 1 1.4524 0.779704 7.33637
361 2 3.37583 0.387406 0.783481
70 1 3.9584 0.0947757 3.22295
71 1 3.89551 3.24183 3.00557
312 2 0.900825 0.29574 6.3693
220 2 4.56844 4.25067 3.32273
114 3 2.11215 2.00644 4.66125
115 3 6.70412 1.36004 1.10153
118 3 5.11831 1.80052 5.25128
119 3 7.1487 0.365453 6.60329
343 2 4.56112 4.88447 0.389118
219 2 4.53028 2.56461 2.18358
126 3 4.73114 4.6609 6.54936
218 2 2.74466 3.57312 2.75113
217 2 3.49526 0.0992972 2.22411
342 1 3.97432 5.83157 0.81304
22 4 6.7188 2.75948 0.383938
42 4 9.15256 1.88992 3.87475
287 4 12.0036 6.51197 3.09779
269 2 11.2695 5.43418 5.72424
50 4 10.3117 4.08791 2.05659
51 4 8.94589 6.4137 0.179748
263 2 7.57545 6.40424 4.73046
345 2 4.54361 6.39904 1.64031
52 4 10.4873 3.94751 8.03757
72 1 6.76711 4.07348 1.75968
86 1 8.50539 6.29311 4.08828
87 1 9.01047 4.8604 7.05736
338 1 2.63321 2.37083 0.0954264
150 3 7.83444 2.12867 4.83947
80 1 5.50488 5.91122 4.00898
293 2 11.4652 6.40001 1.0397
268 2 8.89722 5.88169 7.56045
267 2 9.30404 4.87646 5.99222
266 2 8.11385 4.16308 7.1984
245 2 5.05042 6.08096 2.9174
264 2 8.84978 5.20218 4.05404
164 3 9.42637 3.4092 3.1447
168 3 9.58652 5.13627 1.03432
221 2 7.80531 4.51505 1.6137
222 2 6.69768 3.52102 2.77743
246 2 6.13629 4.99271 4.17231
223 2 5.90112 4.75152 1.45296
353 2 8.86048 4.35003 15.2156
123 3 4.28545 3.12349 8.85263
360 2 5.02543 -0.240104 16.2427
153 3 8.82344 0.591438 8.71473
336 2 1.88175 1.16185 14.0822
24 4 3.83612 1.933 9.81098
158 3 8.82899 0.345111 14.3128
27 4 6.58137 1.77573 11.5289
335 2 2.03694 -0.367526 15.322
334 1 2.36909 0.130649 14.3134
154 3 7.66615 2.03262 10.4244
303 2 4.31627 4.56914 14.6599
96 3 1.01816 0.218946 11.9073
81 1 4.43911 5.28086 11.9698
302 2 3.4368 3.36517 13.3721
301 2 5.35599 -0.36057 14.5928
120 3 5.79498 2.82186 16.3951
300 2 4.86626 1.34127 13.6525
299 2 6.53611 1.11218 14.5759
116 3 3.79863 0.568647 8.83086
117 3 2.42687 2.0473 10.4534
121 3 5.06366 1.78019 11.0865
122 3 6.89114 0.269997 12.5058
226 2 5.48107 3.33852 13.3542
298 1 3.7626 3.57399 14.4994
337 2 3.52388 0.318545 14.3604
297 1 5.43168 0.825454 14.5845
296 4 4.58673 2.22719 15.6125
249 2 4.41079 4.26577 11.4794
56 4 9.54926 6.27489 11.3078
228 2 4.76788 5.9623 13.8261
160 3 8.53952 2.27724 16.2851
351 2 8.04599 5.96617 15.0386
45 4 9.11923 1.72046 9.7915
352 2 7.48799 4.79326 16.3079
9 4 12.0686 6.15513 9.47321
48 4 9.55765 1.66366 15.0573
55 4 10.6241 4.10689 13.1482
248 2 5.45259 5.4463 12.5859
225 2 7.34755 2.71703 13.6562
224 2 6.96025 4.01813 12.2765
180 3 9.59969 4.93256 12.2427
350 1 8.34549 5.20728 15.7612
177 3 11.3392 5.12504 14.1664
229 2 5.84823 5.74437 15.3733
175 3 9.64534 3.02767 14.0622
172 3 6.34839 4.89876 8.77447
179 3 8.23147 6.25191 10.1951
169 3 9.70412 3.05913 9.10051
73 1 6.62483 3.14603 12.8352
171 3 11.4868 5.05109 8.53172
340 2 2.35343 2.35669 16.6782
53 4 6.84891 6.29732 9.35767
339 2 2.96271 0.62213 16.927
23 4 15.8505 13.0198 7.70757
15 4 13.2211 8.83353 7.56289
17 4 11.9056 10.9787 5.84293
362 2 11.2841 12.9539 4.0472
35 4 14.4371 11.248 3.91731
216 2 12.8903 13.1645 3.07623
187 3 8.83365 8.19428 6.13971
330 2 10.8159 9.34759 0.890742
329 2 12.2479 10.1244 2.05915
328 1 11.2926 10.3442 1.41159
106 3 10.4306 10.88 4.7975
107 3 12.1881 9.65948 6.71452
108 3 11.3941 12.1967 6.70845
132 3 14.6047 12.5994 2.63609
133 3 13.194 11.2015 4.89612
364 2 12.2076 7.08768 5.90634
326 2 10.0235 12.6862 2.7826
324 1 9.0012 12.0509 2.74831
1 4 10.6715 12.98 7.89821
331 2 10.4578 10.9636 1.90468
289 1 11.7839 7.41025 1.56067
332 1 12.1069 13.3289 0.276038
255 2 13.1627 9.30428 3.32223
13 4 8.96317 10.8085 4.19076
270 2 10.6338 6.76578 7.01455
188 3 8.71881 9.47926 8.36777
325 2 8.81251 11.5031 1.79311
191 3 7.87055 11.3754 5.08613
327 2 8.05086 12.7182 3.0804
54 4 9.86387 7.36453 4.99327
57 4 7.736 8.97099 1.77344
59 4 7.76665 8.71031 7.31507
265 2 8.2769 6.67822 2.99727
295 2 10.9332 8.14912 1.60064
90 1 5.8932 9.30289 1.87712
277 2 7.57901 10.9828 0.384106
91 1 8.35628 10.1491 0.297078
274 2 5.63478 8.13171 1.85129
174 3 11.0796 7.78703 4.02578
247 2 6.03104 6.90069 4.38196
365 2 9.45365 10.3118 0.702593
88 1 11.2134 6.53297 5.97434
181 3 7.95728 7.39024 1.47493
182 3 8.50521 9.50863 3.07476
193 3 6.56029 9.59374 6.69241
186 3 7.13341 7.38741 7.94897
254 2 13.955 10.1694 1.69281
333 2 13.041 13.3143 0.927886
4 4 9.5454 12.5609 12.9257
14 4 12.5111 10.7968 16.8806
212 2 11.3007 11.9547 15.5316
18 4 13.0384 8.38087 13.3192
19 4 11.6815 10.5792 11.2587
211 2 11.5943 10.3032 14.4001
135 3 14.1023 9.65954 8.55102
210 2 10.4208 10.1936 16.0321
37 4 14.3512 10.9365 9.56172
26 4 15.8586 12.7919 13.3254
145 3 13.9328 10.3374 16.3216
144 3 14.8773 11.6181 14.0928
68 1 11.3238 10.726 15.459
137 3 12.9648 11.1079 10.4025
136 3 14.8346 12.2136 8.77055
104 3 12.5589 7.41125 8.46837
105 3 9.8139 11.8899 8.77215
109 3 11.8297 7.89328 14.3957
113 3 10.8934 11.617 12.2301
111 3 10.6166 9.90928 10.312
112 3 12.2939 9.42033 12.2837
11 4 11.8517 6.3315 15.1086
356 2 7.73071 10.7529 13.3473
16 4 9.23264 10.592 9.46464
366 2 8.97211 8.97576 16.2228
74 1 5.08641 6.40855 14.8692
284 2 7.67084 8.79239 12.356
206 2 8.93894 11.0154 14.9008
89 1 9.39434 7.77803 12.5582
94 1 6.58833 9.39152 12.2808
167 3 10.6293 6.51214 16.2637
273 2 8.42868 7.41243 13.1462
272 2 10.3368 7.88954 13.2474
271 2 9.27494 8.70668 11.9307
173 3 5.69786 7.0149 10.2928
227 2 5.50697 7.37251 14.6486
178 3 10.9434 6.48895 10.5551
66 1 8.25815 11.4705 14.0895
198 3 7.82792 10.9461 10.1827
285 2 5.83088 8.73746 11.7353
152 3 14.3901 0.46628 8.36833
207 2 14.5951 6.20658 7.68647
204 2 15.676 0.414211 6.03995
46 4 11.6731 1.99166 5.7911
65 1 15.4694 0.961271 5.03284
305 4 12.989 0.181946 1.80559
355 2 14.3847 1.64726 5.04536
309 2 14.6688 1.43331 3.19373
85 1 12.9948 3.03251 4.88408
308 2 13.3688 2.55477 2.21404
307 3 11.9886 0.679247 0.707156
306 1 14.1186 1.64581 2.17158
149 3 8.81629 0.86998 2.70311
363 2 14.8296 1.81138 1.21925
205 2 15.5502 0.211931 4.174
155 3 10.3579 1.53498 4.77071
156 3 12.3714 0.641406 6.54533
262 2 12.4407 3.97518 4.62195
165 3 11.1736 3.10096 1.13459
166 3 11.3577 5.09225 2.9494
261 2 13.7326 3.08372 5.79323
170 3 11.0864 3.04742 6.84386
260 2 13.395 2.46118 3.89206
3 4 16.6531 2.44142 4.7301
311 2 16.9009 1.06801 8.15388
240 2 18.2368 5.62153 3.83987
8 4 15.6522 4.07301 7.35791
208 2 13.3409 4.8769 7.10225
318 2 15.007 5.7016 1.11053
64 1 16.6191 3.5039 3.14922
97 3 14.8824 3.05981 8.36175
67 1 14.3473 5.36049 6.90933
78 1 18.5836 5.16582 4.86732
292 2 13.6743 6.06552 4.7191
291 2 14.3274 5.63741 2.9472
288 1 13.8426 6.39667 3.63674
98 3 16.0752 3.50115 5.8071
241 2 18.008 5.6437 5.73345
239 2 18.5131 4.05726 4.92096
125 3 16.9631 4.88508 8.13532
201 2 15.7254 2.96029 2.75793
202 2 17.5095 3.45034 2.51127
203 2 16.3181 4.52475 3.37145
344 2 19.0472 5.52779 1.20161
209 2 14.46 5.68955 5.79328
319 2 13.5186 4.75873 0.505244
317 1 14.5115 5.20235 0.205138
2 4 14.5339 1.79365 9.28938