ITEM: TIMESTEP
0
ITEM: NUMBER OF ATOMS
366
ITEM: BOX BOUNDS xy xz yz pp pp pp
-8.2538999999999998e+00 1.6741099999999999e+01 -8.2538999999999998e+00
-6.4910000000000001e-01 1.3422400000000000e+01 6.1619999999999997e-01
0.0000000000000000e+00 1.6908999999999999e+01 -6.4910000000000001e-01
ITEM: ATOMS id type q x y z
3 4 1.04454 0.830321 2.72587 4.71018
8 4 1.26873 -0.467187 4.21054 7.31986
64 1 -0.677239 0.807495 3.83522 3.19545
65 1 -0.677029 -0.247337 0.993594 4.49656
67 1 -0.690378 -1.83245 5.4001 6.80694
98 3 -0.788748 0.1367 3.47159 6.01669
125 3 -0.768914 1.03988 5.23237 7.88589
201 2 0.176084 0.440708 4.83718 3.40957
202 2 0.132451 -0.0210814 3.11818 2.67243
203 2 0.170033 1.77486 3.83833 2.63922
317 1 -0.654878 -1.4805 4.86004 0.531102
209 2 0.162516 -1.9081 5.77598 5.67571
288 1 -0.694116 -2.17999 6.36 3.76015
291 2 0.170285 -2.19476 5.30067 4.15085
310 1 -0.679245 1.39073 0.550463 6.94905
312 2 0.198381 1.38511 0.234211 5.86425
318 2 0.136666 -1.12173 5.41735 1.50037
345 2 0.153987 1.84817 5.92661 1.98389
319 2 0.24045 -2.47651 4.25136 0.63271
241 2 0.282696 1.85869 5.63149 6.33478
208 2 0.222107 -2.73522 4.75167 7.24983
207 2 0.160285 -1.48204 6.24882 7.5935
313 2 0.24951 1.63592 1.61113 7.1408
204 2 0.173862 0.483031 0.195937 4.33289
311 2 0.238677 0.496984 0.160154 7.51035
358 2 0.155135 -0.327486 2.4728 0.00106906
290 2 0.138407 -1.48367 6.49997 2.89799
126 3 -0.730212 4.92302 4.93234 6.59964
119 3 -0.816572 7.24933 0.483983 6.64988
25 4 1.59227 6.91226 1.91204 5.92309
341 2 0.167861 3.1548 2.86574 0.920846
246 2 0.166728 4.77379 4.60709 3.36094
31 4 0.948288 4.24072 5.94746 5.48997
118 3 -0.793553 5.43201 1.89542 5.13313
29 4 1.58107 5.72269 3.96844 7.88554
361 2 0.140314 3.10217 0.510795 0.695322
333 2 0.220516 4.93371 0.267569 1.16714
344 2 0.159332 2.88312 4.47695 0.950349
218 2 0.156374 3.30619 3.50303 2.54145
219 2 0.159183 4.0369 1.76212 2.07182
343 2 0.156928 3.80275 5.65886 2.4199
217 2 0.134592 3.09433 0.161878 2.71028
220 2 0.191419 5.24014 3.26144 2.41568
239 2 0.184311 2.43098 4.89406 4.72743
21 4 1.15677 4.03746 1.84746 4.30761
342 1 -0.656532 2.88146 5.59732 1.5926
20 4 1.59122 7.78529 0.177254 1.93748
70 1 -0.675464 3.94077 0.0447918 3.50331
71 1 -0.673622 4.20064 2.80981 2.67694
78 1 -0.673 2.40333 5.86584 5.3667
114 3 -0.757144 2.53588 2.20589 4.87262
115 3 -0.874141 6.90628 1.33548 1.41261
23 4 1.66519 8.25561 -0.257808 7.72899
332 1 -0.681252 4.12041 0.1934 0.386843
6 4 1.6392 1.28204 1.72101 10.8977
10 4 1.54442 0.211117 3.75722 13.1653
30 4 1.12203 1.58336 6.20389 9.03069
76 1 -0.66341 1.3375 5.21138 10.5209
95 3 -0.841658 0.0561142 1.56323 9.91464
96 3 -0.815626 1.56687 0.420136 11.7237
99 3 -0.824492 -0.621953 2.7429 14.1444
100 3 -0.817617 0.858992 2.85805 12.0052
102 3 -0.834362 -2.32777 5.76758 10.3571
103 3 -0.794813 -0.703117 4.9196 12.3765
127 3 -0.793852 1.74075 4.40513 13.8241
233 2 0.259729 2.04632 4.35074 10.4512
234 2 0.226185 0.229886 4.87242 10.2437
235 2 0.172602 1.49013 5.95577 11.4414
314 1 -0.658915 0.0443893 0.974973 16.2619
315 2 0.173884 0.967363 0.674686 15.5487
32 4 1.46826 1.61651 5.91141 14.532
337 2 0.122814 2.05629 -0.368325 15.3463
335 2 0.193348 1.88298 1.1685 14.1084
7 4 1.20442 -1.12133 5.83614 16.3836
97 3 -0.833672 -1.0318 3.31668 8.57736
129 3 -0.788479 0.0341401 5.80693 15.2634
101 3 -0.823119 -2.63135 5.99895 15.9115
359 2 0.173683 -0.0137441 3.77201 16.8198
12 4 1.42444 -1.60742 6.2014 11.6906
116 3 -0.810411 3.56346 0.533707 8.6846
339 2 0.166456 2.89666 1.20564 16.4464
297 1 -0.653688 5.6061 0.992454 14.6261
249 2 0.223136 4.92984 4.29359 10.4319
296 4 0.932892 4.84938 2.51635 15.6055
298 1 -0.65901 4.61956 4.08762 14.386
299 2 0.210284 5.42728 -0.118851 14.3062
81 1 -0.692308 4.63758 4.9072 11.3426
123 3 -0.853196 4.56291 3.04461 8.56345
250 2 0.187517 3.54544 4.71188 11.7379
340 2 0.170635 2.45827 2.99874 16.5756
360 2 0.193698 5.08146 0.0804412 16.3089
122 3 -0.786584 6.90644 0.268084 12.4561
302 2 0.19089 4.09568 3.64284 13.438
300 2 0.201485 6.71585 1.04182 14.9712
304 2 0.242204 3.87416 4.80958 14.9868
334 1 -0.672745 2.50189 0.228467 14.4125
120 3 -0.774669 5.96585 2.72323 16.6505
117 3 -0.861546 2.62828 2.25842 10.0744
336 2 0.169168 3.64284 0.531419 14.4549
24 4 1.61271 4.00396 1.87919 9.47341
27 4 1.37194 6.80009 1.54583 11.4903
301 2 0.160943 5.36208 1.6026 13.622
121 3 -0.768631 5.32401 1.51745 10.6194
338 1 -0.659651 3.26291 2.22239 16.7132
128 3 -0.808507 2.73472 5.99212 15.8367
15 4 1.38187 -2.84159 8.90496 7.64672
17 4 1.48988 -4.28966 10.855 5.83666
106 3 -0.825505 -5.51235 10.5764 4.69415
107 3 -0.825759 -4.17161 9.46551 6.9213
108 3 -0.850785 -4.66554 12.2201 6.65044
133 3 -0.801457 -2.85916 11.1473 5.01928
214 2 0.17803 -2.20906 8.91205 5.16509
255 2 0.161332 -2.71036 9.20541 2.67045
289 1 -0.668312 -4.09865 7.78987 1.96846
294 2 0.16047 -3.00074 7.97738 1.52923
216 2 0.269194 -3.26964 13.21 3.09685
326 2 0.173622 -5.95496 12.4328 3.08991
328 1 -0.679767 -4.61677 10.5687 1.25905
329 2 0.186312 -3.62802 10.2694 1.8323
330 2 0.189208 -4.94908 9.82841 0.485253
331 2 0.185024 -5.46805 10.9462 1.92889
362 2 0.22619 -4.64334 12.9757 4.47399
295 2 0.203136 -4.40438 8.60252 2.69476
1 4 1.45893 -5.47192 12.8926 7.79567
324 1 -0.677406 -6.99934 11.8961 2.84511
292 2 0.157604 -1.99077 7.20486 4.55099
322 2 0.216469 -1.93683 8.85398 0.503247
34 4 1.34806 1.94203 9.43933 2.19122
131 3 -0.795282 2.73008 8.30874 1.0989
36 4 1.58745 0.582236 11.271 0.178014
83 1 -0.688431 -1.866 9.91403 2.69895
323 2 0.237477 -0.157349 8.30244 0.194206
259 2 0.142611 0.781922 8.69256 5.90766
258 2 0.198349 2.39878 9.07409 5.09113
69 1 -0.675218 -1.71833 8.47137 6.13389
254 2 0.199822 -1.88795 10.5809 1.71338
354 3 -0.845159 0.0713568 12.7103 0.711488
321 2 0.124317 -1.08973 7.70561 1.73798
28 4 1.1314 2.98757 6.98827 0.328274
134 3 -0.859862 0.882535 10.4279 1.51671
320 1 -0.66233 -1.17167 8.03837 0.617249
35 4 1.34555 -1.58363 11.3127 3.93613
82 1 -0.667697 0.825925 8.23032 3.1594
84 1 -0.709871 1.76215 9.34482 5.95732
132 3 -0.826489 -1.57385 12.6191 2.95562
240 2 0.146989 1.87067 6.71971 4.82365
138 3 -0.803955 -0.0361378 11.0888 4.67778
213 2 0.178397 -0.644942 8.87356 6.15235
215 2 0.160749 -1.71938 7.30952 6.26953
230 2 0.179513 1.16474 8.49543 7.70604
251 2 0.138752 1.58735 7.4386 3.64108
252 2 0.129714 0.0787695 7.55861 2.47065
253 2 0.178813 0.318818 8.84526 3.94952
256 2 0.203243 -0.882201 9.28001 2.7831
135 3 -0.840737 -1.83658 9.9331 8.39049
257 2 0.166326 2.35153 9.33571 6.88938
4 4 1.19822 -6.15432 12.6123 12.7149
18 4 1.54951 -2.98335 8.45011 13.4025
19 4 1.55199 -4.1776 10.467 11.4035
68 1 -0.676022 -4.85469 10.7559 15.4238
105 3 -0.833413 -6.21028 11.7246 8.7412
109 3 -0.797047 -4.13035 7.7703 14.4943
110 3 -0.852471 -2.44553 7.05311 12.6674
111 3 -0.805448 -5.47586 9.9098 10.5262
112 3 -0.918689 -3.71611 9.50739 12.5478
113 3 -0.779665 -4.87219 11.8089 12.2262
137 3 -0.800154 -2.87603 11.1331 10.4869
145 3 -0.797136 -2.24479 10.7533 16.1323
210 2 0.161024 -5.12544 11.8994 15.0483
211 2 0.16614 -5.74509 10.2513 15.9731
212 2 0.260116 -4.47466 10.1497 14.6215
9 4 1.56674 -3.69365 6.35123 9.49656
14 4 0.992551 -3.58311 11.1366 16.7631
104 3 -0.85532 -3.25137 7.60322 8.5554
142 3 -0.831653 -1.63984 9.09701 14.2741
232 2 0.181617 -0.294051 7.96062 8.67888
143 3 -0.824183 0.098404 9.80889 16.1115
144 3 -0.893835 -0.501277 11.5817 14.1891
26 4 1.62444 0.00614372 12.7272 13.2113
146 3 -0.885135 -0.184242 10.4635 10.4551
147 3 -0.850714 1.63128 9.43988 12.0864
236 2 0.250361 -0.540257 8.32926 12.1696
238 2 0.1844 -0.613469 7.99991 10.1781
237 2 0.181306 0.73604 7.09996 11.398
75 1 -0.697562 0.782257 8.08591 8.70052
37 4 1.59089 -1.47656 11.0121 9.59544
39 4 1.55979 2.65897 8.37995 12.9892
40 4 1.6038 -0.996516 10.3347 15.057
41 4 1.6019 1.13433 10.6853 11.2403
130 3 -0.754759 3.13888 6.5327 9.38202
77 1 -0.658656 -0.347636 7.60384 11.3045
231 2 0.209809 1.12514 8.73125 9.49046
136 3 -0.792393 -0.973924 12.4205 8.92349
140 3 -0.862898 1.74404 7.18413 13.5556
279 2 0.17985 2.6092 8.93232 8.5946
22 4 1.27664 6.90964 2.71281 0.465047
42 4 1.59198 9.31959 2.04822 3.81922
72 1 -0.675853 7.09196 3.93325 1.92476
86 1 -0.672471 8.32653 5.77546 4.61662
87 1 -0.69214 9.32211 4.57111 7.0035
124 3 -0.86157 6.73491 3.03418 7.11111
149 3 -0.835445 8.98011 0.780155 2.88413
150 3 -0.867083 8.10244 2.2822 4.88674
164 3 -0.889024 9.46089 3.33882 2.99234
168 3 -0.853544 9.76462 5.03368 0.912913
221 2 0.261292 8.04986 4.51371 1.91284
222 2 0.225087 7.01253 3.25151 2.83094
223 2 0.172316 6.10791 4.53598 1.69785
263 2 0.19432 7.63501 5.46906 5.50193
264 2 0.245992 8.76299 4.84188 4.03441
266 2 0.273887 8.45351 3.85641 7.11865
268 2 0.188431 9.02329 5.64603 7.33158
267 2 0.187643 9.71766 4.57692 5.95338
80 1 -0.667383 5.26955 5.65908 3.78295
247 2 0.195534 6.33048 5.55716 4.14908
51 4 1.34603 9.05943 6.33896 0.189401
228 2 0.165029 5.11864 6.12085 0.185818
265 2 0.173508 7.82097 6.51028 3.83126
245 2 0.142018 5.15211 6.52101 3.05492
165 3 -0.913958 11.2488 2.86309 0.875265
305 4 1.16577 13.0997 0.00987978 1.69678
170 3 -0.832016 11.5592 2.91171 7.13972
166 3 -0.772178 11.804 4.94565 2.56323
260 2 0.189018 12.6003 3.33624 4.08453
261 2 0.175629 14.2977 2.2063 4.80958
306 1 -0.684908 13.8524 1.66746 2.08727
269 2 0.209476 11.4312 6.04783 6.53487
205 2 0.15899 15.1263 1.16133 3.62268
309 2 0.18245 13.6406 2.14782 3.15205
307 3 -0.758295 12.049 0.287371 0.467087
308 2 0.224508 13.5803 2.44938 1.27563
287 4 1.09977 12.1182 6.39064 3.20149
155 3 -0.806312 10.819 1.77886 4.73453
46 4 1.42189 11.9679 1.91569 5.85347
50 4 1.5336 10.5472 3.9284 1.74817
52 4 1.42127 10.7799 3.94827 8.12221
85 1 -0.662585 13.3048 2.97438 4.98548
363 2 0.122458 14.9492 1.33706 1.90957
156 3 -0.834114 12.7745 0.682804 6.34124
262 2 0.180478 13.5477 3.89749 5.64275
44 4 1.57158 13.4979 -0.226142 7.48679
355 2 0.216936 15.4042 1.02777 5.52377
45 4 1.64668 9.6099 1.64037 9.81481
48 4 1.61214 9.67509 1.59862 14.922
352 2 0.189016 7.33302 5.60947 16.1001
73 1 -0.685002 7.0577 3.14083 12.5431
154 3 -0.806579 8.20081 1.82156 10.6828
158 3 -0.840094 9.16886 0.370083 14.0323
160 3 -0.860677 8.62839 2.14236 16.2276
169 3 -0.826491 10.0506 3.11482 9.29658
172 3 -0.862955 6.54804 4.91398 8.85361
175 3 -0.885458 9.67952 2.92557 14.0436
180 3 -0.791164 10.0929 4.88592 12.0617
224 2 0.211071 7.20221 3.84613 11.6163
225 2 0.272643 7.96525 3.06212 13.12
350 1 -0.671881 8.38369 5.13138 15.8012
351 2 0.178786 8.76081 5.46062 14.8058
353 2 0.261627 8.36118 3.96357 15.8344
153 3 -0.853214 9.21502 0.733313 8.46035
303 2 0.154475 5.62705 4.58207 14.2287
248 2 0.155958 5.42681 5.11483 12.182
226 2 0.157909 6.175 3.4648 13.2234
171 3 -0.848507 11.7091 5.15479 8.55025
55 4 1.55836 10.8014 3.92349 13.2892
177 3 -0.825128 11.4746 5.08626 14.3128
316 2 0.179809 15.8273 0.0603183 16.834
157 3 -0.825732 14.682 0.095305 14.3801
43 4 1.58529 12.1261 1.2111 16.6666
151 3 -0.827096 13.5949 1.99078 16.054
159 3 -0.884347 11.0878 1.15109 15.5505
163 3 -0.850365 12.6786 0.688235 12.6888
161 3 -0.780036 13.5079 2.06567 10.4574
49 4 1.63775 12.1263 1.74177 11.6048
176 3 -0.842598 11.8565 2.9894 12.4724
162 3 -0.827915 10.7559 1.16877 10.811
2 4 1.64579 14.7343 1.98025 9.3671
5 4 1.38531 14.7792 1.60616 15.1044
47 4 1.58025 13.4715 -0.4532 13.3827
152 3 -0.856921 14.2381 0.717006 8.45902
58 4 1.53346 3.75372 11.2576 3.93244
79 1 -0.61376 4.54136 7.72107 6.2238
90 1 -0.679357 5.98782 9.34093 1.96052
229 2 0.177131 5.31707 8.0163 0.562766
183 3 -0.845418 3.11979 10.0234 3.13215
184 3 -0.794563 4.29591 12.5164 2.92615
185 3 -0.799161 2.61558 11.7098 4.96234
192 3 -0.794956 5.01935 10.6038 4.90572
242 2 0.163644 5.31496 7.89414 5.28133
243 2 0.258089 5.11122 7.70148 7.29226
274 2 0.165307 5.63701 8.29738 2.30904
275 2 0.18195 5.37256 9.71149 1.07275
276 2 0.200732 5.97213 10.0919 2.88233
278 2 0.192666 3.95677 9.68429 7.34593
244 2 0.188237 3.60579 8.34444 6.17535
283 2 0.200449 4.15787 10.9973 0.24708
38 4 1.43353 1.25057 11.1998 5.67043
139 3 -0.842652 0.790226 12.0474 6.92743
189 3 -0.795483 3.99478 12.2384 8.32545
191 3 -0.838134 7.85629 10.7128 5.12194
327 2 0.154381 8.19865 12.5638 3.09501
364 2 0.29025 11.0453 7.90014 6.75985
325 2 0.159916 9.0048 11.3778 1.79415
277 2 0.153077 7.69324 10.9222 0.335184
193 3 -0.824612 6.56096 9.59684 7.21266
91 1 -0.670794 8.46822 9.99226 0.352849
348 2 0.157345 6.12833 11.25 1.20671
349 2 0.136037 7.30005 12.9011 1.16842
346 1 -0.672773 6.34793 12.4224 0.777037
194 3 -0.824647 6.40683 12.2033 6.71087
365 2 0.162975 9.59121 10.2042 0.721858
270 2 0.184083 9.92501 6.58902 7.70023
293 2 0.26068 11.2603 7.65675 1.1237
13 4 1.36621 9.09117 10.4543 4.12298
54 4 1.24821 9.508 7.14096 5.17506
57 4 1.08815 7.84381 8.80923 1.74849
59 4 1.55341 7.894 8.7121 7.48614
61 4 1.47906 6.42608 10.7703 5.98964
88 1 -0.618875 10.6582 6.83467 6.68919
174 3 -0.780789 10.7594 6.90378 4.29433
181 3 -0.784895 8.04605 7.22603 1.16175
182 3 -0.791054 8.77505 9.21335 3.09215
186 3 -0.847134 7.32591 7.29616 8.10743
187 3 -0.8268 8.60903 8.10493 5.97332
33 4 1.27699 4.37978 6.69673 10.7649
60 4 1.46026 3.79638 11.0752 9.34204
62 4 1.38037 3.74369 10.3852 14.9944
93 1 -0.661422 5.06921 9.70375 16.2037
173 3 -0.82459 5.72935 7.23797 10.1534
280 2 0.269117 4.52258 8.76822 8.99249
190 3 -0.795923 2.44688 11.1551 10.1548
195 3 -0.869399 3.3866 9.14879 14.126
196 3 -0.795982 4.34837 11.7189 14.0499
197 3 -0.776458 2.54071 10.8557 16.1332
199 3 -0.799229 5.13664 10.7868 10.2149
281 2 0.147904 5.96984 10.1335 15.6776
282 2 0.202316 5.14911 8.54626 16.3705
227 2 0.160089 5.67824 6.71266 15.573
285 2 0.28617 5.37447 8.83039 12.1444
74 1 -0.647731 5.49873 6.52742 16.7171
148 3 -0.817879 0.884845 12.0601 12.1533
200 3 -0.793427 6.16023 12.2005 12.1505
94 1 -0.682186 6.32013 9.40823 12.2967
141 3 -0.842063 3.81017 7.6576 11.952
92 1 -0.663047 3.71989 9.36348 8.46571
273 2 0.15241 8.28716 7.5748 13.1037
284 2 0.183877 7.22284 8.82596 11.9803
272 2 0.222011 10.0894 7.2053 13.5186
286 2 0.155558 6.48705 9.95303 13.3338
63 4 1.33865 6.46425 10.9093 11.2346
366 2 0.180581 9.08266 8.82427 16.2714
356 2 0.180407 8.78984 10.5816 12.5145
357 2 0.242598 7.76423 11.9664 13.5278
206 2 0.161912 9.10908 11.0116 14.388
16 4 1.66026 9.32372 10.4931 9.55235
11 4 1.54915 12.0239 6.33195 15.3016
347 2 0.185879 6.88777 11.8602 16.6024
66 1 -0.701344 8.73454 11.3596 13.3763
89 1 -0.684876 9.36957 7.52632 12.6954
167 3 -0.842976 10.8523 6.59004 16.439
178 3 -0.809288 11.2661 6.72192 10.4854
198 3 -0.831115 8.04746 10.8213 10.317
271 2 0.205758 9.59111 8.56552 12.2945
179 3 -0.765766 8.3707 6.3409 10.3836
188 3 -0.854165 8.8863 9.35519 8.61103
56 4 1.35923 9.87851 6.32901 11.3509
53 4 1.52766 6.99492 6.42877 9.3547
ITEM: TIMESTEP
100
ITEM: NUMBER OF ATOMS
366
ITEM: BOX BOUNDS xy xz yz pp pp pp
-8.2373922000000004e+00 1.6707617800000001e+01 -8.2373922000000004e+00
-6.4910000000000001e-01 1.3422400000000000e+01 6.1496759999999995e-01
0.0000000000000000e+00 1.6908999999999999e+01 -6.4910000000000001e-01
ITEM: ATOMS id type q x y z
3 4 1.08268 0.888542 2.67997 4.805
8 4 1.29428 -0.377366 4.12025 7.33016
64 1 -0.677124 0.745846 3.75186 3.24099
65 1 -0.677579 -0.0654974 1.00198 4.58383
67 1 -0.659555 -1.87291 5.22185 6.96363
98 3 -0.804855 0.0794531 3.42809 6.04113
125 3 -0.81085 1.02787 5.29831 7.82234
201 2 0.180102 0.36801 4.76351 3.44505
202 2 0.142505 -0.0303011 3.03009 2.73561
203 2 0.16551 1.75799 3.75515 2.73623
317 1 -0.674001 -1.32136 5.04326 0.636365
209 2 0.164013 -2.10415 5.64006 5.86883
288 1 -0.658281 -2.36486 6.3712 3.93127
291 2 0.168753 -2.07565 5.28128 3.96558
310 1 -0.677578 1.50017 0.469064 7.13815
312 2 0.207117 1.51981 0.163216 6.0492
318 2 0.148019 -1.26599 5.52909 1.66391
345 2 0.160634 1.73923 5.92363 1.95587
319 2 0.225422 -2.20616 4.3341 0.543046
241 2 0.276253 1.8905 5.5911 6.28269
208 2 0.254687 -2.68379 4.55061 7.42367
207 2 0.171067 -1.4163 6.16804 7.59242
313 2 0.228745 1.80952 1.55036 7.31293
204 2 0.168404 0.664092 0.143547 4.26761
311 2 0.246475 0.587678 0.164294 7.74365
332 1 -0.661171 3.8111 0.167155 0.258428
240 2 0.137849 2.03981 6.4589 4.50248
126 3 -0.766437 5.02074 4.99985 6.67548
119 3 -0.843532 7.2614 0.378065 6.64693
25 4 1.56517 6.92298 1.84955 6.04142
341 2 0.180226 3.10028 2.92249 0.784172
246 2 0.175778 4.73914 4.56656 3.38093
31 4 0.976581 4.32314 5.92338 5.59388
118 3 -0.740253 5.33186 1.80103 5.0653
29 4 1.58058 5.70099 3.95262 7.88543
361 2 0.126452 2.67168 0.402885 0.398828
333 2 0.222025 4.42083 0.285876 1.19532
344 2 0.163251 2.80698 4.56881 0.955289
218 2 0.158702 3.18815 3.71942 2.69039
219 2 0.15488 3.62349 1.92409 2.04268
343 2 0.156605 3.69239 5.63273 2.41636
217 2 0.147129 3.2196 0.190414 2.54119
220 2 0.193772 4.95429 3.29326 2.27785
239 2 0.193124 2.71358 4.63437 4.80212
21 4 1.14354 3.92879 1.76951 4.28954
342 1 -0.65553 2.81198 5.62056 1.61134
20 4 1.55052 7.65654 0.203128 1.9675
70 1 -0.679815 3.77005 0.0369137 3.48698
71 1 -0.678476 3.93985 2.87386 2.64722
78 1 -0.65078 2.49044 5.63625 5.31117
114 3 -0.766729 2.54443 2.22389 5.07362
115 3 -0.83189 6.51251 1.17295 1.38863
358 2 0.16041 -0.502924 2.35765 0.321494
359 2 0.176422 -0.369971 4.59334 0.264465
6 4 1.53866 1.32442 1.73938 10.868
10 4 1.53511 0.235313 3.75111 13.1415
30 4 1.14555 1.70431 6.13424 8.95625
76 1 -0.698853 1.26532 5.31625 10.5204
95 3 -0.85171 -0.0193065 1.58084 10.0449
96 3 -0.812072 1.58209 0.307841 11.6781
99 3 -0.824116 -0.433371 2.76417 14.2711
100 3 -0.809103 0.867182 2.87818 11.9226
102 3 -0.83703 -2.40604 5.68048 10.2993
103 3 -0.793608 -0.770028 4.89866 12.4878
127 3 -0.77811 1.70048 4.43607 13.8062
233 2 0.250731 2.00839 4.46746 10.4838
234 2 0.208181 0.177057 4.99102 10.2116
235 2 0.206648 1.28277 5.87594 11.4851
314 1 -0.671314 0.0980801 0.963695 16.4123
315 2 0.169118 1.05859 0.901857 15.7007
32 4 1.49376 1.51587 5.95618 14.5668
337 2 0.140733 1.92998 -0.263556 15.1961
335 2 0.20232 1.88643 1.23721 14.0581
7 4 1.22098 -1.04461 5.90757 16.3961
128 3 -0.801444 2.73542 5.86232 15.9382
129 3 -0.838721 0.106281 6.02417 15.3682
101 3 -0.817985 -2.6111 5.96538 16.0367
338 1 -0.658502 3.27332 2.29275 16.639
12 4 1.40161 -1.76022 6.11463 11.649
116 3 -0.784485 3.86745 0.451964 8.81784
339 2 0.16694 2.82817 1.25074 16.3856
297 1 -0.63277 5.5484 0.926563 14.6124
249 2 0.235947 4.76021 4.32522 10.5344
296 4 0.929592 4.87301 2.5838 15.4822
298 1 -0.670668 4.85707 4.27888 14.4738
299 2 0.238437 5.47547 -0.148413 14.4477
81 1 -0.681906 4.42391 4.99445 11.3676
123 3 -0.827924 4.54153 2.98805 8.52421
250 2 0.21616 3.39508 4.67058 11.7855
340 2 0.184078 2.53881 3.1198 16.508
360 2 0.217008 4.87667 0.0624624 16.2377
122 3 -0.821783 7.15963 0.286676 12.5789
302 2 0.181186 4.57718 4.14085 13.3745
300 2 0.235302 6.63962 1.27078 14.7259
304 2 0.247388 4.04558 4.85854 15.0783
334 1 -0.67135 2.45696 0.324103 14.3704
120 3 -0.790355 6.07063 2.52659 16.4652
117 3 -0.846727 2.85654 2.44383 10.2754
336 2 0.177535 3.57991 0.559702 14.4845
24 4 1.60164 4.17821 1.90527 9.64934
27 4 1.36504 6.93257 1.5156 11.6058
301 2 0.127341 5.05076 1.55723 13.5938
121 3 -0.80975 5.38557 1.76784 10.6736
97 3 -0.80513 -1.11456 3.16127 8.46636
15 4 1.385 -2.81719 8.89107 7.61566
17 4 1.56646 -4.26936 10.8994 5.78122
106 3 -0.82928 -5.72293 10.6723 4.97818
107 3 -0.823491 -4.06103 9.54398 6.78298
108 3 -0.822422 -4.50848 12.1942 6.72114
133 3 -0.865821 -2.99243 10.9442 4.77727
214 2 0.20578 -2.21387 8.71434 5.32849
255 2 0.167293 -2.56442 9.10417 2.53551
289 1 -0.653268 -4.05393 7.85882 1.74767
294 2 0.145499 -2.87355 7.96608 1.27291
216 2 0.260461 -3.407 13.0008 3.43587
326 2 0.169759 -6.19072 12.4312 3.09539
328 1 -0.679345 -4.50849 10.729 1.4918
329 2 0.186613 -3.50151 10.6767 2.08937
330 2 0.160222 -4.64217 9.8554 0.715783
331 2 0.173563 -5.47933 11.0842 2.08546
362 2 0.177152 -5.1089 13.0465 4.45328
295 2 0.207384 -4.42573 8.81644 2.32967
1 4 1.41074 -5.36298 12.8265 7.95681
324 1 -0.67635 -7.19773 11.931 2.93581
292 2 0.174325 -2.31398 6.98489 4.91919
322 2 0.200351 -1.75412 8.94878 0.488057
34 4 1.38413 2.05803 9.47865 2.11291
131 3 -0.833921 2.52183 8.40845 1.00736
36 4 1.58179 0.575888 11.3109 0.163334
83 1 -0.658145 -1.68904 9.82392 2.73984
323 2 0.249366 0.0151646 8.41132 0.0285431
259 2 0.165995 0.638008 8.76696 6.24126
258 2 0.156955 2.07171 8.98248 4.99929
69 1 -0.707155 -1.56711 8.45422 6.19532
254 2 0.181981 -1.61467 10.5611 1.85139
354 3 -0.825309 -0.000100617 12.7026 0.769694
321 2 0.125725 -0.751433 7.83113 1.66216
28 4 1.14882 2.92539 7.06205 0.296415
134 3 -0.850137 1.05232 10.5302 1.49972
320 1 -0.648556 -0.982136 8.15434 0.558658
35 4 1.40804 -1.60641 11.2651 4.05041
82 1 -0.681989 1.07863 8.20175 3.17561
84 1 -0.685526 1.54453 9.36876 5.99359
132 3 -0.807352 -1.45029 12.6558 3.20994
23 4 1.62632 -0.106329 13.0691 7.80979
138 3 -0.849669 -0.226366 11.0459 4.86635
213 2 0.205082 -0.710839 9.18546 6.25053
215 2 0.160879 -1.21425 7.4133 6.27509
230 2 0.176178 1.06757 8.46184 7.81853
251 2 0.13994 1.92565 7.48684 3.63539
252 2 0.14425 0.302334 7.64989 2.54574
253 2 0.176047 0.59069 8.78618 3.98502
256 2 0.180774 -0.651447 9.15628 2.86984
135 3 -0.826878 -2.02088 10.011 8.44372
38 4 1.43823 1.14385 11.2285 5.64875
290 2 0.122274 -1.98064 6.98669 2.96074
4 4 1.19768 -6.05067 12.6091 12.6452
18 4 1.57319 -2.97931 8.40405 13.4004
19 4 1.57764 -4.21078 10.6168 11.3622
68 1 -0.668991 -4.93258 10.8623 15.4356
105 3 -0.850927 -6.22403 11.7096 8.8013
109 3 -0.804458 -4.00416 7.9293 14.5787
110 3 -0.851415 -2.58074 7.01837 12.6502
111 3 -0.85398 -5.47795 10.2265 10.499
112 3 -0.847583 -3.72125 9.39618 12.3399
113 3 -0.806192 -4.60506 11.9097 12.3518
137 3 -0.79751 -2.78394 11.036 10.4872
145 3 -0.785533 -2.21917 10.8821 16.0895
210 2 0.175338 -5.313 11.97 15.102
211 2 0.162449 -5.69974 10.2601 16.0944
212 2 0.240749 -4.45334 10.285 14.6312
279 2 0.17897 2.6129 8.89111 8.57444
14 4 0.960388 -3.65822 11.1129 16.7775
104 3 -0.831838 -3.19976 7.57664 8.54032
142 3 -0.850813 -1.63792 9.16776 14.0349
232 2 0.174065 -0.297924 7.87951 8.92406
143 3 -0.83934 0.0918132 9.84611 16.0268
144 3 -0.866205 -0.586411 11.623 14.2446
26 4 1.65314 0.0454304 12.7507 13.2931
146 3 -0.89553 -0.212298 10.253 10.3882
147 3 -0.864659 1.58637 9.32981 11.9594
236 2 0.272668 -0.648075 8.38193 12.0259
238 2 0.201183 -0.809802 7.9133 10.1962
237 2 0.193781 0.495359 7.01985 11.4315
75 1 -0.66514 0.851993 7.95704 8.8185
37 4 1.64552 -1.4371 10.9705 9.6256
39 4 1.58099 2.54661 8.32157 12.8182
40 4 1.61073 -1.03796 10.3278 15.0399
41 4 1.62928 1.14126 10.6008 11.1395
130 3 -0.808711 3.28979 6.56644 9.32715
77 1 -0.658209 -0.539642 7.5595 11.275
231 2 0.208778 1.35828 8.47417 9.73087
136 3 -0.845331 -1.04318 12.3846 8.87895
140 3 -0.875975 1.70507 7.07545 13.4922
22 4 1.27313 6.76726 2.60679 0.450426
42 4 1.60088 9.20685 2.03922 3.88234
72 1 -0.694629 6.73628 4.07463 1.66831
86 1 -0.703474 8.30078 5.76067 4.55682
87 1 -0.685623 9.44833 4.49476 7.08161
124 3 -0.880825 6.79724 3.02426 7.17079
149 3 -0.827203 8.91397 0.871426 2.8126
150 3 -0.860773 7.97304 2.24385 4.9315
164 3 -0.880002 9.54159 3.45406 3.00959
168 3 -0.830023 9.51178 4.95725 0.860537
221 2 0.252679 7.75684 4.55192 1.46425
222 2 0.19868 6.72542 3.63643 2.69728
223 2 0.187589 5.83187 4.63222 1.32332
263 2 0.200507 7.66008 5.44906 5.4374
264 2 0.248503 8.8471 4.9333 3.98019
266 2 0.270769 8.48466 3.90381 7.07928
268 2 0.206131 9.20293 5.55977 7.41164
267 2 0.169454 10.0508 4.42527 6.1333
80 1 -0.658997 5.17836 5.59432 3.78533
247 2 0.18639 6.36832 5.59443 4.09391
51 4 1.31403 8.99376 6.38897 0.11671
44 4 1.53503 13.5452 -0.129149 7.3419
245 2 0.143503 4.88779 6.46373 3.21102
152 3 -0.858369 14.402 0.906268 8.21064
165 3 -0.850025 11.0809 2.92191 0.925224
355 2 0.231804 15.5935 0.690596 5.56538
170 3 -0.854943 11.6653 2.78841 7.17169
166 3 -0.83808 11.6638 5.05996 2.51127
260 2 0.169103 12.9082 3.09731 4.09644
261 2 0.194685 14.2865 2.01231 4.93195
306 1 -0.671176 13.9632 1.42357 2.13622
269 2 0.185362 11.1397 6.21469 6.52616
205 2 0.153556 15.2919 1.17689 3.70637
309 2 0.173445 13.7122 1.88805 3.19289
307 3 -0.759942 12.0997 0.484134 0.51789
308 2 0.200812 13.6199 2.11585 1.31134
287 4 1.19532 11.9637 6.43399 3.14345
155 3 -0.81427 10.5014 1.91478 4.81659
46 4 1.40218 11.8874 1.88151 5.84483
50 4 1.58546 10.4278 4.07617 1.87401
52 4 1.38184 10.8238 3.77293 8.21719
85 1 -0.677216 13.3774 2.7328 5.06169
363 2 0.12126 15.0671 0.955703 1.93409
156 3 -0.823567 12.4836 0.490399 6.18341
262 2 0.19559 13.6984 3.67225 5.75705
228 2 0.155416 5.02436 6.09946 0.213472
45 4 1.62592 9.58837 1.57831 9.76893
48 4 1.6342 9.72934 1.59323 15.0029
352 2 0.168704 7.21661 5.70765 16.1289
73 1 -0.698219 7.12498 3.1707 12.5185
154 3 -0.820231 8.28449 1.50027 10.6355
158 3 -0.865834 9.06658 0.510734 14.085
160 3 -0.82209 8.66032 1.94822 16.2525
169 3 -0.8254 9.92962 3.152 9.46428
172 3 -0.84697 6.36554 4.98132 8.92916
175 3 -0.847891 10.0113 3.05658 14.1313
180 3 -0.838692 10.0065 4.97872 12.1946
224 2 0.216446 7.42105 3.86625 11.6652
225 2 0.231746 8.07207 2.98023 13.1097
350 1 -0.681187 8.28838 5.24191 15.7401
351 2 0.182896 8.6223 5.57264 14.7531
353 2 0.234796 8.28523 4.1047 15.8881
56 4 1.43181 9.75406 6.26583 11.2081
303 2 0.159997 5.9132 4.79141 14.6329
248 2 0.162649 5.23892 4.99799 12.1855
153 3 -0.856007 9.2293 0.635932 8.49548
171 3 -0.833654 11.603 5.10706 8.58258
55 4 1.60242 10.8928 4.0843 13.2367
177 3 -0.843265 11.6118 5.10046 14.2443
316 2 0.170212 15.8124 -0.126467 16.7794
157 3 -0.837398 14.6107 0.284811 14.3059
43 4 1.6055 12.2055 1.3542 16.6702
151 3 -0.826755 13.5933 2.08399 15.9969
159 3 -0.86246 11.1142 1.15706 15.6041
163 3 -0.818588 12.5114 0.450986 12.6202
161 3 -0.854353 13.5002 2.00372 10.5431
49 4 1.63117 12.2845 1.71003 11.5687
176 3 -0.79435 12.014 3.15036 12.3216
162 3 -0.793308 10.9575 1.22298 10.7156
2 4 1.66408 14.6797 1.90159 9.40145
5 4 1.38376 14.9156 1.60655 15.1657
226 2 0.169469 6.33105 3.53821 13.2284
179 3 -0.830266 8.49114 6.24906 10.2856
58 4 1.60167 3.80679 11.2877 4.01087
79 1 -0.661945 4.36828 7.77298 5.95802
90 1 -0.685853 6.03615 9.24809 1.89049
229 2 0.171655 5.28353 7.91137 0.523665
183 3 -0.81695 3.31607 10.1034 2.99953
184 3 -0.796198 4.34291 12.373 2.88908
185 3 -0.800378 2.43788 11.7928 4.79955
192 3 -0.844224 4.98767 10.7984 4.82598
242 2 0.16309 4.90485 7.95528 4.96266
243 2 0.253694 5.01717 7.92935 6.77629
274 2 0.168863 5.75593 8.1952 2.10579
275 2 0.167098 5.48774 9.56851 0.846598
276 2 0.222131 5.86535 9.96023 2.75649
278 2 0.189845 3.90009 9.90502 7.37231
244 2 0.176835 3.31137 8.37577 6.00232
283 2 0.190636 4.2505 10.8588 0.215246
187 3 -0.772069 8.68884 8.21673 5.88526
139 3 -0.811878 0.931894 11.8372 7.04964
305 4 1.1799 4.83503 13.2484 1.64921
191 3 -0.881155 7.74202 11.0108 5.01809
327 2 0.174938 8.09959 12.6687 3.12494
364 2 0.311623 10.9722 8.13639 6.86263
325 2 0.167097 8.8204 11.3468 1.96082
277 2 0.153386 7.7918 10.8679 0.493975
193 3 -0.830412 6.53053 9.60025 7.08161
91 1 -0.675001 8.56646 9.98939 0.462123
348 2 0.168112 6.17688 11.1235 1.16939
349 2 0.135222 7.30967 12.6256 0.996424
346 1 -0.678391 6.30401 12.2055 0.677592
194 3 -0.835805 6.40299 12.3044 6.73814
365 2 0.160095 9.7178 10.1891 0.750986
270 2 0.22405 9.87439 6.81302 7.83237
293 2 0.256338 11.3479 7.61291 0.897091
13 4 1.41594 8.98752 10.4862 4.25511
54 4 1.13629 9.53721 7.06084 5.20781
57 4 1.1412 7.93072 8.8675 1.85547
59 4 1.47115 7.876 8.67069 7.43754
61 4 1.49841 6.46732 10.8987 5.90359
88 1 -0.623613 10.4534 7.05549 6.82484
174 3 -0.789389 11.0459 7.07705 4.19307
181 3 -0.76762 8.12033 7.24696 1.34981
182 3 -0.823272 8.71418 9.26747 3.09034
186 3 -0.858306 7.52052 7.13138 7.96654
188 3 -0.859457 9.08395 9.33981 8.40254
92 1 -0.665234 3.71372 9.4218 8.40898
257 2 0.15054 2.3535 9.46657 6.97172
265 2 0.183681 7.80218 6.57574 3.88421
33 4 1.31875 4.27343 6.715 10.6073
60 4 1.44856 3.7513 11.0608 9.39075
62 4 1.346 3.77054 10.4574 15.058
93 1 -0.661928 5.09295 9.61956 16.1094
173 3 -0.812893 5.93683 7.18158 10.2044
280 2 0.250955 4.5825 8.8789 8.8637
190 3 -0.847831 2.35954 11.0702 10.164
195 3 -0.806569 3.30034 9.2723 13.8808
196 3 -0.795834 4.54399 11.74 14.2945
197 3 -0.79086 2.52289 10.8247 16.1227
199 3 -0.807345 5.14336 10.7371 10.2513
281 2 0.143515 6.06041 10.0006 15.5347
282 2 0.189029 5.14408 8.45737 16.284
227 2 0.167294 5.73974 6.62605 15.707
285 2 0.261813 5.49379 8.77592 11.884
74 1 -0.689931 5.42958 6.49039 16.7344
148 3 -0.802945 0.880132 11.9613 12.1472
200 3 -0.860462 6.13041 12.1386 12.1616
94 1 -0.647249 6.47736 9.34281 12.1346
141 3 -0.849067 3.59584 7.6042 11.8083
53 4 1.54832 7.05763 6.41705 9.31724
273 2 0.147752 8.31199 7.9271 12.777
284 2 0.188419 7.35531 8.62824 12.0251
272 2 0.194152 9.80092 7.14461 13.4968
286 2 0.158587 6.39341 9.84356 13.1561
63 4 1.42294 6.47726 10.9775 11.1338
366 2 0.165381 9.11185 8.79851 16.3311
356 2 0.190679 8.52009 10.8406 12.7344
357 2 0.229189 7.96033 12.2887 13.7725
206 2 0.162137 9.19275 10.919 14.5027
16 4 1.62074 9.3825 10.4273 9.46626
11 4 1.50584 12.0449 6.28691 15.2787
347 2 0.172382 6.80694 11.4961 16.4452
66 1 -0.697127 8.81486 11.5412 13.5545
89 1 -0.667487 9.40101 7.59513 12.5514
167 3 -0.865074 10.8104 6.4944 16.3715
178 3 -0.831934 11.1407 6.83285 10.4804
198 3 -0.826047 7.9472 10.7827 10.4726
271 2 0.232591 10.1273 8.43498 12.2764
47 4 1.60103 5.29867 12.8713 13.325
189 3 -0.77606 4.28512 12.2014 8.46843
9 4 1.52962 12.3156 6.35552 9.53694
ITEM: TIMESTEP
200
ITEM: NUMBER OF ATOMS
366
ITEM: BOX BOUNDS xy xz yz pp pp pp
-8.2208843999999992e+00 1.6674135600000000e+01 -8.2208843999999992e+00
-6.4910000000000001e-01 1.3422400000000000e+01 6.1373520000000070e-01
0.0000000000000000e+00 1.6908999999999999e+01 -6.4910000000000001e-01
ITEM: ATOMS id type q x y z
3 4 1.07491 0.799711 2.46661 4.93066
8 4 1.26108 -0.419722 4.18456 7.4798
64 1 -0.659358 0.688106 3.37825 3.32704
65 1 -0.671203 -0.300833 0.851251 4.82828
67 1 -0.672779 -1.89887 5.19726 6.88573
98 3 -0.782418 0.028024 3.36604 6.17871
125 3 -0.803248 1.08149 5.29428 7.78022
201 2 0.165309 -0.0150641 4.31189 3.48049
202 2 0.151035 0.204084 2.52024 2.72891
203 2 0.171792 1.71052 3.65819 2.91497