ITEM: TIMESTEP
0
ITEM: NUMBER OF ATOMS
366
ITEM: BOX BOUNDS xy xz yz pp pp pp
-8.2538999999999998e+00 1.6741099999999999e+01 -8.2538999999999998e+00
-6.4910000000000001e-01 1.3422400000000000e+01 6.1619999999999997e-01
0.0000000000000000e+00 1.6908999999999999e+01 -6.4910000000000001e-01
ITEM: ATOMS id type q x y z
3 4 1.04845 0.749599 2.53725 4.7515
8 4 1.25193 -0.268124 4.12615 7.38832
361 2 0.174421 3.79125 0.210111 0.789359
21 4 1.19168 4.06846 2.06882 4.3792
216 2 0.281726 5.23884 -0.0438768 3.26624
312 2 0.224193 1.44301 0.651529 6.43002
338 1 -0.650029 2.69776 1.89883 0.332566
64 1 -0.675934 0.389807 3.51299 3.25573
65 1 -0.675483 -0.300365 0.843823 4.72323
67 1 -0.674392 -1.62236 5.30462 6.91031
70 1 -0.648046 4.21258 0.341418 3.51385
71 1 -0.669305 4.25101 3.27513 2.87394
78 1 -0.664477 2.68335 5.58658 5.05273
98 3 -0.784774 0.182344 3.275 6.08223
114 3 -0.751314 2.56953 2.11828 4.9398
239 2 0.15992 2.27685 6.52964 4.4098
118 3 -0.78898 5.36939 2.10102 5.24773
119 3 -0.812929 7.06696 0.468544 6.86449
220 2 0.165735 4.93484 4.25601 3.29671
125 3 -0.810142 1.24673 5.27073 7.62026
25 4 1.56011 6.81804 1.91896 6.18165
201 2 0.181556 -0.529041 4.29501 3.45635
202 2 0.1513 0.262563 2.82707 2.32964
203 2 0.151926 1.33507 4.11144 3.17898
290 2 0.158508 -1.40772 6.36583 4.30065
341 2 0.163116 3.25473 2.38239 1.29564
339 2 0.142859 2.24742 0.862993 0.51464
311 2 0.275203 0.556564 0.465143 7.94263
209 2 0.165742 -1.76365 5.41073 5.71722
115 3 -0.8373 6.90401 1.14873 1.23283
217 2 0.144382 3.60257 0.743831 2.58402
218 2 0.146788 3.23259 3.60121 2.45776
219 2 0.177869 4.8244 2.56211 2.18267
342 1 -0.647389 4.28935 5.76455 0.677617
344 2 0.18089 3.53802 4.92431 0.545478
241 2 0.183969 2.67203 4.64241 4.46767
358 2 0.141162 -1.13741 2.04999 0.519852
288 1 -0.664646 -2.05143 5.63986 3.72614
291 2 0.155063 -1.65274 5.40678 2.6242
292 2 0.162448 -2.25009 4.58384 4.25953
359 2 0.192781 -0.931403 4.084 0.193037
310 1 -0.670862 1.45711 0.864818 7.53688
240 2 0.277301 2.15034 5.42471 6.11829
313 2 0.22596 1.6065 1.95907 7.84305
317 1 -0.651678 -1.26032 5.10826 0.672616
318 2 0.145061 -0.485631 5.68341 1.2767
319 2 0.167877 -2.24022 4.95089 1.30111
207 2 0.157217 -1.04685 6.27828 7.28083
204 2 0.199773 0.390637 -0.0501574 4.55457
208 2 0.240452 -2.53531 5.07156 7.50994
126 3 -0.800596 5.0467 4.88624 6.65532
20 4 1.56358 7.99789 -0.0481703 1.90429
6 4 1.60247 1.2072 1.5671 10.988
120 3 -0.765064 5.83985 2.01541 16.4244
334 1 -0.675424 2.01453 0.068142 14.3535
10 4 1.62197 0.00952194 3.84632 13.0148
315 2 0.15846 0.892282 2.38166 16.4856
24 4 1.55944 4.02449 1.98382 9.73035
336 2 0.165857 2.61437 1.11235 14.1785
27 4 1.39968 6.76524 1.67216 11.861
299 2 0.239145 6.06347 -0.451071 15.2577
76 1 -0.66199 1.28473 5.20729 10.3996
81 1 -0.679038 4.6492 5.24267 11.5352
95 3 -0.863909 -0.0623328 1.32655 10.0923
96 3 -0.829371 1.58661 0.222332 11.8365
7 4 1.22145 -0.851382 6.02202 16.3553
99 3 -0.847503 -0.824699 3.06843 14.1602
100 3 -0.825889 0.734817 2.80431 12.0749
335 2 0.19313 0.881524 0.184314 14.2679
102 3 -0.817511 -2.63625 5.76237 10.208
103 3 -0.844825 -0.988952 4.84171 12.3048
116 3 -0.811635 3.94218 0.624618 8.7693
117 3 -0.889015 2.5135 2.22975 10.3089
121 3 -0.784553 5.21653 1.8645 10.9046
122 3 -0.835599 6.96598 0.420627 12.784
123 3 -0.810764 4.51701 3.23856 8.80251
127 3 -0.834556 1.36134 4.70478 13.6316
12 4 1.43292 -1.83432 6.07459 11.6203
233 2 0.268315 1.79778 4.20142 10.3907
234 2 0.196985 0.1478 5.10282 10.1316
235 2 0.197287 1.43914 5.8271 11.4054
249 2 0.237826 4.83097 4.34489 10.7173
316 2 0.160349 0.404039 0.62328 15.9142
296 4 0.933275 4.57853 1.5112 15.7262
297 1 -0.629188 4.93718 -0.157102 14.9346
298 1 -0.691079 3.73486 2.7669 14.2909
97 3 -0.793508 -0.951298 3.34677 8.66452
300 2 0.212604 4.85709 0.253377 13.8534
32 4 1.53585 1.63711 6.02796 14.4057
302 2 0.174106 4.04216 2.35408 13.317
303 2 0.19836 4.2849 3.68872 14.4734
304 2 0.221229 2.66156 2.87871 14.376
226 2 0.163175 5.57732 3.02878 13.5383
314 1 -0.683805 0.066314 1.63744 16.3228
30 4 1.1948 1.81894 6.07833 8.79003
250 2 0.199966 3.67029 5.08349 12.0804
340 2 0.145091 2.56033 1.97869 16.7232
128 3 -0.783809 3.07117 5.86265 15.5123
101 3 -0.827545 -2.43794 6.0597 15.9269
337 2 0.144204 2.4113 -0.455531 15.2841
332 1 -0.633837 -3.86885 12.6506 1.00593
15 4 1.34143 -2.98792 9.04523 7.59242
17 4 1.56422 -4.32561 11.1234 5.80397
293 2 0.173971 -2.95669 7.55564 1.53495
35 4 1.42889 -1.63035 11.3571 4.11044
244 2 0.166305 3.3279 7.65286 6.48333
69 1 -0.673583 -2.27953 8.16884 6.08704
82 1 -0.677898 1.74234 8.08731 3.22384
83 1 -0.68781 -1.89184 9.59773 3.23325
84 1 -0.671244 1.18089 9.48962 6.03294
106 3 -0.786944 -5.55332 10.975 4.6638
107 3 -0.855971 -4.02006 9.93827 6.84062
108 3 -0.784462 -4.79428 12.4634 6.60652
132 3 -0.822341 -1.40425 12.438 2.91722
133 3 -0.840883 -2.89747 11.4984 5.02224
134 3 -0.815748 1.08481 10.0632 1.22427
138 3 -0.84017 -0.265792 11.295 4.83323
213 2 0.183194 -2.2875 8.81309 5.09202
214 2 0.205579 -2.99305 7.30867 5.96145
215 2 0.156512 -1.24116 7.87058 6.37058
230 2 0.181439 0.968781 8.35223 7.71934
326 2 0.153408 -5.83754 13.1094 3.04575
331 2 0.25248 -5.45829 9.87731 1.80516
289 1 -0.662457 -3.98181 7.02737 1.83294
252 2 0.148606 1.90135 7.14054 2.59073
253 2 0.162361 0.685113 8.37562 3.51481
254 2 0.184626 -1.81072 9.95007 2.13009
255 2 0.166841 -2.9286 9.24177 3.54086
256 2 0.157378 -0.990688 9.01712 3.68775
1 4 1.41582 -5.38804 13.0877 8.09211
258 2 0.168384 1.38489 8.94306 4.99611
259 2 0.187238 0.0844386 9.32875 6.44389
330 2 0.209593 -4.52368 9.00526 0.503225
327 2 0.156827 -7.93082 13.2241 2.87623
360 2 0.2493 -2.75031 12.8372 0.884838
320 1 -0.667724 -1.16922 8.08651 0.756361
325 2 0.147151 -6.9343 11.9937 1.66746
322 2 0.149415 -1.44493 7.73266 1.84468
23 4 1.67299 -0.2277 13.1105 7.94612
324 1 -0.661368 -7.01062 12.5798 2.72751
321 2 0.270562 -0.203919 8.67052 0.734388
251 2 0.162236 2.5541 8.29436 3.94019
333 2 0.155437 -4.22573 11.9277 2.00367
328 1 -0.698986 -4.44632 9.83414 1.28538
329 2 0.171354 -3.48385 9.78008 1.99713
323 2 0.18606 -2.05655 8.695 0.254584
354 3 -0.853192 0.289045 12.6082 0.664388
135 3 -0.845083 -1.75124 9.67933 8.37598
362 2 0.225778 -4.63397 12.9865 4.19918
279 2 0.177129 2.52031 8.83996 8.41052
257 2 0.158271 2.05132 9.38388 6.86674
38 4 1.39897 1.10271 11.3195 5.66104
129 3 -0.820058 0.326317 6.21631 15.3744
28 4 1.13063 4.1899 6.48518 16.4993
238 2 0.199006 -0.76192 7.87633 10.0798
18 4 1.58087 -3.00202 8.39897 13.3972
19 4 1.61121 -4.21712 10.5438 11.3385
212 2 0.12655 -5.72104 11.7925 15.9958
26 4 1.62385 -0.0566612 12.8521 13.2934
211 2 0.208534 -4.77332 10.8674 14.5691
37 4 1.60594 -1.5861 10.8587 9.5887
39 4 1.56969 2.63519 8.53178 12.976
40 4 1.59897 -0.998766 10.1717 14.9558
41 4 1.60933 0.980666 10.8061 11.3054
68 1 -0.668265 -5.27207 10.8193 15.577
75 1 -0.679734 0.853845 7.76281 8.7018
77 1 -0.659981 -0.542852 7.45426 11.1941
301 2 0.180909 -4.14575 12.4219 15.1338
105 3 -0.839326 -6.34896 11.9867 8.85214
109 3 -0.847439 -3.98615 7.92687 14.5947
110 3 -0.833726 -2.71396 6.98319 12.5787
111 3 -0.862518 -5.62545 10.1314 10.6204
112 3 -0.867268 -3.58654 9.43674 12.2454
113 3 -0.808049 -4.6026 11.8412 12.3907
232 2 0.167591 -0.306478 7.56246 8.82155
231 2 0.194026 1.25592 8.35095 9.57961
237 2 0.19365 0.506221 7.03843 11.2265
14 4 0.962226 -3.64539 10.4778 16.8432
136 3 -0.84053 -1.12607 12.258 8.91581
137 3 -0.828185 -3.13898 11.0306 10.2897
140 3 -0.871874 1.77623 7.24786 13.3648
142 3 -0.852023 -1.58891 8.97644 14.0459
143 3 -0.856843 0.232397 9.81989 15.8532
144 3 -0.861541 -0.645772 11.5817 14.1662
145 3 -0.80316 -2.31132 10.4238 16.0179
146 3 -0.860551 -0.490308 10.3855 10.6158
147 3 -0.848791 1.60644 9.68107 12.1607
236 2 0.260634 -0.705979 8.28218 12.0154
4 4 1.21304 -6.02045 12.5424 12.7617
130 3 -0.791993 3.24008 6.35881 9.30355
104 3 -0.777859 -3.75084 7.61765 8.6572
36 4 1.58215 1.32538 10.5817 16.8603
22 4 1.34098 6.83107 2.48323 0.42459
42 4 1.56454 9.28236 1.84722 3.84133
305 4 1.14933 13.3051 0.0114998 1.72301
46 4 1.43422 11.8481 1.74013 5.85884
50 4 1.58923 10.3941 3.94321 1.99677
263 2 0.17749 7.75188 6.35068 4.92135
52 4 1.36836 10.5147 3.57667 8.04401
72 1 -0.675348 6.80472 3.93839 1.61207
85 1 -0.673387 13.358 2.82239 5.203
205 2 0.162979 15.0917 1.01407 3.78017
87 1 -0.688692 9.50506 4.04449 6.51344
124 3 -0.855714 6.73752 2.98766 7.4323
149 3 -0.830452 9.1218 0.557744 2.83842
150 3 -0.851818 7.98349 1.975 4.99791
270 2 0.21265 9.5193 6.23873 7.34743
155 3 -0.835514 10.6904 1.78812 4.6536
156 3 -0.824472 12.7224 0.490709 6.11182
164 3 -0.852046 9.30728 3.18087 2.92571
165 3 -0.855783 11.3213 2.95609 1.10589
166 3 -0.831807 11.2733 4.80888 3.12769
168 3 -0.865995 9.58144 4.97789 1.08018
170 3 -0.844926 11.3557 2.42327 7.20064
221 2 0.269767 7.84387 4.44018 1.47142
222 2 0.200391 6.66751 3.51739 2.62134
223 2 0.191236 5.86785 4.65475 1.30866
246 2 0.183771 6.1866 4.87865 3.82757
260 2 0.18191 12.7388 3.15218 4.25545
261 2 0.202235 14.2452 2.12187 5.04958
269 2 0.172 10.9845 5.45234 6.42997
245 2 0.125393 5.05938 6.31501 3.12827
264 2 0.217077 9.13619 5.21448 4.42898
355 2 0.231081 15.2679 0.846123 5.659
266 2 0.251852 8.97859 3.1126 5.93305
267 2 0.162717 10.1391 4.63217 5.78923
268 2 0.191799 8.73802 4.69676 7.09468
287 4 1.10626 12.0346 6.18497 3.41408
80 1 -0.670753 5.76188 5.91221 3.99751
306 1 -0.655377 14.0413 1.73864 2.2271
307 3 -0.769857 12.2964 0.529601 0.480956
308 2 0.190387 13.9193 2.55296 1.43441
309 2 0.184627 13.7952 2.13046 3.30238
152 3 -0.872193 14.4874 0.713485 8.21531
51 4 1.27504 9.22893 6.30186 0.244582
295 2 0.238816 11.9247 6.15916 1.1285
262 2 0.181643 13.5951 3.74445 5.90138
86 1 -0.682325 8.71203 6.22872 4.31737
44 4 1.56703 13.5578 -0.260817 7.3718
29 4 1.59248 5.68919 4.06169 7.92812
345 2 0.143991 4.53881 6.13471 1.82303
363 2 0.0967226 15.2159 1.25499 2.1265
31 4 0.966755 4.5264 5.90566 5.56732
2 4 1.59287 14.7526 1.80277 9.3711
5 4 1.35381 14.8059 1.89126 15.0556
350 1 -0.706196 8.64343 5.42058 15.6765
45 4 1.66597 9.26933 1.72176 9.93886
351 2 0.195044 9.28362 5.7493 14.8041
48 4 1.63404 9.77397 1.57277 15.1173
49 4 1.64731 12.1638 1.88595 11.4773
55 4 1.60393 10.8239 4.05614 13.4058
153 3 -0.870861 8.8414 0.67939 8.83101
228 2 0.152782 6.10182 6.04858 14.7923
151 3 -0.835482 13.4471 2.10116 15.9649
353 2 0.221781 8.59472 4.29388 15.726
154 3 -0.835981 8.04146 1.89691 10.9613
157 3 -0.80749 14.5205 0.263152 14.196
158 3 -0.843823 9.00389 0.453088 14.2434
159 3 -0.86848 11.1642 1.14093 15.7186
160 3 -0.836102 8.67139 2.04263 16.3772
161 3 -0.816556 13.4216 2.04329 10.4209
162 3 -0.790746 10.775 1.35373 10.7604
163 3 -0.846286 12.5415 0.829437 12.5718
169 3 -0.850093 9.56426 3.13308 9.19815
73 1 -0.658342 6.71523 3.12688 13.0854
172 3 -0.826533 6.37613 5.2188 8.94522
175 3 -0.859586 10.0038 2.90416 14.2015
176 3 -0.802764 11.7822 3.30419 12.3145
177 3 -0.817053 11.7395 5.08004 14.4262
47 4 1.64212 13.4898 -0.329842 13.1435
180 3 -0.818941 9.74756 4.9797 12.6333
224 2 0.189476 6.81135 4.04129 12.3577
225 2 0.23854 7.55012 3.15527 13.796
9 4 1.53753 12.0673 6.19654 9.59539
352 2 0.169004 7.66091 6.00458 15.6355
43 4 1.641 12.3259 1.3509 16.7356
248 2 0.158581 5.55891 5.53146 12.1614
171 3 -0.791712 11.5639 4.90822 8.5516
343 2 0.147551 5.89486 5.01223 16.8693
13 4 1.30421 9.08732 10.9532 3.73151
348 2 0.172465 5.98508 11.1362 1.33274
54 4 1.20228 9.92597 7.35487 5.32069
57 4 1.0362 7.68445 8.86179 1.60196
58 4 1.48847 3.85243 11.2945 3.87338
59 4 1.54578 8.04824 8.78826 7.37571
61 4 1.54943 6.42033 10.7829 5.76342
79 1 -0.665663 4.41269 7.73034 6.27546
131 3 -0.807689 3.14003 8.35235 0.576344
283 2 0.209648 4.25744 11.0261 0.165753
90 1 -0.658201 6.06877 8.67981 2.52418
349 2 0.164297 7.41744 12.3304 1.73378
347 2 0.160965 6.49786 12.5075 0.0303459
139 3 -0.796639 0.871477 12.054 7.11163
92 1 -0.669797 3.52286 9.48565 8.26365
174 3 -0.809325 11.3083 7.20248 4.5474
181 3 -0.751859 8.24246 7.39353 1.53716
182 3 -0.778205 9.06511 9.89962 2.57903
183 3 -0.828942 3.40068 10.1951 2.68504
184 3 -0.766957 4.52835 12.6251 3.02676
185 3 -0.775957 2.44305 11.6505 4.70216
186 3 -0.845895 7.72622 7.17015 7.89535
187 3 -0.768469 9.0315 8.56199 5.9139
189 3 -0.773116 4.02062 12.3644 8.28898
191 3 -0.809014 7.63573 10.9596 4.62436
192 3 -0.845604 4.99747 10.6814 5.01144
193 3 -0.832755 6.73149 9.46728 6.77181
194 3 -0.818829 6.34903 12.0639 6.77595
242 2 0.210939 4.60036 8.5315 5.48727
243 2 0.248433 5.11736 7.79307 7.15017
346 1 -0.670111 6.41853 12.1873 1.1076
34 4 1.3198 2.41141 9.30561 1.78154
364 2 0.268369 11.248 7.11149 7.48984
274 2 0.183501 5.88606 7.66843 3.08719
275 2 0.184884 5.29974 8.80524 1.65014
276 2 0.201731 6.14178 9.65623 3.18696
88 1 -0.661337 10.4859 6.47862 6.82011
278 2 0.195847 3.68314 9.93228 7.21463
247 2 0.170564 6.58982 6.71668 4.18281
265 2 0.261424 8.66 6.67373 3.23342
294 2 0.213026 11.2445 7.8221 2.103
16 4 1.58347 9.24241 10.6276 9.55264
33 4 1.20754 4.38631 6.8178 10.6188
53 4 1.53052 7.07274 6.58865 9.30318
60 4 1.38805 3.51744 11.1321 9.2503
62 4 1.40151 3.76536 10.7508 14.9523
63 4 1.37098 6.18269 11.0709 11.1708
179 3 -0.812713 8.24571 6.39813 10.5221
74 1 -0.66797 5.75645 7.00076 15.3322
89 1 -0.671371 9.49253 7.86079 12.5686
93 1 -0.671485 5.25914 10.1203 16.0189
94 1 -0.678137 6.07941 9.67411 12.4692
141 3 -0.820141 3.73138 7.9875 11.92
178 3 -0.829521 10.9773 6.53562 10.6687
366 2 0.168405 7.12807 9.30804 16.4234
173 3 -0.801447 5.82156 7.47897 9.92014
66 1 -0.688122 8.91255 11.1103 13.0266
188 3 -0.873617 8.82009 9.59837 8.46595
190 3 -0.782665 2.04042 11.1019 9.98403
195 3 -0.84853 3.31347 9.36997 14.1446
196 3 -0.832804 4.40326 11.8912 13.9372
197 3 -0.823273 2.6253 11.0152 16.0929
198 3 -0.796254 7.73544 10.9005 10.3158
199 3 -0.799263 4.83656 10.8979 10.3163
200 3 -0.826607 6.07201 12.4948 11.9172
227 2 0.18303 5.21985 7.66087 14.56
229 2 0.15378 6.61296 7.67448 15.7891
271 2 0.152412 8.37783 7.92727 12.7816
272 2 0.250467 9.87719 8.70033 11.8185
273 2 0.20285 10.0935 7.75162 13.5302
91 1 -0.684211 8.15312 8.83946 16.675
281 2 0.1625 6.05403 10.7775 15.6125
282 2 0.180597 5.43412 8.96158 15.8182
277 2 0.14992 9.02695 9.62836 16.4737
284 2 0.160252 7.10744 9.15203 12.1646
285 2 0.288689 5.16247 8.99148 12.1684
286 2 0.177984 6.09346 10.0906 13.496
148 3 -0.828346 0.782124 12.2492 12.0172
356 2 0.236671 8.51947 10.9631 11.9208
357 2 0.175732 8.15249 11.5976 13.6981
365 2 0.163226 8.4678 7.84922 16.2085
11 4 1.52684 12.2421 6.36338 15.3257
280 2 0.236036 4.44748 8.90602 8.7095
167 3 -0.832338 11.1647 6.36996 16.6379
206 2 0.171802 9.37679 10.1429 13.5109
210 2 0.162679 10.1155 9.91319 15.6329
56 4 1.35416 9.59523 6.28794 11.4871
ITEM: TIMESTEP
100
ITEM: NUMBER OF ATOMS
366
ITEM: BOX BOUNDS xy xz yz pp pp pp
-8.2877179999999999e+00 1.6741099999999999e+01 -8.2877179999999999e+00
-6.4910000000000001e-01 1.3422400000000000e+01 6.1619999999999997e-01
0.0000000000000000e+00 1.6908999999999999e+01 -6.4910000000000001e-01
ITEM: ATOMS id type q x y z
3 4 1.17519 0.929865 2.65976 4.79455
8 4 1.27683 -0.20904 4.17464 7.37003
361 2 0.169364 3.81167 0.273123 0.612412
21 4 1.18181 4.03501 1.97576 4.32218
20 4 1.54672 7.79864 0.0168947 1.87872
312 2 0.213888 1.3612 0.390359 6.17831
338 1 -0.662838 2.66224 1.93288 0.412311
64 1 -0.653641 0.39301 3.69289 3.334
65 1 -0.677647 -0.0993248 0.972318 4.72133
67 1 -0.666917 -1.65363 5.31484 7.04165
70 1 -0.671168 4.14731 0.357112 3.36215
71 1 -0.662996 4.00736 3.39456 2.94605
78 1 -0.676239 2.69977 5.48711 5.01686
98 3 -0.807251 0.27886 3.35968 6.01863
114 3 -0.816492 2.45644 2.27688 4.66256
239 2 0.161052 2.29742 6.2715 4.33462
118 3 -0.787736 5.31739 1.94543 5.25686
119 3 -0.798336 6.9995 0.493595 6.9245
220 2 0.165738 4.67785 4.33 3.34032
125 3 -0.794698 1.25654 5.25948 7.75824
25 4 1.51001 6.84523 1.9351 6.1819
201 2 0.182158 -0.55874 4.4045 3.61086
202 2 0.142292 0.152551 2.74992 2.6511
203 2 0.157675 1.30374 4.29593 3.03087
290 2 0.15451 -1.576 6.44064 4.46039
341 2 0.154055 3.177 2.44057 1.39732
339 2 0.158226 2.06729 1.02717 0.695951
311 2 0.241777 0.374408 0.312638 7.82557
209 2 0.153612 -1.82737 5.49211 5.82297
115 3 -0.86452 6.84224 1.27845 1.34274
217 2 0.148442 3.61304 0.664658 2.28218
218 2 0.167132 2.94973 3.56318 2.64258
219 2 0.162377 4.61004 2.72448 2.2518
342 1 -0.657191 4.20482 5.87386 0.745825
344 2 0.174572 3.57632 4.9433 0.645784
241 2 0.216713 2.7646 4.53558 4.53825
216 2 0.288162 5.14538 -0.117803 3.22093
288 1 -0.673665 -2.13817 5.664 3.81759
291 2 0.14128 -1.64186 5.47855 2.69143
292 2 0.15462 -2.26449 4.56044 4.32326
359 2 0.187233 -1.01202 3.84113 0.261493
310 1 -0.686778 1.31293 0.64225 7.28347
240 2 0.261844 2.09105 5.39302 6.01805
313 2 0.227496 1.48342 1.7195 7.38912
317 1 -0.64135 -1.28116 4.9466 0.768056
318 2 0.153214 -0.520646 5.29511 1.46617
319 2 0.172293 -2.2762 4.86747 1.25653
207 2 0.148958 -1.08928 6.27673 7.57558
204 2 0.192294 0.491343 0.0181111 4.60431
208 2 0.256625 -2.61738 4.99266 7.65069
23 4 1.6426 8.06705 -0.299819 7.91734
345 2 0.166048 4.24005 6.19144 1.81327
6 4 1.61545 1.21926 1.69903 10.8738
120 3 -0.781838 5.98917 2.0242 16.3565
334 1 -0.676992 1.84651 0.128104 14.2456
10 4 1.51458 0.184578 3.90047 13.0855
315 2 0.169775 0.743335 2.21234 16.4302
24 4 1.53924 4.16361 1.97338 9.65171
336 2 0.161531 2.57388 1.12746 14.2276
27 4 1.39781 6.77902 1.57602 11.9156
299 2 0.25641 5.94197 -0.330101 15.0367
76 1 -0.682309 1.16507 5.11584 10.3109
81 1 -0.684758 4.65016 5.26958 11.4932
95 3 -0.844906 -0.0605248 1.39875 9.94846
96 3 -0.799868 1.72806 0.309122 11.515
7 4 1.19574 -0.852994 5.97891 16.474
99 3 -0.772093 -0.59556 2.9565 14.3306
100 3 -0.790869 0.588907 2.54643 12.0451
335 2 0.23587 0.72604 0.337612 14.1937
102 3 -0.848158 -2.52241 5.79593 10.1906
103 3 -0.84556 -0.863002 4.86865 12.2948
116 3 -0.81053 3.86669 0.667487 8.78438
117 3 -0.840391 2.54872 2.41855 10.3014
121 3 -0.789054 5.2601 1.8189 10.9053
122 3 -0.807338 6.8491 0.278738 12.7621
123 3 -0.851537 4.56088 3.18847 8.65545
127 3 -0.854356 1.60792 4.59844 13.471
12 4 1.43414 -1.79446 6.01837 11.6515
233 2 0.270816 1.78239 4.11153 10.3713
234 2 0.213227 0.144361 4.94348 9.93228
235 2 0.179195 1.23843 5.70033 11.3104
249 2 0.223288 5.08324 4.5058 10.7004
316 2 0.16664 0.400439 0.332967 16.0677
296 4 0.913363 4.58689 1.5767 15.7798
297 1 -0.640134 4.87633 -0.073324 14.901
298 1 -0.657496 3.74528 2.80126 14.3835
97 3 -0.824502 -0.822092 3.17447 8.4697
300 2 0.21333 4.59474 0.293582 13.8333
32 4 1.48006 1.71371 5.9448 14.4349
302 2 0.173059 3.88646 2.30419 13.3396
303 2 0.193144 4.2162 3.87328 14.4843
304 2 0.206436 2.62818 2.87116 14.6225
226 2 0.172791 5.6005 2.91836 13.6613
314 1 -0.668571 0.00869987 1.35773 16.4487
30 4 1.1435 1.75047 6.19648 8.91373
250 2 0.204682 3.60915 5.02652 11.9136
340 2 0.140253 2.61337 2.11853 16.8295
128 3 -0.784983 2.98676 5.87092 15.4719
101 3 -0.795081 -2.397 6.06266 15.9386
129 3 -0.800055 0.335853 5.89516 15.4943
332 1 -0.661409 -3.7626 12.7176 0.836865
15 4 1.33687 -3.05091 9.01094 7.55885
17 4 1.55522 -4.48709 11.2555 5.82313
293 2 0.179875 -3.08813 7.53097 1.43259
35 4 1.40003 -1.67766 11.3346 4.19245
257 2 0.149198 2.13795 9.26167 6.67795
69 1 -0.665854 -2.12479 8.08833 6.23947
82 1 -0.681519 1.6925 8.00851 3.01747
83 1 -0.685436 -2.09505 9.61198 3.33539
84 1 -0.656933 1.20255 9.36922 5.97724
106 3 -0.826362 -5.70068 10.9791 4.62864
107 3 -0.821148 -4.16114 9.97727 6.83932
108 3 -0.819138 -4.86391 12.5216 6.63603
132 3 -0.805554 -1.49152 12.4421 2.95
133 3 -0.811119 -3.06708 11.6136 4.96779
134 3 -0.803173 1.29608 10.302 1.13442
138 3 -0.86136 -0.326338 11.1392 4.90406
213 2 0.174287 -2.13274 8.71565 5.19435
214 2 0.184318 -2.79738 7.16619 6.06557
215 2 0.16487 -1.11558 7.74687 6.69337
230 2 0.167409 1.03953 8.49497 7.8052
326 2 0.178555 -5.86621 12.9565 2.81533
331 2 0.233689 -5.75063 9.73978 1.64508
289 1 -0.669025 -4.03974 6.95504 1.74902
252 2 0.160944 1.66819 7.08685 2.31074
253 2 0.146426 0.600914 8.42218 3.24897
254 2 0.181734 -2.05378 10 2.26222
255 2 0.186368 -3.14033 9.21796 3.6651
256 2 0.15875 -1.23503 8.94716 3.63195
1 4 1.43112 -5.51087 13.0795 8.09502
258 2 0.166238 1.33392 8.89213 4.80128
259 2 0.186956 0.234472 9.12556 6.45969
330 2 0.221846 -4.52458 8.97009 0.312991
327 2 0.159232 -7.71273 13.2541 2.88574
360 2 0.257968 -2.69285 12.9603 0.659126
320 1 -0.680613 -1.35177 8.19557 0.646381
325 2 0.164949 -6.91481 11.9737 1.64302
322 2 0.134629 -1.17457 7.71914 1.70158
38 4 1.43449 1.05863 11.288 5.68927
324 1 -0.691612 -6.88164 12.5402 2.60974
321 2 0.253535 -0.421735 8.72191 0.270191
251 2 0.145782 2.42794 7.97984 3.91373
333 2 0.16984 -3.92132 12.2657 1.89976
328 1 -0.675011 -4.63901 9.6674 1.24263
329 2 0.17546 -3.78374 9.50102 2.00249
323 2 0.189975 -2.32372 8.74613 0.50785
354 3 -0.8426 -0.152467 12.5263 0.603309
135 3 -0.848158 -1.85424 9.74557 8.33994
362 2 0.213542 -4.71402 13.0963 4.03333
244 2 0.129138 3.23275 7.60856 6.26497
279 2 0.183006 2.60712 8.89727 8.38851
36 4 1.58302 1.37294 10.657 16.8312
28 4 1.11029 4.18654 6.52432 16.4933
238 2 0.191334 -0.942694 7.92121 10.3472
18 4 1.52565 -3.00528 8.28065 13.4454
19 4 1.60088 -4.25471 10.5378 11.2909
212 2 0.130506 -5.60631 11.7982 15.8814
26 4 1.62628 -0.066712 12.7451 13.3658
211 2 0.224119 -4.8136 10.6265 14.6183
37 4 1.59881 -1.68146 10.846 9.54589
39 4 1.57267 2.62521 8.6086 12.8847
40 4 1.62502 -0.932132 10.1395 14.9321
41 4 1.62291 1.03712 10.8803 11.234
68 1 -0.669393 -5.15098 10.7876 15.6696
75 1 -0.669723 0.884171 7.90874 8.83383
77 1 -0.651877 -0.490786 7.40931 11.305
301 2 0.193302 -4.12651 12.5076 15.1689
105 3 -0.846592 -6.16607 11.9258 8.97103
109 3 -0.8352 -4.12194 7.83765 14.5051
110 3 -0.869955 -2.57862 6.91943 12.7066
111 3 -0.874004 -5.6455 10.085 10.6577
112 3 -0.808325 -3.83101 9.39631 12.3353
113 3 -0.769896 -4.61536 11.9306 12.4145
232 2 0.168625 -0.295671 7.74242 9.08087
231 2 0.200926 1.41624 8.4342 9.70716
237 2 0.164776 0.602108 6.94584 11.1499
14 4 0.955094 -3.58038 10.5026 16.8711
136 3 -0.82533 -1.15426 12.231 8.87158
137 3 -0.857542 -3.14294 10.9785 10.2843
140 3 -0.827566 1.82238 7.42629 13.6516
142 3 -0.832932 -1.50466 9.03496 13.9281
143 3 -0.830282 0.359065 9.78965 15.8136
144 3 -0.877881 -0.644648 11.5347 14.2043
145 3 -0.790941 -2.28361 10.3411 15.9695
146 3 -0.817948 -0.486386 10.4494 10.6613
147 3 -0.850617 1.52634 9.70471 12.1536
236 2 0.279813 -0.581455 8.06441 12.2595
4 4 1.19947 -6.041 12.61 12.6122
130 3 -0.810155 3.27643 6.7146 9.3871
104 3 -0.804071 -3.6338 7.61901 8.63756
337 2 0.144955 -6.16734 12.8069 15.0351
22 4 1.37927 6.78252 2.51312 0.396463
42 4 1.53204 9.43388 1.84412 3.79026
343 2 0.138165 5.30733 5.85455 0.171131
46 4 1.39543 11.9786 1.61312 5.77618
50 4 1.48922 10.1877 3.90204 1.95626
263 2 0.166382 7.84662 6.45501 5.02941
52 4 1.36567 10.6595 3.58775 8.06143
72 1 -0.662166 6.63575 3.9052 1.71689
85 1 -0.664432 13.421 2.77939 5.26619
205 2 0.168214 15.3 1.16576 3.87817
87 1 -0.664519 9.44791 4.07896 6.72836
124 3 -0.841127 6.9566 3.18134 7.12944
149 3 -0.808338 9.07895 0.577302 2.71256
150 3 -0.794148 8.26872 1.87963 5.15221
270 2 0.20405 9.7488 6.07941 7.44687
155 3 -0.827242 10.8709 1.68098 4.50029
156 3 -0.804337 12.7469 0.318748 6.04164
164 3 -0.842608 9.09274 3.26412 3.05344
165 3 -0.863188 11.0114 2.75021 1.22441
166 3 -0.79275 11.266 4.81558 3.10116
168 3 -0.850946 9.55245 4.94328 0.783771
170 3 -0.803387 11.3894 2.44476 7.23043
221 2 0.243238 7.60224 4.48284 1.66325
222 2 0.200416 6.49679 3.37016 2.70665
223 2 0.187036 5.70692 4.56232 1.42872
246 2 0.186608 6.26425 4.78446 3.78043
260 2 0.174832 12.906 3.17085 4.31194
261 2 0.19872 14.3537 2.09945 5.0961
269 2 0.153921 11.1376 5.44877 6.39142
245 2 0.139681 5.22376 6.21482 3.10911
264 2 0.212218 9.3181 5.29377 4.37678
355 2 0.217293 15.4954 0.854296 5.76077
266 2 0.279941 9.076 3.12747 6.10702
267 2 0.141532 10.1409 4.69058 6.01203
268 2 0.229927 8.55478 4.71854 7.04743
287 4 1.0824 12.1341 6.16647 3.41905
80 1 -0.666667 5.85554 5.84334 3.99305
306 1 -0.661189 14.0452 1.55169 2.35329
307 3 -0.776363 12.1832 0.433371 0.69399
308 2 0.185325 13.765 2.26546 1.51162
309 2 0.181428 13.8417 2.00313 3.42303
152 3 -0.806068 14.0537 0.905534 8.21342
51 4 1.29223 9.24369 6.37162 0.172503
295 2 0.22744 11.8546 6.13836 1.02073
262 2 0.181508 13.7046 3.77342 5.94971
86 1 -0.677562 8.85507 6.33744 4.35903
126 3 -0.752812 4.98219 5.17049 6.80855
88 1 -0.654838 10.6288 6.42381 6.85712
358 2 0.147676 14.9296 1.88327 0.630568
363 2 0.117447 15.1408 1.08704 2.15105
31 4 0.948887 4.56302 6.04283 5.52996
29 4 1.51758 5.72218 4.06979 7.99506
2 4 1.60979 14.6772 1.94086 9.33538
5 4 1.31381 14.8065 1.70729 15.1272
350 1 -0.704038 8.69839 5.66618 15.6422
45 4 1.61964 9.36353 1.79493 10.0226
248 2 0.165949 5.38838 5.44924 12.307
48 4 1.61765 9.82625 1.60788 15.0869
49 4 1.65559 12.1131 2.03295 11.5989
55 4 1.62498 10.8485 4.1778 13.3624
153 3 -0.815494 9.04262 0.628353 8.83459
228 2 0.14869 6.00272 5.98868 14.7613
151 3 -0.844842 13.33 2.04046 16.1589
353 2 0.224597 8.73304 4.55392 15.4549
154 3 -0.828871 8.12602 1.80166 11.0981
157 3 -0.82767 14.7709 0.403935 14.1738
158 3 -0.819283 9.10551 0.430714 14.2265
159 3 -0.866248 10.9766 1.03678 15.9368
160 3 -0.801243 8.57065 2.1138 16.2693
161 3 -0.786238 13.4411 2.16048 10.4095
162 3 -0.827139 10.7493 1.57566 10.8688
163 3 -0.868907 12.5406 0.999699 12.6947
169 3 -0.817776 9.70715 3.24691 9.28894
73 1 -0.663428 6.71888 2.96081 13.159
172 3 -0.859695 6.56099 4.98145 9.0218
175 3 -0.860642 10.0857 2.93368 14.1515
176 3 -0.817274 11.9627 3.46994 12.2842
177 3 -0.912338 11.5495 5.07587 14.4175
47 4 1.58089 13.4896 -0.233102 13.1696
180 3 -0.836057 9.74693 5.07045 12.517
224 2 0.188168 6.7717 3.90749 12.5632
225 2 0.233908 7.5662 2.87623 13.9425
9 4 1.5647 12.1975 6.20945 9.54006
171 3 -0.798313 11.7593 4.99797 8.53822
43 4 1.62826 12.2077 1.3089 16.8888
352 2 0.168059 7.65585 6.10142 15.4895
13 4 1.35515 9.0757 10.9869 3.77601
348 2 0.166018 5.90419 11.1295 1.17133
54 4 1.19539 10.0854 7.35871 5.29819
57 4 1.08395 7.80468 8.81092 1.66702
58 4 1.55409 3.75763 11.3295 3.9385
59 4 1.58574 8.01863 8.6921 7.27736
61 4 1.5379 6.4352 10.7361 5.73373
79 1 -0.650384 4.54418 7.76163 6.15588
131 3 -0.771883 3.19493 8.29335 0.666473
283 2 0.193217 4.33915 10.9518 0.0442565
90 1 -0.660956 6.20794 8.70462 2.57889
349 2 0.177309 7.36394 12.2163 1.79888
265 2 0.275673 8.65528 6.70266 3.25294
139 3 -0.816912 0.841176 12.2869 7.01206
92 1 -0.660245 3.60713 9.50695 8.1711
174 3 -0.813431 11.4276 7.32629 4.45297
181 3 -0.764084 8.31352 7.27216 1.67432
182 3 -0.810598 8.77524 9.9115 2.60375
183 3 -0.831813 3.46788 10.1724 2.73465
184 3 -0.817349 4.19229 12.6059 3.08608
185 3 -0.836411 2.37503 11.4374 4.87192
186 3 -0.84752 7.46536 7.31523 8.0013
187 3 -0.818604 9.06083 8.3496 6.15022
189 3 -0.830442 3.9716 12.3402 8.28475
191 3 -0.821156 7.70435 11.1176 4.66031
192 3 -0.857267 5.05763 10.6929 4.85676
193 3 -0.855892 6.66329 9.49781 6.65671
194 3 -0.829937 6.3489 11.9969 6.88407
242 2 0.242846 4.81682 8.80136 5.69834
243 2 0.247685 5.07482 7.55833 7.13649
346 1 -0.682528 6.3676 12.2114 1.18124
188 3 -0.805833 8.88567 9.54775 8.36372
364 2 0.272148 11.35 7.05273 7.48466
274 2 0.184543 6.04822 7.71548 3.1853
275 2 0.175975 5.54384 8.77554 1.60048
276 2 0.237406 6.06503 9.55962 3.20493
294 2 0.236441 11.1716 7.61129 1.91284
278 2 0.182926 3.63936 9.89674 7.11842
247 2 0.166935 6.69244 6.5881 4.31724
44 4 1.56488 5.18142 12.9645 7.43266
305 4 1.22169 4.85003 13.2876 1.86506
347 2 0.16323 6.53108 12.5889 0.167782
34 4 1.30559 2.45843 9.32592 1.92428
280 2 0.243432 4.56726 8.85242 8.42144
16 4 1.59361 9.32619 10.5533 9.59559
33 4 1.29023 4.36615 6.8926 10.5935
53 4 1.55518 7.1028 6.43202 9.34382
60 4 1.42428 3.53322 11.1098 9.23612
62 4 1.38685 3.87674 10.7469 14.819
63 4 1.3446 6.14104 11.0706 10.9852
179 3 -0.798882 8.23465 6.35312 10.4826
74 1 -0.676197 5.71625 7.00483 15.2135
89 1 -0.683594 9.31326 7.77302 12.7331
93 1 -0.670107 5.34263 10.1282 15.8758
94 1 -0.643088 5.97481 9.75213 12.2958
141 3 -0.840997 3.6219 7.97377 11.8485
178 3 -0.806274 10.9974 6.45309 10.5653
366 2 0.165948 7.14148 9.19114 16.3312
173 3 -0.787443 5.85195 7.37932 10.108
66 1 -0.715251 8.95182 11.1385 12.8714
56 4 1.36488 9.60108 6.34138 11.5361
190 3 -0.844284 2.06941 11.0922 10.0222
195 3 -0.831457 3.62283 9.35425 13.9085
196 3 -0.838714 4.48862 11.992 13.9832
197 3 -0.810506 2.59183 11.0389 15.8666
198 3 -0.811051 7.84654 10.801 10.2088
199 3 -0.836196 4.83335 10.7589 10.1538
200 3 -0.825594 5.90611 12.379 11.9397
227 2 0.211753 5.07635 7.58079 14.5205
229 2 0.154811 6.56624 7.65889 15.7689
271 2 0.158663 8.32146 7.4458 13.2607
272 2 0.208335 9.19002 8.67158 12.0383
273 2 0.237338 10.2506 7.86101 13.4187
91 1 -0.677456 8.11945 8.6438 16.6408
281 2 0.161908 6.18321 10.8234 15.5735
282 2 0.179928 5.52909 8.97028 15.6361
277 2 0.152153 9.04595 9.29649 16.4188
284 2 0.174203 6.93026 9.11537 12.0339
285 2 0.302164 5.0096 9.04892 12.0235
286 2 0.201678 6.01347 10.1669 13.3169
148 3 -0.82191 0.807037 12.2666 12.1274
356 2 0.2457 8.63603 10.8212 11.8484
357 2 0.183345 8.20209 11.7515 13.4105
365 2 0.169282 8.2941 7.54835 16.1445
11 4 1.47266 12.1195 6.25953 15.2593
351 2 0.184229 9.37633 6.2097 14.8221
167 3 -0.832145 11.0569 6.59464 16.6287
206 2 0.188535 9.48471 10.3504 13.4318
210 2 0.153001 10.1974 9.96214 15.9726
ITEM: TIMESTEP
200
ITEM: NUMBER OF ATOMS
366
ITEM: BOX BOUNDS xy xz yz pp pp pp
-8.3215360000000000e+00 1.6741099999999999e+01 -8.3215360000000000e+00
-6.4910000000000001e-01 1.3422400000000000e+01 6.1619999999999997e-01
0.0000000000000000e+00 1.6908999999999999e+01 -6.4910000000000001e-01
ITEM: ATOMS id type q x y z
3 4 1.05427 0.862186 2.69359 4.80257
8 4 1.26022 -0.306132 4.24454 7.44138
361 2 0.179209 3.94383 0.248297 0.569666
21 4 1.18565 4.09656 2.0621 4.43458
208 2 0.275713 -2.71297 5.13721 7.60878
312 2 0.198 1.24691 0.618847 6.39874
338 1 -0.639469 2.7226 1.84856 0.347536
64 1 -0.633267 0.473978 3.80282 3.30231
65 1 -0.696691 -0.230668 1.03083 4.78348
67 1 -0.664563 -1.74331 5.39877 7.04219
70 1 -0.663077 3.89561 0.457663 3.40895