ITEM: TIMESTEP
0
ITEM: NUMBER OF ATOMS
366
ITEM: BOX BOUNDS xy xz yz pp pp pp
-8.2538999999999998e+00 1.6741099999999999e+01 -8.2538999999999998e+00
-6.4910000000000001e-01 1.3422400000000000e+01 6.1619999999999997e-01
0.0000000000000000e+00 1.6908999999999999e+01 -6.4910000000000001e-01
ITEM: ATOMS id type q x y z
3 4 1.04845 0.749599 2.53725 4.7515
8 4 1.25193 -0.268124 4.12615 7.38832
361 2 0.174421 3.79125 0.210111 0.789359
21 4 1.19168 4.06846 2.06882 4.3792
216 2 0.281726 5.23884 -0.0438768 3.26624
312 2 0.224193 1.44301 0.651529 6.43002
338 1 -0.650029 2.69776 1.89883 0.332566
64 1 -0.675934 0.389807 3.51299 3.25573
65 1 -0.675483 -0.300365 0.843823 4.72323
67 1 -0.674392 -1.62236 5.30462 6.91031
70 1 -0.648046 4.21258 0.341418 3.51385
71 1 -0.669305 4.25101 3.27513 2.87394
78 1 -0.664477 2.68335 5.58658 5.05273
98 3 -0.784774 0.182344 3.275 6.08223
114 3 -0.751314 2.56953 2.11828 4.9398
239 2 0.15992 2.27685 6.52964 4.4098
118 3 -0.78898 5.36939 2.10102 5.24773
119 3 -0.812929 7.06696 0.468544 6.86449
220 2 0.165735 4.93484 4.25601 3.29671
125 3 -0.810142 1.24673 5.27073 7.62026
25 4 1.56011 6.81804 1.91896 6.18165
201 2 0.181556 -0.529041 4.29501 3.45635
202 2 0.1513 0.262563 2.82707 2.32964
203 2 0.151926 1.33507 4.11144 3.17898
290 2 0.158508 -1.40772 6.36583 4.30065
341 2 0.163116 3.25473 2.38239 1.29564
339 2 0.142859 2.24742 0.862993 0.51464
311 2 0.275203 0.556564 0.465143 7.94263
209 2 0.165742 -1.76365 5.41073 5.71722
115 3 -0.8373 6.90401 1.14873 1.23283
217 2 0.144382 3.60257 0.743831 2.58402
218 2 0.146788 3.23259 3.60121 2.45776
219 2 0.177869 4.8244 2.56211 2.18267
342 1 -0.647389 4.28935 5.76455 0.677617
344 2 0.18089 3.53802 4.92431 0.545478
241 2 0.183969 2.67203 4.64241 4.46767
358 2 0.141162 -1.13741 2.04999 0.519852
288 1 -0.664646 -2.05143 5.63986 3.72614
291 2 0.155063 -1.65274 5.40678 2.6242
292 2 0.162448 -2.25009 4.58384 4.25953
359 2 0.192781 -0.931403 4.084 0.193037
310 1 -0.670862 1.45711 0.864818 7.53688
240 2 0.277301 2.15034 5.42471 6.11829
313 2 0.22596 1.6065 1.95907 7.84305
317 1 -0.651678 -1.26032 5.10826 0.672616
318 2 0.145061 -0.485631 5.68341 1.2767
319 2 0.167877 -2.24022 4.95089 1.30111
207 2 0.157217 -1.04685 6.27828 7.28083
204 2 0.199773 0.390637 -0.0501574 4.55457
208 2 0.240452 -2.53531 5.07156 7.50994
126 3 -0.800596 5.0467 4.88624 6.65532
20 4 1.56358 7.99789 -0.0481703 1.90429
6 4 1.60247 1.2072 1.5671 10.988
120 3 -0.765064 5.83985 2.01541 16.4244
334 1 -0.675424 2.01453 0.068142 14.3535
10 4 1.62197 0.00952194 3.84632 13.0148
315 2 0.15846 0.892282 2.38166 16.4856
24 4 1.55944 4.02449 1.98382 9.73035
336 2 0.165857 2.61437 1.11235 14.1785
27 4 1.39968 6.76524 1.67216 11.861
299 2 0.239145 6.06347 -0.451071 15.2577
76 1 -0.66199 1.28473 5.20729 10.3996
81 1 -0.679038 4.6492 5.24267 11.5352
95 3 -0.863909 -0.0623328 1.32655 10.0923
96 3 -0.829371 1.58661 0.222332 11.8365
7 4 1.22145 -0.851382 6.02202 16.3553
99 3 -0.847503 -0.824699 3.06843 14.1602
100 3 -0.825889 0.734817 2.80431 12.0749
335 2 0.19313 0.881524 0.184314 14.2679
102 3 -0.817511 -2.63625 5.76237 10.208
103 3 -0.844825 -0.988952 4.84171 12.3048
116 3 -0.811635 3.94218 0.624618 8.7693
117 3 -0.889015 2.5135 2.22975 10.3089
121 3 -0.784553 5.21653 1.8645 10.9046
122 3 -0.835599 6.96598 0.420627 12.784
123 3 -0.810764 4.51701 3.23856 8.80251
127 3 -0.834556 1.36134 4.70478 13.6316
12 4 1.43292 -1.83432 6.07459 11.6203
233 2 0.268315 1.79778 4.20142 10.3907
234 2 0.196985 0.1478 5.10282 10.1316
235 2 0.197287 1.43914 5.8271 11.4054
249 2 0.237826 4.83097 4.34489 10.7173
316 2 0.160349 0.404039 0.62328 15.9142
296 4 0.933275 4.57853 1.5112 15.7262
297 1 -0.629188 4.93718 -0.157102 14.9346
298 1 -0.691079 3.73486 2.7669 14.2909
97 3 -0.793508 -0.951298 3.34677 8.66452
300 2 0.212604 4.85709 0.253377 13.8534
32 4 1.53585 1.63711 6.02796 14.4057
302 2 0.174106 4.04216 2.35408 13.317
303 2 0.19836 4.2849 3.68872 14.4734
304 2 0.221229 2.66156 2.87871 14.376
226 2 0.163175 5.57732 3.02878 13.5383
314 1 -0.683805 0.066314 1.63744 16.3228
30 4 1.1948 1.81894 6.07833 8.79003
250 2 0.199966 3.67029 5.08349 12.0804
340 2 0.145091 2.56033 1.97869 16.7232
128 3 -0.783809 3.07117 5.86265 15.5123
101 3 -0.827545 -2.43794 6.0597 15.9269
337 2 0.144204 2.4113 -0.455531 15.2841
332 1 -0.633837 -3.86885 12.6506 1.00593
15 4 1.34143 -2.98792 9.04523 7.59242
17 4 1.56422 -4.32561 11.1234 5.80397
293 2 0.173971 -2.95669 7.55564 1.53495
35 4 1.42889 -1.63035 11.3571 4.11044
244 2 0.166305 3.3279 7.65286 6.48333
69 1 -0.673583 -2.27953 8.16884 6.08704
82 1 -0.677898 1.74234 8.08731 3.22384
83 1 -0.68781 -1.89184 9.59773 3.23325
84 1 -0.671244 1.18089 9.48962 6.03294
106 3 -0.786944 -5.55332 10.975 4.6638
107 3 -0.855971 -4.02006 9.93827 6.84062
108 3 -0.784462 -4.79428 12.4634 6.60652
132 3 -0.822341 -1.40425 12.438 2.91722
133 3 -0.840883 -2.89747 11.4984 5.02224
134 3 -0.815748 1.08481 10.0632 1.22427
138 3 -0.84017 -0.265792 11.295 4.83323
213 2 0.183194 -2.2875 8.81309 5.09202
214 2 0.205579 -2.99305 7.30867 5.96145
215 2 0.156512 -1.24116 7.87058 6.37058
230 2 0.181439 0.968781 8.35223 7.71934
326 2 0.153408 -5.83754 13.1094 3.04575
331 2 0.25248 -5.45829 9.87731 1.80516
289 1 -0.662457 -3.98181 7.02737 1.83294
252 2 0.148606 1.90135 7.14054 2.59073
253 2 0.162361 0.685113 8.37562 3.51481
254 2 0.184626 -1.81072 9.95007 2.13009
255 2 0.166841 -2.9286 9.24177 3.54086
256 2 0.157378 -0.990688 9.01712 3.68775
1 4 1.41582 -5.38804 13.0877 8.09211
258 2 0.168384 1.38489 8.94306 4.99611
259 2 0.187238 0.0844386 9.32875 6.44389
330 2 0.209593 -4.52368 9.00526 0.503225
327 2 0.156827 -7.93082 13.2241 2.87623
360 2 0.2493 -2.75031 12.8372 0.884838
320 1 -0.667724 -1.16922 8.08651 0.756361
325 2 0.147151 -6.9343 11.9937 1.66746
322 2 0.149415 -1.44493 7.73266 1.84468
23 4 1.67299 -0.2277 13.1105 7.94612
324 1 -0.661368 -7.01062 12.5798 2.72751
321 2 0.270562 -0.203919 8.67052 0.734388
251 2 0.162236 2.5541 8.29436 3.94019
333 2 0.155437 -4.22573 11.9277 2.00367
328 1 -0.698986 -4.44632 9.83414 1.28538
329 2 0.171354 -3.48385 9.78008 1.99713
323 2 0.18606 -2.05655 8.695 0.254584
354 3 -0.853192 0.289045 12.6082 0.664388
135 3 -0.845083 -1.75124 9.67933 8.37598
362 2 0.225778 -4.63397 12.9865 4.19918
279 2 0.177129 2.52031 8.83996 8.41052
257 2 0.158271 2.05132 9.38388 6.86674
38 4 1.39897 1.10271 11.3195 5.66104
129 3 -0.820058 0.326317 6.21631 15.3744
28 4 1.13063 4.1899 6.48518 16.4993
238 2 0.199006 -0.76192 7.87633 10.0798
18 4 1.58087 -3.00202 8.39897 13.3972
19 4 1.61121 -4.21712 10.5438 11.3385
212 2 0.12655 -5.72104 11.7925 15.9958
26 4 1.62385 -0.0566612 12.8521 13.2934
211 2 0.208534 -4.77332 10.8674 14.5691
37 4 1.60594 -1.5861 10.8587 9.5887
39 4 1.56969 2.63519 8.53178 12.976
40 4 1.59897 -0.998766 10.1717 14.9558
41 4 1.60933 0.980666 10.8061 11.3054
68 1 -0.668265 -5.27207 10.8193 15.577
75 1 -0.679734 0.853845 7.76281 8.7018
77 1 -0.659981 -0.542852 7.45426 11.1941
301 2 0.180909 -4.14575 12.4219 15.1338
105 3 -0.839326 -6.34896 11.9867 8.85214
109 3 -0.847439 -3.98615 7.92687 14.5947
110 3 -0.833726 -2.71396 6.98319 12.5787
111 3 -0.862518 -5.62545 10.1314 10.6204
112 3 -0.867268 -3.58654 9.43674 12.2454
113 3 -0.808049 -4.6026 11.8412 12.3907
232 2 0.167591 -0.306478 7.56246 8.82155
231 2 0.194026 1.25592 8.35095 9.57961
237 2 0.19365 0.506221 7.03843 11.2265
14 4 0.962226 -3.64539 10.4778 16.8432
136 3 -0.84053 -1.12607 12.258 8.91581
137 3 -0.828185 -3.13898 11.0306 10.2897
140 3 -0.871874 1.77623 7.24786 13.3648
142 3 -0.852023 -1.58891 8.97644 14.0459
143 3 -0.856843 0.232397 9.81989 15.8532
144 3 -0.861541 -0.645772 11.5817 14.1662
145 3 -0.80316 -2.31132 10.4238 16.0179
146 3 -0.860551 -0.490308 10.3855 10.6158
147 3 -0.848791 1.60644 9.68107 12.1607
236 2 0.260634 -0.705979 8.28218 12.0154
4 4 1.21304 -6.02045 12.5424 12.7617
130 3 -0.791993 3.24008 6.35881 9.30355
104 3 -0.777859 -3.75084 7.61765 8.6572
36 4 1.58215 1.32538 10.5817 16.8603
22 4 1.34098 6.83107 2.48323 0.42459
42 4 1.56454 9.28236 1.84722 3.84133
305 4 1.14933 13.3051 0.0114998 1.72301
46 4 1.43422 11.8481 1.74013 5.85884
50 4 1.58923 10.3941 3.94321 1.99677
263 2 0.17749 7.75188 6.35068 4.92135
52 4 1.36836 10.5147 3.57667 8.04401
72 1 -0.675348 6.80472 3.93839 1.61207
85 1 -0.673387 13.358 2.82239 5.203
205 2 0.162979 15.0917 1.01407 3.78017
87 1 -0.688692 9.50506 4.04449 6.51344
124 3 -0.855714 6.73752 2.98766 7.4323
149 3 -0.830452 9.1218 0.557744 2.83842
150 3 -0.851818 7.98349 1.975 4.99791
270 2 0.21265 9.5193 6.23873 7.34743
155 3 -0.835514 10.6904 1.78812 4.6536
156 3 -0.824472 12.7224 0.490709 6.11182
164 3 -0.852046 9.30728 3.18087 2.92571
165 3 -0.855783 11.3213 2.95609 1.10589
166 3 -0.831807 11.2733 4.80888 3.12769
168 3 -0.865995 9.58144 4.97789 1.08018
170 3 -0.844926 11.3557 2.42327 7.20064
221 2 0.269767 7.84387 4.44018 1.47142
222 2 0.200391 6.66751 3.51739 2.62134
223 2 0.191236 5.86785 4.65475 1.30866
246 2 0.183771 6.1866 4.87865 3.82757
260 2 0.18191 12.7388 3.15218 4.25545
261 2 0.202235 14.2452 2.12187 5.04958
269 2 0.172 10.9845 5.45234 6.42997
245 2 0.125393 5.05938 6.31501 3.12827
264 2 0.217077 9.13619 5.21448 4.42898
355 2 0.231081 15.2679 0.846123 5.659
266 2 0.251852 8.97859 3.1126 5.93305
267 2 0.162717 10.1391 4.63217 5.78923
268 2 0.191799 8.73802 4.69676 7.09468
287 4 1.10626 12.0346 6.18497 3.41408
80 1 -0.670753 5.76188 5.91221 3.99751
306 1 -0.655377 14.0413 1.73864 2.2271
307 3 -0.769857 12.2964 0.529601 0.480956
308 2 0.190387 13.9193 2.55296 1.43441
309 2 0.184627 13.7952 2.13046 3.30238
152 3 -0.872193 14.4874 0.713485 8.21531
51 4 1.27504 9.22893 6.30186 0.244582
295 2 0.238816 11.9247 6.15916 1.1285
262 2 0.181643 13.5951 3.74445 5.90138
86 1 -0.682325 8.71203 6.22872 4.31737
44 4 1.56703 13.5578 -0.260817 7.3718
29 4 1.59248 5.68919 4.06169 7.92812
345 2 0.143991 4.53881 6.13471 1.82303
363 2 0.0967226 15.2159 1.25499 2.1265
31 4 0.966755 4.5264 5.90566 5.56732
2 4 1.59287 14.7526 1.80277 9.3711
5 4 1.35381 14.8059 1.89126 15.0556
350 1 -0.706196 8.64343 5.42058 15.6765
45 4 1.66597 9.26933 1.72176 9.93886
351 2 0.195044 9.28362 5.7493 14.8041
48 4 1.63404 9.77397 1.57277 15.1173
49 4 1.64731 12.1638 1.88595 11.4773
55 4 1.60393 10.8239 4.05614 13.4058
153 3 -0.870861 8.8414 0.67939 8.83101
228 2 0.152782 6.10182 6.04858 14.7923
151 3 -0.835482 13.4471 2.10116 15.9649
353 2 0.221781 8.59472 4.29388 15.726
154 3 -0.835981 8.04146 1.89691 10.9613
157 3 -0.80749 14.5205 0.263152 14.196
158 3 -0.843823 9.00389 0.453088 14.2434
159 3 -0.86848 11.1642 1.14093 15.7186
160 3 -0.836102 8.67139 2.04263 16.3772
161 3 -0.816556 13.4216 2.04329 10.4209
162 3 -0.790746 10.775 1.35373 10.7604
163 3 -0.846286 12.5415 0.829437 12.5718
169 3 -0.850093 9.56426 3.13308 9.19815
73 1 -0.658342 6.71523 3.12688 13.0854
172 3 -0.826533 6.37613 5.2188 8.94522
175 3 -0.859586 10.0038 2.90416 14.2015
176 3 -0.802764 11.7822 3.30419 12.3145
177 3 -0.817053 11.7395 5.08004 14.4262
47 4 1.64212 13.4898 -0.329842 13.1435
180 3 -0.818941 9.74756 4.9797 12.6333
224 2 0.189476 6.81135 4.04129 12.3577
225 2 0.23854 7.55012 3.15527 13.796
9 4 1.53753 12.0673 6.19654 9.59539
352 2 0.169004 7.66091 6.00458 15.6355
43 4 1.641 12.3259 1.3509 16.7356
248 2 0.158581 5.55891 5.53146 12.1614
171 3 -0.791712 11.5639 4.90822 8.5516
343 2 0.147551 5.89486 5.01223 16.8693
13 4 1.30421 9.08732 10.9532 3.73151
348 2 0.172465 5.98508 11.1362 1.33274
54 4 1.20228 9.92597 7.35487 5.32069
57 4 1.0362 7.68445 8.86179 1.60196
58 4 1.48847 3.85243 11.2945 3.87338
59 4 1.54578 8.04824 8.78826 7.37571
61 4 1.54943 6.42033 10.7829 5.76342
79 1 -0.665663 4.41269 7.73034 6.27546
131 3 -0.807689 3.14003 8.35235 0.576344
283 2 0.209648 4.25744 11.0261 0.165753
90 1 -0.658201 6.06877 8.67981 2.52418
349 2 0.164297 7.41744 12.3304 1.73378
347 2 0.160965 6.49786 12.5075 0.0303459
139 3 -0.796639 0.871477 12.054 7.11163
92 1 -0.669797 3.52286 9.48565 8.26365
174 3 -0.809325 11.3083 7.20248 4.5474
181 3 -0.751859 8.24246 7.39353 1.53716
182 3 -0.778205 9.06511 9.89962 2.57903
183 3 -0.828942 3.40068 10.1951 2.68504
184 3 -0.766957 4.52835 12.6251 3.02676
185 3 -0.775957 2.44305 11.6505 4.70216
186 3 -0.845895 7.72622 7.17015 7.89535
187 3 -0.768469 9.0315 8.56199 5.9139
189 3 -0.773116 4.02062 12.3644 8.28898
191 3 -0.809014 7.63573 10.9596 4.62436
192 3 -0.845604 4.99747 10.6814 5.01144
193 3 -0.832755 6.73149 9.46728 6.77181
194 3 -0.818829 6.34903 12.0639 6.77595
242 2 0.210939 4.60036 8.5315 5.48727
243 2 0.248433 5.11736 7.79307 7.15017
346 1 -0.670111 6.41853 12.1873 1.1076
34 4 1.3198 2.41141 9.30561 1.78154
364 2 0.268369 11.248 7.11149 7.48984
274 2 0.183501 5.88606 7.66843 3.08719
275 2 0.184884 5.29974 8.80524 1.65014
276 2 0.201731 6.14178 9.65623 3.18696
88 1 -0.661337 10.4859 6.47862 6.82011
278 2 0.195847 3.68314 9.93228 7.21463
247 2 0.170564 6.58982 6.71668 4.18281
265 2 0.261424 8.66 6.67373 3.23342
294 2 0.213026 11.2445 7.8221 2.103
16 4 1.58347 9.24241 10.6276 9.55264
33 4 1.20754 4.38631 6.8178 10.6188
53 4 1.53052 7.07274 6.58865 9.30318
60 4 1.38805 3.51744 11.1321 9.2503
62 4 1.40151 3.76536 10.7508 14.9523
63 4 1.37098 6.18269 11.0709 11.1708
179 3 -0.812713 8.24571 6.39813 10.5221
74 1 -0.66797 5.75645 7.00076 15.3322
89 1 -0.671371 9.49253 7.86079 12.5686
93 1 -0.671485 5.25914 10.1203 16.0189
94 1 -0.678137 6.07941 9.67411 12.4692
141 3 -0.820141 3.73138 7.9875 11.92
178 3 -0.829521 10.9773 6.53562 10.6687
366 2 0.168405 7.12807 9.30804 16.4234
173 3 -0.801447 5.82156 7.47897 9.92014
66 1 -0.688122 8.91255 11.1103 13.0266
188 3 -0.873617 8.82009 9.59837 8.46595
190 3 -0.782665 2.04042 11.1019 9.98403
195 3 -0.84853 3.31347 9.36997 14.1446
196 3 -0.832804 4.40326 11.8912 13.9372
197 3 -0.823273 2.6253 11.0152 16.0929
198 3 -0.796254 7.73544 10.9005 10.3158
199 3 -0.799263 4.83656 10.8979 10.3163
200 3 -0.826607 6.07201 12.4948 11.9172
227 2 0.18303 5.21985 7.66087 14.56
229 2 0.15378 6.61296 7.67448 15.7891
271 2 0.152412 8.37783 7.92727 12.7816
272 2 0.250467 9.87719 8.70033 11.8185
273 2 0.20285 10.0935 7.75162 13.5302
91 1 -0.684211 8.15312 8.83946 16.675
281 2 0.1625 6.05403 10.7775 15.6125
282 2 0.180597 5.43412 8.96158 15.8182
277 2 0.14992 9.02695 9.62836 16.4737
284 2 0.160252 7.10744 9.15203 12.1646
285 2 0.288689 5.16247 8.99148 12.1684
286 2 0.177984 6.09346 10.0906 13.496
148 3 -0.828346 0.782124 12.2492 12.0172
356 2 0.236671 8.51947 10.9631 11.9208
357 2 0.175732 8.15249 11.5976 13.6981
365 2 0.163226 8.4678 7.84922 16.2085
11 4 1.52684 12.2421 6.36338 15.3257
280 2 0.236036 4.44748 8.90602 8.7095
167 3 -0.832338 11.1647 6.36996 16.6379
206 2 0.171802 9.37679 10.1429 13.5109
210 2 0.162679 10.1155 9.91319 15.6329
56 4 1.35416 9.59523 6.28794 11.4871
ITEM: TIMESTEP
100
ITEM: NUMBER OF ATOMS
366
ITEM: BOX BOUNDS xy xz yz pp pp pp
-8.2538999999999998e+00 1.6741099999999999e+01 -8.2538999999999998e+00
-6.4780179999999998e-01 1.3395555200000000e+01 6.1619999999999997e-01
0.0000000000000000e+00 1.6908999999999999e+01 -6.4780179999999998e-01
ITEM: ATOMS id type q x y z
3 4 1.17532 0.929919 2.65978 4.79461
8 4 1.27682 -0.209006 4.17461 7.37007
361 2 0.169358 3.81172 0.273176 0.612384
21 4 1.18282 4.03431 1.97586 4.32185
20 4 1.54673 7.79872 0.0169083 1.87864
312 2 0.213938 1.36173 0.390048 6.17844
338 1 -0.662857 2.66224 1.93283 0.412249
64 1 -0.653673 0.393164 3.69297 3.33402
65 1 -0.677574 -0.0988675 0.972322 4.72194
67 1 -0.666914 -1.6537 5.31461 7.04167
70 1 -0.671423 4.14798 0.357306 3.36244
71 1 -0.662913 4.0071 3.39483 2.94564
78 1 -0.676237 2.69971 5.48716 5.01682
98 3 -0.807291 0.27884 3.35966 6.01862
114 3 -0.816802 2.45627 2.27688 4.66248
239 2 0.161052 2.2977 6.27166 4.33473
118 3 -0.788216 5.31623 1.94912 5.25436
119 3 -0.796374 6.99011 0.496786 6.926
220 2 0.165818 4.67778 4.33008 3.34007
125 3 -0.794717 1.25656 5.25943 7.75821
25 4 1.50934 6.84371 1.93846 6.17971
201 2 0.182164 -0.558679 4.40411 3.61094
202 2 0.142225 0.152971 2.74986 2.65094
203 2 0.157675 1.30378 4.29631 3.03113
290 2 0.154489 -1.57625 6.43974 4.46094
341 2 0.154081 3.17688 2.44053 1.39709
339 2 0.158196 2.06729 1.02714 0.695901
311 2 0.241916 0.374468 0.312792 7.82565
209 2 0.153618 -1.82737 5.49166 5.82305
115 3 -0.864501 6.84224 1.27842 1.34276
217 2 0.148369 3.61196 0.662796 2.2828
218 2 0.16707 2.94952 3.56359 2.64215
219 2 0.162418 4.60975 2.72455 2.25149
342 1 -0.65715 4.20478 5.87381 0.745771
344 2 0.174595 3.57622 4.94327 0.645796
241 2 0.216693 2.76445 4.53557 4.53805
216 2 0.288177 5.14502 -0.117777 3.22047
288 1 -0.673693 -2.13837 5.66344 3.81768
291 2 0.141292 -1.64178 5.47806 2.69164
292 2 0.154707 -2.26508 4.5603 4.32306
359 2 0.187216 -1.01212 3.84092 0.261698
310 1 -0.686775 1.31304 0.64234 7.28351
240 2 0.261836 2.09084 5.39309 6.01792
313 2 0.227486 1.48353 1.71963 7.38893
317 1 -0.641346 -1.28117 4.94657 0.768064
318 2 0.153212 -0.520631 5.29511 1.46615
319 2 0.172303 -2.27619 4.86765 1.25657
207 2 0.148931 -1.08942 6.27662 7.57549
204 2 0.19243 0.491737 0.0180458 4.60531
208 2 0.256626 -2.6174 4.99258 7.65065
23 4 1.6431 8.06115 -0.297234 7.91981
345 2 0.166043 4.23989 6.19167 1.81321
6 4 1.61545 1.21921 1.69903 10.8738
120 3 -0.781838 5.98916 2.02419 16.3565
334 1 -0.676994 1.84651 0.128099 14.2456
10 4 1.51458 0.18455 3.90046 13.0855
315 2 0.169843 0.743446 2.21266 16.4289
24 4 1.53962 4.16351 1.97323 9.6518
336 2 0.161529 2.57388 1.12747 14.2276
27 4 1.39802 6.77892 1.576 11.9157
299 2 0.256417 5.94199 -0.33011 15.0367
76 1 -0.682287 1.16501 5.11577 10.311
81 1 -0.684757 4.65014 5.26959 11.4932
95 3 -0.844836 -0.0605413 1.39879 9.94847
96 3 -0.799864 1.72807 0.30912 11.515
7 4 1.19571 -0.852994 5.97892 16.474
99 3 -0.772041 -0.595612 2.95652 14.3306
100 3 -0.790858 0.588885 2.54642 12.0451
335 2 0.235883 0.725988 0.337671 14.1938
102 3 -0.848126 -2.52244 5.79595 10.1905
103 3 -0.845518 -0.863014 4.86866 12.2947
116 3 -0.810371 3.86656 0.667533 8.78452
117 3 -0.84048 2.54873 2.41854 10.3014
121 3 -0.78904 5.26013 1.81891 10.9052
122 3 -0.80732 6.84906 0.2787 12.7622
123 3 -0.851476 4.56073 3.18833 8.6556
127 3 -0.854366 1.60789 4.59843 13.471
12 4 1.43418 -1.79446 6.0184 11.6515
233 2 0.270805 1.78235 4.11153 10.3713
234 2 0.213257 0.14427 4.94335 9.93266
235 2 0.179209 1.23853 5.70018 11.3105
249 2 0.223311 5.0831 4.50571 10.7004
316 2 0.166693 0.400513 0.333233 16.0675
296 4 0.913399 4.58689 1.5767 15.7797
297 1 -0.640124 4.87634 -0.0733329 14.901
298 1 -0.657498 3.74525 2.80126 14.3835
97 3 -0.824513 -0.822139 3.17443 8.46972
300 2 0.21334 4.59473 0.293573 13.8333
32 4 1.48009 1.7137 5.94483 14.435
302 2 0.17304 3.88647 2.30422 13.3396
303 2 0.193132 4.21617 3.8733 14.4844
304 2 0.206429 2.62816 2.87115 14.6225
226 2 0.172786 5.60062 2.91848 13.6613
314 1 -0.668636 0.00910348 1.35794 16.4482
30 4 1.14351 1.7505 6.19649 8.91358
250 2 0.204667 3.60914 5.02662 11.9137
340 2 0.140253 2.61335 2.11847 16.8295
128 3 -0.784998 2.98676 5.87092 15.4719
101 3 -0.795101 -2.397 6.06267 15.9386
129 3 -0.800063 0.335861 5.89517 15.4943
332 1 -0.661452 -3.76257 12.7176 0.836853
15 4 1.33676 -3.05092 9.01091 7.55891
17 4 1.55546 -4.48705 11.2555 5.82316
293 2 0.179876 -3.08817 7.53098 1.43258
35 4 1.40004 -1.67769 11.3348 4.19255
257 2 0.14913 2.13873 9.26371 6.67836
69 1 -0.665818 -2.12516 8.08817 6.23958
82 1 -0.681498 1.69244 8.00903 3.01818
83 1 -0.685265 -2.09488 9.61191 3.33542
84 1 -0.656963 1.20318 9.37039 5.97744
106 3 -0.826447 -5.70059 10.979 4.62875
107 3 -0.821108 -4.16113 9.9773 6.83932
108 3 -0.819165 -4.86405 12.5215 6.63603
132 3 -0.805495 -1.49129 12.4418 2.94995
133 3 -0.811203 -3.06719 11.6134 4.96773
134 3 -0.803134 1.2961 10.3019 1.13443
138 3 -0.861001 -0.326411 11.1394 4.90412
213 2 0.174263 -2.13265 8.71546 5.19432
214 2 0.184317 -2.79778 7.166 6.06547
215 2 0.164808 -1.11587 7.7463 6.69397
230 2 0.167364 1.04001 8.49487 7.8054
326 2 0.178653 -5.86525 12.9568 2.81649
331 2 0.233655 -5.75065 9.73976 1.64505
289 1 -0.669018 -4.03973 6.95506 1.74904
252 2 0.16091 1.66812 7.08711 2.31198
253 2 0.146435 0.600763 8.42226 3.2503
254 2 0.181703 -2.05385 9.99985 2.26178
255 2 0.186349 -3.14037 9.218 3.66537
256 2 0.158699 -1.23489 8.94646 3.63156
1 4 1.43135 -5.51078 13.0794 8.09501
258 2 0.166368 1.33371 8.89186 4.80236
259 2 0.186827 0.234186 9.12849 6.46067
330 2 0.221844 -4.52467 8.97023 0.312924
327 2 0.159277 -7.71144 13.2533 2.88453
360 2 0.257977 -2.69277 12.9603 0.659073
320 1 -0.680638 -1.35177 8.19556 0.646375
325 2 0.164839 -6.91089 11.974 1.64358
322 2 0.134632 -1.17467 7.71911 1.70154
38 4 1.43317 1.05807 11.2884 5.69003
324 1 -0.691727 -6.87955 12.5404 2.61031
321 2 0.253541 -0.421736 8.72204 0.270376
251 2 0.145786 2.42806 7.98087 3.91447
333 2 0.169802 -3.9213 12.2659 1.89978
328 1 -0.675018 -4.63895 9.66739 1.2426
329 2 0.175469 -3.7837 9.50088 2.0024
323 2 0.189965 -2.32373 8.7461 0.507771
354 3 -0.842624 -0.15252 12.5263 0.603251
135 3 -0.848212 -1.85395 9.74622 8.33974
362 2 0.213543 -4.71289 13.0965 4.03351
244 2 0.129199 3.23275 7.60842 6.26526
279 2 0.182961 2.6077 8.89745 8.38795
36 4 1.58297 1.37295 10.657 16.8312
28 4 1.11027 4.18653 6.52432 16.4933
238 2 0.191349 -0.942585 7.92107 10.347
18 4 1.52569 -3.00528 8.28066 13.4454
19 4 1.60116 -4.2548 10.5377 11.291
212 2 0.130493 -5.60633 11.7982 15.8814
26 4 1.62623 -0.0667049 12.7451 13.3658
211 2 0.22412 -4.8136 10.6265 14.6183
37 4 1.59862 -1.68222 10.8477 9.54533
39 4 1.57267 2.62519 8.60861 12.8847
40 4 1.62502 -0.932137 10.1394 14.9321
41 4 1.6227 1.03713 10.8803 11.2339
68 1 -0.669406 -5.151 10.7876 15.6696
75 1 -0.669755 0.884011 7.90881 8.8337
77 1 -0.651887 -0.490759 7.4093 11.3049
301 2 0.193313 -4.12648 12.5076 15.1689
105 3 -0.846593 -6.16608 11.9259 8.97102
109 3 -0.835175 -4.12194 7.83765 14.5051
110 3 -0.869939 -2.57864 6.91942 12.7066
111 3 -0.874114 -5.64548 10.085 10.6577
112 3 -0.808335 -3.831 9.39627 12.3354
113 3 -0.769931 -4.61534 11.9306 12.4144
232 2 0.168691 -0.295895 7.74336 9.08022
231 2 0.20093 1.41576 8.43437 9.70721
237 2 0.164815 0.602194 6.9459 11.1501
14 4 0.955103 -3.58038 10.5026 16.8711
136 3 -0.825707 -1.16107 12.236 8.87369
137 3 -0.857501 -3.14309 10.9777 10.2846
140 3 -0.827547 1.8224 7.42628 13.6516
142 3 -0.832922 -1.50466 9.03497 13.9281
143 3 -0.830258 0.359051 9.78965 15.8136
144 3 -0.877895 -0.644663 11.5347 14.2043
145 3 -0.79092 -2.2836 10.3411 15.9695
146 3 -0.817856 -0.486137 10.4502 10.6608
147 3 -0.850595 1.52624 9.70468 12.1536
236 2 0.279803 -0.581622 8.06459 12.2593
4 4 1.19945 -6.04098 12.61 12.6122
130 3 -0.810159 3.27646 6.71457 9.38711
104 3 -0.80413 -3.63397 7.61876 8.63728
337 2 0.144953 -6.16732 12.8069 15.0351
22 4 1.37922 6.78252 2.51308 0.396465
42 4 1.53191 9.43461 1.84406 3.7903
343 2 0.138179 5.30729 5.85449 0.171065
46 4 1.39534 11.9802 1.61075 5.77796
50 4 1.4891 10.1879 3.90178 1.95592
263 2 0.16633 7.84663 6.45486 5.02945
52 4 1.36552 10.6594 3.5874 8.06153
72 1 -0.662184 6.6357 3.90517 1.71688
85 1 -0.664187 13.4209 2.77889 5.26631
205 2 0.168144 15.3004 1.16516 3.87817
87 1 -0.663772 9.44716 4.07822 6.72888
124 3 -0.840867 6.95683 3.18354 7.1286
149 3 -0.80819 9.07905 0.577297 2.71242
150 3 -0.794221 8.26878 1.88079 5.15141
270 2 0.204028 9.7485 6.07965 7.44666
155 3 -0.826568 10.8714 1.68071 4.50091
156 3 -0.80386 12.7493 0.317519 6.04235
164 3 -0.842411 9.093 3.2641 3.05328
165 3 -0.863139 11.0115 2.74996 1.22388
166 3 -0.792644 11.266 4.81561 3.10118
168 3 -0.850908 9.55247 4.94329 0.783721
170 3 -0.803314 11.3896 2.44434 7.23017
221 2 0.243238 7.60222 4.48279 1.66328
222 2 0.200478 6.49669 3.37008 2.70662
223 2 0.187034 5.70689 4.56231 1.42868
246 2 0.186633 6.26436 4.78445 3.78028
260 2 0.175055 12.9054 3.16958 4.31183
261 2 0.19868 14.354 2.09948 5.09615
269 2 0.1539 11.1381 5.44943 6.39054
245 2 0.139663 5.22383 6.21484 3.10912
264 2 0.212174 9.31846 5.2939 4.37687
355 2 0.217372 15.4959 0.854584 5.76138
266 2 0.280178 9.07509 3.12878 6.10551
267 2 0.141269 10.1412 4.68985 6.01084
268 2 0.229787 8.55314 4.7199 7.04882
287 4 1.08237 12.1341 6.16648 3.41906
80 1 -0.666683 5.85559 5.84326 3.99306
306 1 -0.660565 14.0456 1.54949 2.35304
307 3 -0.775312 12.1879 0.43183 0.697306
308 2 0.185641 13.7622 2.26165 1.51102
309 2 0.181559 13.8423 2.00175 3.42205
152 3 -0.806432 14.0563 0.903676 8.21307
51 4 1.29226 9.2437 6.37162 0.172496
295 2 0.227437 11.8546 6.13832 1.02081
262 2 0.181504 13.7037 3.77309 5.94982
86 1 -0.677617 8.85515 6.33757 4.35906
126 3 -0.75289 4.98188 5.17096 6.80834
88 1 -0.654834 10.6287 6.42376 6.85724
358 2 0.147614 14.93 1.88376 0.62999
363 2 0.116872 15.1431 1.08644 2.1499
31 4 0.949084 4.563 6.04279 5.53
29 4 1.51746 5.72192 4.0704 7.99532
2 4 1.60962 14.6772 1.9407 9.33522
5 4 1.3136 14.8063 1.7073 15.1273
350 1 -0.704032 8.69841 5.66618 15.6422
45 4 1.62023 9.36245 1.79523 10.022
248 2 0.16594 5.38846 5.44925 12.3069
48 4 1.61748 9.8267 1.60784 15.0872
49 4 1.65525 12.113 2.03291 11.5988
55 4 1.62494 10.8485 4.17773 13.3623
153 3 -0.816918 9.03441 0.632627 8.83414
228 2 0.148696 6.00273 5.98865 14.7613
151 3 -0.844815 13.3293 2.0401 16.1592
353 2 0.224617 8.73298 4.55393 15.4549
154 3 -0.828653 8.12611 1.80197 11.0988
157 3 -0.827562 14.7709 0.403955 14.1738
158 3 -0.819176 9.10555 0.430726 14.2265
159 3 -0.866472 10.977 1.03656 15.937
160 3 -0.801198 8.57067 2.11381 16.2693
161 3 -0.786278 13.4411 2.16043 10.4096
162 3 -0.827033 10.7489 1.57499 10.8679
163 3 -0.868891 12.5406 0.9998 12.6946
169 3 -0.8177 9.70736 3.24733 9.28951
73 1 -0.663426 6.71885 2.96095 13.1591
172 3 -0.859729 6.56083 4.98187 9.02235
175 3 -0.860548 10.0858 2.93368 14.1515
176 3 -0.81726 11.9626 3.46983 12.2842
177 3 -0.91232 11.5495 5.07586 14.4175
47 4 1.58078 13.4895 -0.233128 13.1695
180 3 -0.836048 9.74695 5.07046 12.517
224 2 0.188177 6.77168 3.90768 12.5635
225 2 0.233941 7.56618 2.87642 13.9427
9 4 1.5647 12.1975 6.20946 9.53997
171 3 -0.798223 11.7591 4.99798 8.53807
43 4 1.62774 12.2078 1.30863 16.8891
352 2 0.168071 7.65585 6.10146 15.4894
13 4 1.35572 9.07593 10.9867 3.77614
348 2 0.166189 5.91136 11.1242 1.16722
54 4 1.19534 10.0853 7.35863 5.29813
57 4 1.08397 7.8047 8.8109 1.66703
58 4 1.55409 3.75711 11.3291 3.93859
59 4 1.586 8.01901 8.69166 7.27764
61 4 1.5368 6.43622 10.7339 5.73216
79 1 -0.650367 4.54406 7.76152 6.15589
131 3 -0.771893 3.1949 8.29338 0.666579
283 2 0.193219 4.33891 10.9515 0.044159
90 1 -0.66099 6.20787 8.70449 2.57875
349 2 0.177672 7.36754 12.2105 1.79382
265 2 0.275659 8.65522 6.70279 3.25294
139 3 -0.816867 0.832866 12.2918 7.01229
92 1 -0.660212 3.60772 9.50614 8.17082
174 3 -0.813438 11.4276 7.32629 4.45299
181 3 -0.764115 8.31352 7.27215 1.67431
182 3 -0.810709 8.77525 9.91149 2.60367
183 3 -0.831806 3.46774 10.1724 2.73453
184 3 -0.816403 4.1948 12.6044 3.08585
185 3 -0.836331 2.37477 11.4375 4.87281
186 3 -0.847712 7.46542 7.31505 8.00135
187 3 -0.818747 9.06094 8.34956 6.15019
189 3 -0.830323 3.97337 12.3388 8.2844
191 3 -0.821413 7.70553 11.1178 4.65894
192 3 -0.857176 5.05652 10.6924 4.85606
193 3 -0.855756 6.66343 9.49649 6.65714
194 3 -0.829641 6.35489 11.9948 6.88372
242 2 0.24273 4.8166 8.80115 5.69774
243 2 0.247728 5.0751 7.5584 7.13633
346 1 -0.683839 6.37361 12.2047 1.17773
188 3 -0.805866 8.88568 9.54779 8.36379
364 2 0.272232 11.3503 7.05208 7.48478
274 2 0.184506 6.04807 7.71558 3.18543
275 2 0.175962 5.54389 8.77531 1.6002
276 2 0.237243 6.06523 9.55998 3.20451
294 2 0.236444 11.1716 7.61126 1.91291
278 2 0.182912 3.64009 9.89715 7.11904
247 2 0.166887 6.69257 6.58799 4.31733
44 4 1.56323 5.18753 12.9617 7.43354
305 4 1.22052 4.8576 13.2824 1.86365
347 2 0.163342 6.53634 12.582 0.166045
34 4 1.30571 2.4584 9.32594 1.92439
280 2 0.243617 4.56666 8.85108 8.42028
16 4 1.5938 9.32621 10.5533 9.59559
33 4 1.29029 4.36608 6.89261 10.5935
53 4 1.55534 7.10291 6.43225 9.34394
60 4 1.42369 3.53338 11.1104 9.23608
62 4 1.38679 3.87671 10.7469 14.819
63 4 1.34443 6.14094 11.0708 10.985
179 3 -0.798937 8.23473 6.3531 10.4827
74 1 -0.676213 5.71625 7.00479 15.2135
89 1 -0.683581 9.31326 7.77302 12.7331
93 1 -0.670134 5.34259 10.1282 15.8757
94 1 -0.643102 5.97487 9.75167 12.2962
141 3 -0.840976 3.62186 7.97375 11.8485
178 3 -0.80626 10.9975 6.45311 10.5653
366 2 0.165948 7.14151 9.19106 16.3311
173 3 -0.787416 5.85188 7.3794 10.108
66 1 -0.71527 8.95189 11.1385 12.8715
56 4 1.3649 9.60117 6.34137 11.5362
190 3 -0.844606 2.06917 11.0924 10.0221
195 3 -0.831461 3.62282 9.35424 13.9086
196 3 -0.838758 4.48861 11.992 13.9832
197 3 -0.810606 2.59185 11.0389 15.8666
198 3 -0.811011 7.8467 10.8011 10.2087
199 3 -0.836118 4.83341 10.7589 10.1536
200 3 -0.825666 5.90614 12.3791 11.9397
227 2 0.211752 5.0764 7.58077 14.5204
229 2 0.154798 6.56623 7.65886 15.7688
271 2 0.158663 8.32146 7.44579 13.2607
272 2 0.208319 9.19 8.6716 12.0383
273 2 0.237342 10.2507 7.86103 13.4187
91 1 -0.677451 8.11945 8.64377 16.6408
281 2 0.161928 6.18329 10.8234 15.5739
282 2 0.179918 5.5291 8.97027 15.6359
277 2 0.152191 9.04591 9.29648 16.4188
284 2 0.17431 6.92961 9.11537 12.0344
285 2 0.302186 5.00981 9.04851 12.024
286 2 0.201688 6.0135 10.1662 13.3174
148 3 -0.821924 0.80698 12.2667 12.1273
356 2 0.245697 8.63636 10.821 11.8484
357 2 0.183368 8.20206 11.7515 13.4103
365 2 0.169279 8.29416 7.54826 16.1444
11 4 1.47264 12.1195 6.25952 15.2593
351 2 0.184246 9.37643 6.20965 14.8222
167 3 -0.832147 11.0569 6.59465 16.6287
206 2 0.188516 9.48477 10.3505 13.4319
210 2 0.153002 10.1974 9.96213 15.9726
ITEM: TIMESTEP
200
ITEM: NUMBER OF ATOMS
366
ITEM: BOX BOUNDS xy xz yz pp pp pp
-8.2538999999999998e+00 1.6741099999999999e+01 -8.2538999999999998e+00
-6.4650359999999996e-01 1.3368710399999999e+01 6.1619999999999997e-01
0.0000000000000000e+00 1.6908999999999999e+01 -6.4650359999999996e-01
ITEM: ATOMS id type q x y z
3 4 1.05572 0.859685 2.69999 4.80221
8 4 1.26059 -0.30585 4.25048 7.44001
361 2 0.176542 3.92251 0.280438 0.527227
21 4 1.18349 4.08429 2.07738 4.43248
20 4 1.57254 7.68161 -0.0509227 1.89267
312 2 0.1982 1.24138 0.670872 6.42011
338 1 -0.640718 2.71333 1.87524 0.349962
64 1 -0.632783 0.478373 3.816 3.30077
65 1 -0.700156 -0.243898 1.05111 4.78069
67 1 -0.663926 -1.74244 5.40419 7.03951
70 1 -0.66249 3.8882 0.471926 3.4001