ITEM: TIMESTEP
0
ITEM: NUMBER OF ATOMS
366
ITEM: BOX BOUNDS xy xz yz pp pp pp
-8.2538999999999998e+00 1.6741099999999999e+01 -8.2538999999999998e+00
-6.4910000000000001e-01 1.3422400000000000e+01 6.1619999999999997e-01
0.0000000000000000e+00 1.6908999999999999e+01 -6.4910000000000001e-01
ITEM: ATOMS id type x y z
3 4 0.727035 2.46681 4.71405
8 4 -0.392596 4.11215 7.37765
20 4 7.64848 0.0570593 1.75609
21 4 3.85397 1.76323 4.26858
25 4 6.57914 1.69481 6.09231
29 4 5.32787 3.74867 7.89618
31 4 4.17067 5.75355 5.62954
64 1 0.650239 3.56917 3.21945
97 3 -1.20934 3.0131 8.41952
67 1 -1.71031 5.275 6.79784
70 1 3.81499 0.243524 3.15258
71 1 3.87595 3.12822 2.89914
78 1 2.31989 5.64622 5.15749
98 3 0.173903 3.41779 5.98979
114 3 2.34957 1.81439 4.81215
115 3 6.9733 1.26081 0.944684
118 3 5.20523 1.73688 5.15566
119 3 6.90045 0.171009 6.62745
343 2 4.49695 4.79467 0.397108
125 3 0.894509 5.07308 8.14672
126 3 4.6546 4.65226 6.59852
201 2 -0.290687 2.93433 2.74019
202 2 1.44879 3.79603 2.40462
203 2 0.239783 4.50718 3.66578
317 1 -1.55496 5.10356 0.253166
207 2 -1.59404 6.01968 7.72278
342 1 3.94228 5.69357 0.766964
319 2 -2.54511 4.57349 0.247705
209 2 -1.53512 5.82903 5.80166
344 2 2.8195 5.42321 1.05141
217 2 3.12973 0.499971 2.32498
218 2 2.7944 3.38689 2.56415
219 2 4.47312 2.62916 2.05301
220 2 4.44487 4.11083 3.35257
239 2 2.55655 5.34378 4.04364
241 2 1.869 4.75743 5.75574
312 2 0.699054 0.291425 6.65646
288 1 -2.52518 6.40537 3.74318
291 2 -2.18204 5.42239 3.19137
292 2 -2.50006 6.11098 4.86548
361 2 3.23797 0.206699 0.918097
310 1 1.33555 0.680119 7.56838
341 2 3.19488 2.59645 1.06454
313 2 1.90317 1.64355 7.32766
318 2 -1.24641 5.44649 1.27767
208 2 -2.65678 4.64285 6.84998
6 4 0.960092 1.62051 11.1447
123 3 4.11368 3.03231 8.87041
360 2 5.16755 -0.22772 16.3999
10 4 -0.117419 3.75307 13.2086
12 4 -1.8268 6.24026 11.5759
24 4 3.866 1.85325 9.85269
340 2 2.43294 2.44916 16.6126
27 4 6.72437 1.62785 11.4028
30 4 1.8255 5.9438 9.06231
76 1 1.37803 5.07702 10.6842
250 2 3.76503 5.56735 12.8089
95 3 -0.251999 1.48012 10.0819
96 3 1.13851 0.169817 11.7749
81 1 4.46879 5.37089 11.9091
99 3 -0.979586 3.03662 14.3572
100 3 0.424101 2.62037 12.2253
120 3 5.89603 2.7272 16.5684
102 3 -2.5231 5.77339 10.196
103 3 -1.09996 4.89383 12.4087
116 3 3.76771 0.445955 9.02261
117 3 2.36523 1.96562 10.5617
121 3 5.17773 1.90765 10.7922
122 3 6.83019 0.173169 12.269
226 2 5.88857 3.31133 13.2167
127 3 1.2899 4.4384 13.909
337 2 3.6064 0.273868 14.258
233 2 1.92902 4.14712 10.8858
234 2 0.253143 4.82487 10.6147
235 2 1.56342 5.87109 11.5557
249 2 4.01442 4.56526 11.3028
359 2 -0.189818 3.84375 16.6986
296 4 4.79025 2.25355 15.6226
297 1 5.58864 0.713556 14.7319
298 1 4.18816 3.54054 14.28
299 2 6.61918 0.553653 15.1274
300 2 5.65423 1.32882 13.7538
301 2 5.13365 -0.288726 14.4775
302 2 3.96361 3.30656 13.1829
303 2 4.66843 4.56686 14.4614
304 2 3.15643 3.62489 14.9279
32 4 1.39846 6.03643 14.4076
314 1 -0.00448583 1.07777 16.0478
315 2 0.968447 0.877104 15.3615
334 1 2.49232 0.297211 14.2018
335 2 1.97029 -0.341118 15.0875
336 2 2.08453 1.37422 14.0703
130 3 3.33535 6.27762 9.18618
339 2 3.13035 0.567212 16.6705
358 2 0.170065 1.94554 16.7919
338 1 3.33682 1.70983 16.8221
7 4 -1.22761 6.08644 16.1342
311 2 0.693851 0.808382 8.51295
23 4 -0.262374 13.0002 7.74108
15 4 -3.02998 8.91658 7.67143
17 4 -4.38707 11.0642 6.00599
362 2 -5.02891 13.0167 3.99873
35 4 -1.58357 11.4322 3.90002
216 2 -3.34559 13.2018 2.89031
69 1 -1.9924 8.41659 6.14538
82 1 1.73907 8.31423 2.88826
83 1 -1.9125 9.80327 2.90192
84 1 1.55157 9.50514 5.86877
106 3 -5.76548 10.8504 4.89239
107 3 -4.16108 9.88838 7.09338
108 3 -4.81591 12.4819 6.65878
132 3 -1.66495 12.5852 2.70542
133 3 -2.99918 11.2708 4.96776
134 3 1.26465 9.98747 0.670742
138 3 -0.130052 11.2271 4.53042
213 2 -1.60165 9.3664 5.68055
214 2 -2.34486 7.74101 5.29868
215 2 -1.14899 7.90137 6.75185
230 2 1.21517 8.05362 7.71041
332 1 -3.98722 13.3044 0.481155
321 2 -0.311362 8.56498 0.234721
251 2 1.67267 8.7713 3.99537
252 2 2.38832 7.34955 2.87615
253 2 0.671983 8.19768 2.36992
254 2 -1.95328 10.182 1.78398
255 2 -2.81345 9.29627 3.3518
256 2 -0.96159 9.29719 3.18781
289 1 -4.29009 7.49956 1.47397
258 2 0.743926 8.9792 5.22243
259 2 1.13531 9.63117 6.96117
331 2 -5.53615 11.1585 2.07664
290 2 -1.90297 7.28718 3.44182
294 2 -3.30416 8.04289 1.18783
320 1 -1.36799 8.19296 0.484179
333 2 -3.10735 13.3697 1.24147
322 2 -1.53609 7.88661 1.53563
1 4 -5.43381 12.9803 8.11559
324 1 -7.19875 12.0779 2.85295
354 3 0.144493 12.4838 0.623014
326 2 -6.20217 12.6534 2.80496
240 2 1.76467 6.60408 5.34349
328 1 -4.73121 10.5219 1.49119
329 2 -3.71661 10.2784 2.11369
330 2 -5.19283 9.56547 1.00683
244 2 3.38981 7.72605 7.06642
139 3 0.743824 11.9712 6.81103
323 2 -2.04858 9.01255 0.143843
104 3 -3.61186 7.47494 8.43787
4 4 -6.54315 12.5689 12.8629
14 4 -3.53214 10.9017 16.8345
238 2 -0.736589 8.06927 10.1012
18 4 -3.12514 8.54714 13.2301
19 4 -4.3516 10.5896 11.1848
28 4 4.00581 6.31193 16.3824
135 3 -1.90867 9.81955 8.55871
36 4 1.50994 10.6218 16.5737
37 4 -1.63935 10.9887 9.72552
39 4 2.52933 8.36058 12.67
40 4 -1.0743 10.338 14.994
41 4 0.9438 10.7155 11.456
68 1 -4.8078 10.6972 15.4471
75 1 0.957105 7.70087 8.77357
77 1 -0.463845 7.5493 11.104
232 2 -0.158416 7.6748 8.83562
105 3 -6.37708 11.8615 8.80873
109 3 -4.43704 7.95063 14.3256
110 3 -2.61087 7.14457 12.5705
111 3 -5.57243 9.83775 10.3654
112 3 -3.67332 9.58719 12.2436
113 3 -5.22551 11.6912 12.2811
236 2 -0.624285 8.23241 11.9833
128 3 2.53253 6.13326 15.6672
237 2 0.504696 6.99432 11.0931
231 2 1.3272 8.37997 9.54692
136 3 -1.05162 12.2144 8.86992
137 3 -3.13513 11.2393 10.3713
140 3 1.82907 7.06755 13.1761
142 3 -1.75709 9.24875 13.9493
143 3 0.406812 10.0707 15.4808
144 3 -0.99771 11.7471 14.2682
145 3 -2.12718 10.3662 16.3373
146 3 -0.493591 10.4425 10.776
147 3 1.38339 9.35497 12.1433
26 4 -0.210195 12.783 13.3071
210 2 -5.68483 10.1725 16.0311
211 2 -4.5497 10.388 14.3965
212 2 -4.91685 11.8811 15.5025
101 3 -2.77849 6.19255 15.8518
129 3 -0.0415735 6.30518 15.1458
148 3 0.826541 11.9466 12.4683
279 2 2.56436 8.85545 8.53287
22 4 6.9558 2.78013 0.460241
42 4 9.07097 1.92028 3.86623
269 2 10.6525 5.56482 5.90155
46 4 11.5195 1.9624 5.74472
50 4 10.236 4.09691 1.98928
51 4 8.91502 6.39032 0.163273
52 4 10.3614 3.90293 7.96307
72 1 6.83158 3.97236 1.85743
85 1 12.8492 2.91536 4.754
86 1 8.44347 6.23477 4.11335
87 1 8.8599 4.57676 6.99034
153 3 9.02057 0.70467 8.36326
149 3 8.79555 0.773134 2.71436
150 3 7.80242 2.21722 4.97577
245 2 4.84681 5.83163 2.91005
155 3 10.3457 1.58684 4.69746
156 3 12.2966 0.74821 6.38969
164 3 9.28882 3.26372 3.08146
165 3 10.9781 3.08088 0.906072
166 3 11.3021 4.9586 2.92304
168 3 9.46059 5.14673 1.09264
170 3 10.9587 2.90705 6.98319
221 2 7.76472 4.61373 1.95762
222 2 6.72407 3.37905 2.81558
223 2 5.87835 4.60883 1.75092
246 2 6.185 5.0586 4.12147
260 2 13.2738 2.44949 3.78261
261 2 13.655 3.0303 5.50524
262 2 12.2528 3.91985 4.52364
205 2 15.5595 0.377438 3.75289
264 2 8.80918 5.2449 3.97507
363 2 14.6785 1.89313 1.02146
266 2 7.84257 3.88679 7.19092
267 2 9.008 4.61405 5.87732
268 2 8.74707 5.59462 7.45693
293 2 11.7832 6.4976 0.864697
80 1 5.36491 5.80669 3.9909
306 1 14.0062 1.74384 1.97915
307 3 11.927 0.476376 0.702145
308 2 13.2456 2.49804 2.09657
309 2 14.6451 1.58856 2.94892
355 2 14.4732 1.75428 4.80835
305 4 13.0407 0.113709 1.68601
152 3 14.0397 0.53748 8.38921
263 2 7.49258 6.21306 4.74536
287 4 11.8026 6.56259 3.1094
204 2 15.6395 0.403542 5.66175
171 3 11.444 5.12689 8.40895
345 2 4.57213 6.25067 1.58359
124 3 6.52892 2.79261 7.35156
65 1 15.5017 1.05832 4.71348
44 4 12.9842 -0.284474 7.45602
2 4 14.4482 1.76766 9.36172
5 4 14.5274 1.74539 15.0505
56 4 9.52772 6.19191 11.1768
45 4 9.35364 1.58688 9.62429
352 2 7.45447 4.8283 16.3585
48 4 9.62075 1.70836 15.044
49 4 11.9607 1.78359 11.2434
55 4 10.8036 4.07997 13.1321
229 2 5.88367 5.63967 15.2996
73 1 7.01072 3.11659 12.5667
151 3 13.3256 1.99285 16.0518
353 2 8.7592 4.46479 15.0638
154 3 7.96702 1.71896 10.459
157 3 14.3751 0.444278 14.1862
158 3 8.79238 0.58128 14.2402
159 3 10.8773 0.90012 15.5949
160 3 8.68503 2.42555 16.2593
161 3 13.0421 2.13916 10.1505
162 3 10.6709 1.08762 10.531
163 3 12.5089 0.56158 12.2954
169 3 9.63999 3.1727 9.16797
179 3 8.31743 6.08524 10.0861
172 3 6.1224 4.877 8.70683
175 3 10.0877 2.97593 14.1147
176 3 11.7342 3.09446 12.1686
177 3 11.529 5.20694 14.0437
350 1 8.28619 5.23909 15.7627
180 3 9.66356 4.84125 12.1942
224 2 7.15923 4.015 11.8577
225 2 7.82101 2.90142 13.2004
248 2 5.57359 5.31497 12.1507
43 4 12.0003 1.32881 16.734
316 2 15.714 0.0230032 16.5955
9 4 12.1336 6.18603 9.40045
47 4 13.4529 -0.464348 13.114
228 2 4.9091 6.17386 13.7551
13 4 8.87827 10.8113 4.28659
364 2 11.8698 7.02314 6.40688
54 4 9.72574 7.40381 4.95658
57 4 7.64992 9.03197 1.83081
58 4 3.82498 11.527 3.74652
59 4 7.81164 8.72434 7.30037
61 4 6.26128 10.834 5.86784
79 1 4.38135 7.57445 6.48113
348 2 6.02691 11.3789 1.10116
88 1 10.7513 6.62713 6.34125
90 1 5.83088 9.51785 1.89069
349 2 7.11016 12.9192 0.844252
277 2 7.62875 11.0978 0.392126
346 1 6.12979 12.4678 0.621763
91 1 8.36275 10.1641 0.339033
174 3 10.9495 7.59702 4.0237
181 3 7.95028 7.5163 1.40119
182 3 8.29472 9.56959 3.26585
183 3 3.38167 10.5215 2.43485
184 3 4.47552 12.8964 3.12024
185 3 2.59506 11.7615 4.71342
186 3 7.33203 7.38313 7.87304
187 3 8.82431 8.30844 6.01632
257 2 2.57519 9.10378 5.75045
191 3 7.75389 11.4628 5.21471
192 3 5.08266 10.6584 4.56019
193 3 6.46099 9.43633 6.78499
194 3 5.57833 11.9148 6.73382
242 2 4.52265 8.33049 5.77106
243 2 5.25727 7.50974 7.16181
365 2 9.48323 10.2718 0.724301
247 2 5.69252 6.87863 4.31556
295 2 10.9182 8.16485 1.31896
274 2 5.54214 8.30164 1.96837
275 2 5.27624 9.97788 0.997583
276 2 5.62637 9.98431 2.89047
34 4 2.5462 9.30268 1.51564
278 2 3.57665 9.99511 7.2727
265 2 8.23675 6.78341 2.98403
131 3 3.44113 8.36759 0.327479
38 4 1.21976 11.381 5.42823
92 1 3.52636 9.60189 8.34029
327 2 8.03127 12.7626 3.07714
270 2 10.1364 6.77872 7.26344
325 2 8.72302 11.4562 1.89605
11 4 11.8583 6.44309 15.111
33 4 4.36938 6.78029 10.589
280 2 4.45099 9.09717 8.72342
60 4 3.56198 11.1482 9.42623
62 4 3.87507 10.5723 14.6585
63 4 6.32911 10.8045 11.2531
366 2 8.91242 9.00762 16.2134
74 1 5.26623 6.48992 14.8699
89 1 9.22503 7.65456 12.4445
93 1 5.49099 9.86188 15.6246
94 1 6.46112 9.33051 12.5102
141 3 3.55342 7.96169 11.4926
351 2 8.11692 6.22255 15.1971
167 3 10.6667 6.42392 16.2276
173 3 5.99003 7.22286 10.2503
178 3 10.9883 6.58465 10.448
66 1 8.36644 11.4076 14.0167
190 3 2.23108 11.0794 10.2959
195 3 3.34497 9.32645 13.8139
196 3 4.39928 11.7688 13.8028
197 3 2.87977 10.831 15.8886
198 3 7.84143 10.7757 10.5347
199 3 5.13249 10.7752 10.2564
200 3 6.15756 12.1493 12.1031
227 2 5.83375 7.50158 14.922
283 2 5.02929 10.0645 16.6144
271 2 9.02794 8.49593 11.7333
272 2 10.0818 7.82529 13.204
273 2 8.33291 7.26764 13.011
347 2 6.53709 11.8178 16.4011
281 2 6.2755 10.6393 15.3519
282 2 5.77276 8.78933 15.4459
206 2 9.08391 10.9258 14.741
284 2 7.48869 8.74186 12.5093
285 2 5.71342 8.74407 11.9798
286 2 6.06562 9.55751 13.6956
16 4 9.19486 10.5277 9.59994
356 2 7.64935 10.6365 13.5131
357 2 7.76635 12.2659 14.4275
53 4 7.00765 6.41265 9.23792
188 3 8.68193 9.52815 8.47552
189 3 3.61393 12.3912 8.47745
ITEM: TIMESTEP
100
ITEM: NUMBER OF ATOMS
366
ITEM: BOX BOUNDS xy xz yz pp pp pp
-8.2471888000000000e+00 1.6741099999999999e+01 -8.2471888000000000e+00
-6.4910000000000001e-01 1.3422400000000000e+01 6.1619999999999997e-01
0.0000000000000000e+00 1.6908999999999999e+01 -6.4910000000000001e-01
ITEM: ATOMS id type x y z
3 4 0.654378 2.45098 4.73
8 4 -0.423112 4.07707 7.4276
20 4 7.81154 0.202672 1.72794
21 4 3.89522 1.7159 4.22633
25 4 6.59637 1.71865 6.09892
29 4 5.31287 3.84493 7.9869
31 4 4.24454 5.57164 5.50765
64 1 0.569805 3.55302 3.17197
97 3 -1.25584 2.98261 8.22692
67 1 -1.57138 5.49437 7.03898
70 1 3.95576 0.0428962 3.31037
71 1 3.94568 3.03685 2.89456
78 1 2.4018 5.27648 4.90386
98 3 0.184702 3.29738 5.96603
114 3 2.14992 1.9482 4.69326
115 3 6.88095 1.39747 1.15327
118 3 5.09758 1.82194 5.28491
119 3 7.00042 0.278946 6.62033
343 2 4.52135 4.87024 0.223738
125 3 0.818819 4.89914 8.03745
126 3 4.71333 4.59295 6.58638
201 2 -0.400624 2.88558 2.79468
202 2 1.55218 3.4563 2.47438
203 2 0.379811 4.64545 3.40453
317 1 -1.34277 5.18124 0.234509
358 2 -0.556581 2.45189 0.0653368
342 1 3.96296 5.7304 0.774248
319 2 -2.28009 4.73319 0.600816
209 2 -1.46669 5.54205 5.8912
344 2 2.88217 5.46005 1.09503
217 2 3.2805 0.320067 2.45437
218 2 2.89832 3.28066 2.43014
219 2 4.62 2.48071 2.17408
220 2 4.59183 4.08613 3.2541
239 2 2.37342 4.35462 4.17796
241 2 1.87396 5.0683 5.8505
312 2 0.824031 0.189661 6.53096
288 1 -2.30484 6.50127 3.69169
291 2 -1.72254 5.84786 2.99174
292 2 -2.41614 6.07872 4.76063
361 2 3.19039 0.272699 0.724887
310 1 1.44938 0.774775 7.38551
341 2 3.20033 2.3953 0.993469
313 2 2.083 1.62572 6.94192
318 2 -0.722677 5.50822 1.09046
208 2 -2.63748 5.25039 7.34764
124 3 6.43135 2.79226 7.43485
240 2 1.9555 6.15374 4.45778
311 2 0.828722 1.07706 8.26202
6 4 0.805899 1.57996 11.1606
123 3 4.1692 3.19631 8.85058
360 2 5.13921 -0.128031 16.2499
10 4 -0.123357 3.86193 13.1512
12 4 -1.86655 6.07497 11.6393
24 4 3.75331 1.9593 9.79428
340 2 2.43271 2.39202 16.7068
27 4 6.67264 1.7425 11.5093
30 4 1.74198 5.92031 9.03029
76 1 1.40489 5.14374 10.6975
250 2 3.71071 5.53443 12.7777
95 3 -0.351412 1.38588 10.1677
96 3 1.03674 0.166543 12.077
81 1 4.50959 5.39213 11.9785
99 3 -0.909574 3.05726 14.3144
100 3 0.407408 2.81222 12.1751
120 3 5.84175 2.77423 16.4471
102 3 -2.58075 5.62247 10.1714
103 3 -1.0321 4.90397 12.3417
116 3 3.61103 0.539952 8.94648
117 3 2.21898 2.08178 10.4968
121 3 4.99568 1.83413 10.9081
122 3 7.02966 0.45605 12.4762
226 2 5.87652 3.36222 13.306
127 3 1.33061 4.54788 13.8099
337 2 3.48202 0.4739 14.3594
233 2 2.01316 4.21255 10.8517
234 2 0.254982 4.88722 10.3599
235 2 1.47152 5.78525 11.5928
249 2 4.45159 4.47485 11.3941
359 2 -0.142883 3.82446 16.4946
296 4 4.68901 2.23097 15.5741
297 1 5.44371 0.778332 14.5147
298 1 4.11818 3.57193 14.3296
299 2 6.60907 0.879555 14.655
300 2 5.04307 1.32093 13.6223
301 2 5.07482 -0.311038 14.5728
302 2 3.90779 3.27191 13.2789
303 2 4.65453 4.6103 14.5111
304 2 3.06445 3.52759 15.0661
32 4 1.46179 6.00432 14.4605
314 1 -0.101339 0.961264 16.2181
315 2 0.796121 0.788974 15.5191
334 1 2.30058 0.29506 14.2706
335 2 1.87816 -0.379072 15.1639
336 2 1.75894 1.33125 14.1056
338 1 3.28236 1.70674 16.8537
339 2 2.97484 0.701557 16.6453
128 3 2.6755 5.90052 15.7514
23 4 -0.181906 13.0398 7.66775
15 4 -2.88624 8.84969 7.59867
17 4 -4.36616 11.0315 5.84549
362 2 -4.62843 12.6054 3.89574
35 4 -1.66108 11.3625 3.87436
216 2 -3.24889 13.2368 2.94922
69 1 -1.75353 8.34793 6.18516
82 1 1.96886 8.2578 2.91292
83 1 -1.98856 9.83486 2.85051
84 1 1.62845 9.42092 5.87187
106 3 -5.65107 10.7944 4.9169
107 3 -3.97821 9.77073 6.84732
108 3 -4.74406 12.1968 6.89673
132 3 -1.57496 12.6927 2.62019
133 3 -3.0423 11.4133 4.85064
134 3 1.11644 10.1546 0.904717
138 3 -0.251288 11.1557 4.68228
213 2 -1.70351 9.34235 5.59519
214 2 -2.20593 7.54899 5.46456
215 2 -0.70666 8.1116 6.57238
230 2 1.33307 7.84034 7.735
332 1 -4.03026 13.3398 0.355543
321 2 -0.363558 8.61726 0.0784109
251 2 1.83874 8.6804 3.9956
252 2 2.75847 7.40676 2.83496
253 2 0.976269 7.90557 2.38676
254 2 -2.07499 9.95564 1.6376
255 2 -3.02839 9.5603 3.34844
256 2 -1.00595 9.25167 3.15994
289 1 -4.24953 7.41759 1.47161
258 2 0.756866 8.93091 5.34906
259 2 1.46227 9.24034 6.98921
331 2 -5.5715 11.0603 2.01434
290 2 -1.93068 7.59279 3.70857
294 2 -3.20132 7.89857 1.18266
320 1 -1.32726 8.25083 0.499385
323 2 -2.18271 9.08093 0.545649
322 2 -1.20433 7.75552 1.44263
1 4 -5.52484 12.9191 8.0984
324 1 -7.08826 12.1982 2.83396
354 3 0.208857 12.656 0.603438
326 2 -6.14617 12.7741 2.9051
364 2 -4.07819 7.01642 6.14122
328 1 -4.73143 10.502 1.4631
329 2 -3.79049 10.3328 2.06239
330 2 -5.1028 9.50019 1.06769
244 2 3.46675 7.25774 7.23132
279 2 2.53648 8.90104 8.43207
207 2 -1.16147 6.42857 7.58639
333 2 -3.25501 13.3605 1.1094
4 4 -6.52034 12.5176 12.9692
14 4 -3.53496 10.8902 16.7503
238 2 -0.887547 8.03347 10.3467
18 4 -3.0858 8.44723 13.2815
19 4 -4.42732 10.5492 11.3311
28 4 4.04223 6.4513 16.4543
135 3 -1.95367 9.67929 8.66882
36 4 1.38131 10.6072 16.6736
37 4 -1.70482 10.9777 9.61464
39 4 2.50339 8.36759 12.6608
40 4 -1.08515 10.3658 14.9487
41 4 0.993267 10.7088 11.2785
68 1 -4.903 10.8383 15.5223
75 1 0.973547 7.67827 8.90931
77 1 -0.543538 7.42401 11.2286
232 2 -0.200952 7.84082 9.06694
105 3 -6.45123 12.0224 9.03214
109 3 -4.31001 8.0087 14.4166
110 3 -2.67432 7.18187 12.4646
111 3 -5.65978 9.88259 10.3244
112 3 -3.86996 9.56067 12.3903
113 3 -5.23024 11.6188 12.264
236 2 -0.514835 8.03155 12.1758
104 3 -3.51051 7.44191 8.5381
237 2 0.454229 6.85784 11.0187
231 2 1.5333 8.33011 9.59261
136 3 -1.08028 12.0977 8.67322
137 3 -3.15657 11.1341 10.4436
140 3 1.90793 7.07022 13.386
142 3 -1.74289 9.20527 14.0863
143 3 0.390691 9.93113 15.5796
144 3 -1.27354 11.8132 14.1574
145 3 -2.10665 10.4166 16.1789
146 3 -0.518621 10.4503 10.5728
147 3 1.33496 9.28184 11.9395
26 4 -0.297125 12.8127 13.2807
210 2 -5.79941 10.3306 16.0637
211 2 -4.65785 10.4051 14.5358
212 2 -4.93194 12.045 15.5831
101 3 -2.78856 6.25048 15.6909
129 3 -0.0973561 6.31157 15.0084
148 3 0.71676 11.8179 12.4156
7 4 -1.18851 6.10817 16.1647
130 3 3.17669 6.35614 9.26378
22 4 6.84921 2.81492 0.417814
42 4 9.01825 1.89892 3.89793
269 2 11.2327 5.321 5.87375
46 4 11.6052 1.91159 5.73903
50 4 10.2645 4.12938 1.97539
51 4 8.87049 6.4279 0.049928
52 4 10.4505 3.85292 7.95317
72 1 6.92213 4.0124 1.84806
85 1 12.8921 3.01885 4.89829
86 1 8.66075 6.3241 4.1043
87 1 8.88072 4.46793 6.89095
153 3 8.94112 0.716286 8.38137
149 3 8.90938 0.681763 2.80668
150 3 7.67562 2.13568 4.94951
245 2 4.92402 5.81214 3.00257
155 3 10.3918 1.58502 4.65191
156 3 12.6043 0.798118 6.49826
164 3 9.30809 3.34843 3.04207
165 3 10.9966 3.14565 1.06195
166 3 11.4 5.14779 2.82369
168 3 9.45526 5.24679 0.980404
170 3 11.1267 3.02178 6.81343
221 2 7.85808 4.67606 1.85842
222 2 6.85555 3.36381 2.75712
223 2 5.96204 4.60933 1.70077
246 2 6.24334 4.92925 4.12572
260 2 13.3187 2.4677 3.84906
261 2 13.7404 3.33631 5.6822
262 2 12.1964 3.91598 4.67015
205 2 15.4878 0.415093 4.14201
264 2 9.34299 5.42808 4.03769
363 2 14.8141 1.84277 1.374
266 2 7.99144 3.83244 7.04472
267 2 9.25983 4.40432 5.78584
268 2 8.88499 5.56858 7.25988
293 2 11.7266 6.43791 0.81155
80 1 5.4448 5.75762 4.02485
306 1 14.01 1.62726 2.18795
307 3 11.9667 0.55847 0.708867
308 2 13.2162 2.47055 2.17151
309 2 14.5266 1.42415 3.25649
355 2 14.4476 1.6943 5.06767
305 4 13.0366 0.0384688 1.71138
345 2 4.57102 6.20948 1.68755
263 2 7.77347 6.29132 4.82907
65 1 15.4112 1.07957 5.01832
204 2 15.7198 0.611299 6.10082
44 4 13.1169 -0.259024 7.54661
88 1 11.1305 6.42867 6.24415
152 3 14.2648 0.381885 8.44492
2 4 14.4689 1.7756 9.28183
5 4 14.6107 1.72484 15.0968
56 4 9.62849 6.16081 11.2487
45 4 9.28146 1.74947 9.82033
352 2 7.48012 4.65706 16.3946
48 4 9.582 1.76603 15.0291
49 4 11.9862 1.82509 11.3629
55 4 10.7553 4.09474 13.0994
229 2 5.93899 5.69451 15.4553
73 1 6.88062 3.26645 12.6247
151 3 13.4879 2.08636 16.1131
353 2 8.7058 4.21673 14.9618
154 3 7.96813 1.91187 10.6925
157 3 14.2592 0.564855 14.1316
158 3 8.65594 0.495974 14.2836
159 3 10.9823 1.23498 15.6046
160 3 8.65548 2.37386 16.2648
161 3 13.1155 2.06815 10.2576
162 3 10.4918 1.20889 10.6727
163 3 12.5716 0.56292 12.2071
169 3 9.82715 3.09989 9.18188
179 3 8.22955 6.20027 10.0898
172 3 6.21076 4.96073 8.82398
175 3 9.83512 2.89977 13.9726
176 3 11.7607 3.18582 12.1808
177 3 11.3518 5.27125 14.0222
350 1 8.3404 5.0493 15.6682
180 3 9.64515 4.97987 12.3104
224 2 6.9755 4.12522 11.8791
225 2 7.8546 3.15772 13.2212
248 2 5.51794 5.49669 12.4407
43 4 12.0746 1.50022 16.7868
316 2 15.7509 -0.0311288 16.7658
9 4 12.1814 6.14451 9.45348
47 4 13.456 -0.388889 13.0758
171 3 11.4632 4.93429 8.48434
351 2 7.96678 5.95721 15.1233
53 4 6.93214 6.27225 9.19198
228 2 4.9412 6.05564 13.8595
13 4 8.86331 10.8132 4.16574
280 2 4.43582 9.13302 8.40127
54 4 9.77542 7.42491 5.15904
57 4 7.77395 8.99919 1.88683
58 4 3.95799 11.5138 3.76199
59 4 7.74958 8.70082 7.32396
61 4 6.22519 10.8953 5.83224
79 1 4.17486 7.46064 6.38048
348 2 6.06487 11.2414 1.33575
295 2 10.9811 8.18681 1.419
90 1 5.9184 9.30909 1.98939
349 2 7.07122 12.9314 1.2649
277 2 7.64139 11.0791 0.332505
346 1 6.1599 12.397 0.861665
91 1 8.38067 10.14 0.350198
174 3 10.9377 7.60116 4.03964
181 3 7.97735 7.39464 1.34684
182 3 8.48158 9.57743 3.17682
183 3 3.46623 10.4813 2.48169
184 3 4.56966 12.8505 3.13734
185 3 2.62279 11.5766 4.75179
186 3 7.08114 7.34782 7.88125
187 3 8.7072 8.14175 6.14269
257 2 2.616 9.00332 5.52703
191 3 7.61622 11.2347 5.08444
192 3 5.05854 10.6455 4.57922
193 3 6.61659 9.59186 6.70408
194 3 5.60416 11.9943 6.70243
242 2 3.82955 8.23566 5.61033
243 2 5.22875 7.72693 6.75485
365 2 9.51659 10.3182 0.722148
247 2 5.81472 6.85252 4.40069
139 3 0.885723 11.998 6.78722
274 2 5.63824 8.16588 2.05058
275 2 5.40205 9.76296 1.02027
276 2 5.66301 9.84106 2.98805
34 4 2.54569 9.51946 1.66533
278 2 3.46835 10.1465 7.1954
265 2 8.37902 6.67049 3.00082
131 3 3.47518 8.46151 0.44796
38 4 1.23826 11.2653 5.46143
92 1 3.47654 9.62977 8.21662
327 2 8.1945 12.8526 3.18441
270 2 10.7072 6.55702 7.27165
325 2 8.73819 11.5334 1.8448
188 3 8.6577 9.52215 8.42394
287 4 11.9495 6.59237 3.11192
11 4 11.6771 6.47514 15.0437
33 4 4.30174 6.81566 10.6985
357 2 7.50981 12.2276 14.1394
60 4 3.58293 11.0603 9.53481
62 4 3.78808 10.64 14.6002
63 4 6.5378 10.9925 11.1475
366 2 8.95788 8.86462 16.3734
74 1 5.22035 6.47193 14.8864
89 1 9.27048 7.71485 12.3044
93 1 5.48007 10.0092 15.3364
94 1 6.5119 9.45653 12.2745
141 3 3.57662 7.91993 11.5953
189 3 3.80559 12.3776 8.64062
167 3 10.5674 6.7063 16.2123
173 3 5.75802 7.17138 10.1791
178 3 10.9654 6.40132 10.4199
66 1 8.25677 11.414 14.0011
190 3 2.19067 11.0255 10.2499
195 3 3.38777 9.3685 13.7122
196 3 4.30202 11.8797 13.8163
197 3 2.71356 10.8137 15.9031
198 3 7.95945 10.7447 10.5645
199 3 4.94293 10.8211 10.3298
200 3 6.23328 12.242 12.0026
227 2 5.76113 7.52288 14.7835
283 2 5.10753 10.19 16.3889
271 2 9.10826 8.55967 11.5577
272 2 10.2116 7.87228 12.8906
273 2 8.29881 7.44012 12.8859
347 2 6.85306 11.6229 16.686
281 2 6.42918 10.5134 15.0487
282 2 5.46532 8.85273 15.0826
206 2 8.86258 11.0572 14.8815
284 2 7.49658 8.84095 12.162
285 2 5.64355 8.86654 11.7563
286 2 6.22083 9.68693 13.3872
16 4 9.24508 10.529 9.56906
356 2 7.82256 10.6294 13.3333
ITEM: TIMESTEP
200
ITEM: NUMBER OF ATOMS
366
ITEM: BOX BOUNDS xy xz yz pp pp pp
0.0000000000000000e+00 2.4625522400000001e+01 7.8844224000000001e+00
-6.4910000000000001e-01 1.3422400000000000e+01 6.1619999999999997e-01
0.0000000000000000e+00 1.6908999999999999e+01 -6.4910000000000001e-01
ITEM: ATOMS id type x y z
124 3 6.66531 2.93298 7.2857
313 2 2.07314 1.74931 7.04793
20 4 7.75346 0.14945 1.69646
21 4 3.77298 1.76657 4.1932
25 4 6.62264 1.86098 5.95405
29 4 5.43033 3.74514 7.89732
31 4 4.20993 5.77875 5.5397
341 2 3.13178 2.64202 1.26699
310 1 1.45416 0.837739 7.41427
361 2 3.0948 0.178325 0.613
70 1 3.99019 0.0827253 3.17373
71 1 3.88195 3.20443 3.00229
312 2 0.896689 0.428827 6.45829
220 2 4.5214 4.23569 3.34144
114 3 2.2815 1.80569 4.72009
115 3 6.80154 1.39381 1.10278
118 3 5.14631 1.77096 5.15725
119 3 7.07689 0.467313 6.67715
343 2 4.49075 4.92114 0.347596
219 2 4.50341 2.66582 2.20748
126 3 4.69568 4.66467 6.52074
218 2 2.77458 3.47106 2.67302
217 2 3.53436 0.365426 2.17455
342 1 3.94742 5.82388 0.838135
22 4 6.75106 2.81938 0.379815
42 4 9.07604 1.94623 3.90982
333 2 4.96553 0.0352953 1.12262
269 2 11.1757 5.40157 5.62785
50 4 10.3521 4.12341 2.00367
51 4 8.96752 6.408 0.182939
263 2 7.70479 6.36187 4.74786
345 2 4.51686 6.33678 1.66434
52 4 10.5948 3.95047 7.97365
72 1 6.79949 4.05393 1.77808
86 1 8.60057 6.15843 4.06126
87 1 9.01093 4.81542 7.08348
287 4 12.0109 6.4992 3.06961
150 3 7.82913 2.20117 4.79214
80 1 5.48571 5.86924 3.95685
293 2 11.4272 6.42425 1.00351
268 2 8.78114 5.8346 7.51327
267 2 9.47535 4.82422 6.03355
266 2 8.04962 4.13155 7.11567
245 2 4.83345 5.82315 2.92195
264 2 8.83057 5.06225 4.00617
164 3 9.39292 3.41431 3.12784
168 3 9.56324 5.17355 0.997666
221 2 7.81297 4.51827 1.50455
222 2 6.86421 3.4206 2.71543
246 2 6.21301 5.01504 4.08785
223 2 5.95784 4.81126 1.79062
338 1 2.68935 2.33624 0.0901422
353 2 8.88537 4.37862 15.2022
123 3 4.30672 3.12391 8.81155
360 2 5.04593 -0.1643 16.2265
154 3 7.72507 2.00208 10.5497
336 2 1.82053 1.23964 14.2402
24 4 3.89219 1.91859 9.81691
158 3 8.84652 0.281436 14.3259
27 4 6.52904 1.78253 11.545
335 2 1.94419 -0.457558 15.256
334 1 2.35809 0.189448 14.3352
153 3 8.84548 0.497157 8.69043
303 2 4.32673 4.65387 14.6564
96 3 0.990556 0.238594 11.9968
81 1 4.34853 5.35524 12.0221
302 2 3.48538 3.39765 13.4031
301 2 5.20706 -0.305124 14.727
120 3 5.80828 2.77997 16.398
300 2 4.78777 1.37485 13.6274
299 2 6.49998 1.12996 14.5909
116 3 3.83964 0.422077 8.81926
117 3 2.44353 2.01372 10.4523
121 3 5.01127 1.80138 11.1175
122 3 6.88261 0.320326 12.3775
226 2 5.46439 3.34048 13.3981
298 1 3.7995 3.63854 14.4754
337 2 3.50108 0.295221 14.4374
297 1 5.41846 0.814154 14.5618
296 4 4.64711 2.25913 15.6102
249 2 4.12801 4.34954 11.5758
56 4 9.5703 6.23163 11.293
228 2 4.81639 6.0152 13.8831
160 3 8.66113 2.22908 16.2305
351 2 8.21771 6.01857 15.0527
45 4 9.24878 1.66759 9.72497
352 2 7.44541 4.80023 16.246
9 4 12.1358 6.19121 9.45399
48 4 9.62414 1.66476 15.0066
55 4 10.7037 4.06959 13.1791
248 2 5.43908 5.38897 12.3865
225 2 7.44737 2.86623 13.565
224 2 6.91965 4.10522 12.1622
180 3 9.67536 4.94521 12.1958
350 1 8.38401 5.20701 15.7633
177 3 11.381 5.09477 14.2504
229 2 5.8634 5.79021 15.4142
175 3 9.6695 3.01727 14.0377
172 3 6.20502 4.94134 8.81352
179 3 8.22839 6.18569 10.2454
169 3 9.79029 3.06578 9.08734
73 1 6.5947 3.21941 12.778
340 2 2.35485 2.265 16.783
53 4 6.8397 6.2938 9.35582
339 2 3.14542 0.563373 16.8304
23 4 15.8496 13.0364 7.71472
15 4 13.263 8.84482 7.57857
17 4 11.9145 10.9883 5.84279
362 2 11.1975 12.8984 3.90177
35 4 14.4819 11.2354 3.90884
216 2 12.9146 13.0616 2.94155
187 3 8.82388 8.19278 6.14217
330 2 10.8152 9.34149 0.929315
329 2 12.2752 10.1262 2.04088
328 1 11.2944 10.3348 1.42254
106 3 10.4368 10.9005 4.79743
107 3 12.2175 9.67576 6.70187
108 3 11.3938 12.2177 6.72131
132 3 14.6556 12.6237 2.61316
133 3 13.1893 11.2079 4.91593
364 2 12.2558 6.96223 5.87532
326 2 10.046 12.6646 2.73988
324 1 9.01128 12.0571 2.77329
1 4 10.6936 12.992 7.91302
331 2 10.4582 10.9644 1.93858
289 1 11.7868 7.40193 1.54981
332 1 12.0825 13.3295 0.280665
255 2 13.2022 9.18152 3.28617
13 4 8.97825 10.7908 4.18029
270 2 10.6601 6.76688 6.9889
188 3 8.7463 9.48131 8.34515
325 2 8.76557 11.4716 1.80282
191 3 7.8801 11.3895 5.10839
327 2 8.1085 12.733 3.11031
54 4 9.86361 7.32077 4.99296
57 4 7.74201 8.97109 1.76849
59 4 7.78374 8.6825 7.30145
265 2 8.41837 6.62846 2.99314
295 2 10.9732 8.19375 1.67075
90 1 5.92644 9.32376 1.8752
277 2 7.50871 10.9768 0.424635
91 1 8.38783 10.1379 0.30307
274 2 5.6755 8.17643 1.86337
174 3 11.068 7.79659 4.02912
247 2 6.0807 6.8379 4.09889
365 2 9.44967 10.2978 0.73131
88 1 11.231 6.50193 5.91793
181 3 7.94144 7.37378 1.49799
182 3 8.53411 9.4862 3.0922
193 3 6.57005 9.58421 6.67042
186 3 7.1702 7.36146 7.99203
254 2 14.008 10.2515 1.72473
104 3 12.5912 7.43828 8.44984
4 4 9.55577 12.6024 12.953
14 4 12.5458 10.7921 16.8758
212 2 11.3129 11.9492 15.5136
18 4 13.0602 8.38428 13.3211
19 4 11.7038 10.5791 11.2584
211 2 11.6602 10.3023 14.4203
135 3 14.1203 9.66059 8.56111
210 2 10.4372 10.1965 16.0215
37 4 14.3676 10.9429 9.56116
26 4 15.8837 12.7852 13.3199
145 3 13.973 10.3297 16.3174
144 3 14.911 11.6282 14.0792
68 1 11.3475 10.7327 15.467
137 3 12.9847 11.1021 10.4027
136 3 14.8781 12.2128 8.76238
285 2 5.87027 8.73332 11.7313
105 3 9.81762 11.8824 8.75874
109 3 11.8537 7.88309 14.3794
113 3 10.9046 11.6307 12.2269
111 3 10.6417 9.90201 10.3115
112 3 12.3101 9.43333 12.2939
11 4 11.8724 6.31454 15.1052
356 2 7.75829 10.7412 13.3621
16 4 9.25511 10.5935 9.46437
366 2 9.00597 8.93715 16.2331
74 1 5.12735 6.46666 14.8766
284 2 7.71372 8.79124 12.3481
206 2 8.98275 11.046 14.8799
89 1 9.41859 7.73899 12.5272
94 1 6.61327 9.38475 12.2726
167 3 10.6542 6.51758 16.2698
273 2 8.44565 7.35289 13.1109
272 2 10.3511 7.85181 13.2068
271 2 9.28183 8.658 11.8796
173 3 5.75406 7.02981 10.3109
227 2 5.54743 7.52001 14.7352
178 3 10.9682 6.50323 10.5379
66 1 8.26655 11.4629 14.0891
198 3 7.85776 10.9489 10.1809
152 3 14.3823 0.441665 8.32389
207 2 14.5573 6.11448 7.73459
204 2 15.6805 0.473209 6.06542
46 4 11.6573 1.95752 5.77112
65 1 15.4764 1.00325 5.0326
305 4 12.98 0.195125 1.80483
355 2 14.4107 1.66929 5.02536
309 2 14.643 1.37577 3.18433
85 1 12.9534 3.03551 4.87941
308 2 13.3446 2.5531 2.21986
307 3 11.9722 0.663203 0.688437
306 1 14.0851 1.66538 2.15278
149 3 8.77918 0.877907 2.76478
363 2 14.7537 1.86536 1.20177
205 2 15.5885 0.22233 4.1779
155 3 10.3615 1.53843 4.84858
156 3 12.3995 0.66963 6.54788
262 2 12.4092 3.98848 4.59707
165 3 11.2239 3.12071 1.11727
166 3 11.3543 5.06968 2.89109
261 2 13.7438 3.16645 5.64436
170 3 11.1872 3.01172 6.87062
260 2 13.3833 2.48685 3.85659
3 4 16.6871 2.43483 4.78237
311 2 16.913 1.08673 8.30146
240 2 18.3301 5.71701 3.8494
8 4 15.6628 4.06472 7.33353
208 2 13.4149 4.74435 7.00013
318 2 14.9604 5.68155 1.11106
64 1 16.6326 3.48007 3.1922
97 3 14.8669 3.07332 8.38938
67 1 14.3883 5.37165 6.8851
78 1 18.6074 5.19719 4.84458
292 2 13.688 6.02356 4.74948
291 2 14.341 5.62738 3.00878
288 1 13.8074 6.3812 3.67682
98 3 16.1313 3.5062 5.7897
241 2 18.0194 5.61715 5.69552
239 2 18.588 4.07918 4.86874
125 3 16.975 4.8627 8.09973
201 2 15.7418 2.89856 2.81496
202 2 17.5292 3.42114 2.57016
203 2 16.3041 4.53852 3.36054
344 2 18.991 5.58278 1.21814
209 2 14.5302 5.81018 5.80651
319 2 13.5882 4.64629 0.309309
317 1 14.5787 5.18576 0.156784
2 4 14.5052 1.78181 9.30188
5 4 14.6235 1.70563 15.0917