LAMMPS (2 Aug 2023 - Update 2)
OMP_NUM_THREADS environment is not set. Defaulting to 1 thread. (src/comm.cpp:98)
  using 1 OpenMP thread(s) per MPI task
Reading data file ...
  triclinic box = (0 0 0) to (14.6913 12.723 15.9631) with tilt (-7.3456 0 0)
WARNING: Triclinic box skew is large. LAMMPS will run inefficiently. (src/domain.cpp:220)
  2 by 2 by 2 MPI processor grid
  reading atoms ...
  243 atoms
Finding 1-2 1-3 1-4 neighbors ...
  special bond factors lj:    0        0        0       
  special bond factors coul:  0        0        0       
     0 = max # of 1-2 neighbors
     0 = max # of 1-3 neighbors
     0 = max # of 1-4 neighbors
     1 = max # of special neighbors
  special bonds CPU = 0.001 seconds
  read_data CPU = 0.011 seconds
*****Minimization starts.*****
Setting up cg style minimization ...
  Unit style    : real
  Current step  : 0
WARNING: No pairwise cutoff or binsize set. Atom sorting therefore disabled. (src/atom.cpp:2366)
WARNING: Communication cutoff is 0.0. No ghost atoms will be generated. Atoms may get lost. (src/comm_brick.cpp:210)
Per MPI rank memory allocation (min/avg/max) = 6.364 | 6.364 | 6.364 Mbytes
   Step          Temp          E_pair         E_mol          TotEng         Press     
         0   0              0              0              0              0            
         1   0              0              0              0              0            
Loop time of 9.25309e-05 on 8 procs for 1 steps with 243 atoms

46.5% CPU use with 8 MPI tasks x 1 OpenMP threads

Minimization stats:
  Stopping criterion = search direction is not downhill
  Energy initial, next-to-last, final = 
                     0                  0                  0
  Force two-norm initial, final = 0 0
  Force max component initial, final = 0 0
  Final line search alpha, max atom move = 0 0
  Iterations, force evaluations = 1 0

MPI task timing breakdown:
Section |  min time  |  avg time  |  max time  |%varavg| %total
---------------------------------------------------------------
Pair    | 0          | 0          | 0          |   0.0 |  0.00
Bond    | 9.07e-07   | 2.0779e-06 | 2.793e-06  |   0.0 |  2.25
Neigh   | 0          | 0          | 0          |   0.0 |  0.00
Comm    | 9.428e-06  | 1.2344e-05 | 1.5295e-05 |   0.0 | 13.34
Output  | 0          | 0          | 0          |   0.0 |  0.00
Modify  | 0          | 0          | 0          |   0.0 |  0.00
Other   |            | 7.811e-05  |            |       | 84.41

Nlocal:         30.375 ave          33 max          24 min
Histogram: 1 0 0 0 0 0 4 0 0 3
Nghost:           2.25 ave           5 max           0 min
Histogram: 2 0 1 0 2 0 0 0 2 1
Neighs:              0 ave           0 max           0 min
Histogram: 8 0 0 0 0 0 0 0 0 0

Total # of neighbors = 0
Ave neighs/atom = 0
Ave special neighs/atom = 0
Neighbor list builds = 0
Dangerous builds = 0
System init for write_data ...
WARNING: Communication cutoff is 0.0. No ghost atoms will be generated. Atoms may get lost. (src/comm_brick.cpp:210)
WARNING: Van der Waals parameters for element SI indicate inner wall+shielding, but earlier atoms indicate a different van der Waals method. This may cause division-by-zero errors. Keeping van der Waals setting for earlier atoms. (src/REAXFF/reaxff_ffield.cpp:251)
WARNING: Van der Waals parameters for element AL indicate inner wall+shielding, but earlier atoms indicate a different van der Waals method. This may cause division-by-zero errors. Keeping van der Waals setting for earlier atoms. (src/REAXFF/reaxff_ffield.cpp:251)
WARNING: Changed valency_val to valency_boc for X (src/REAXFF/reaxff_ffield.cpp:296)

CITE-CITE-CITE-CITE-CITE-CITE-CITE-CITE-CITE-CITE-CITE-CITE-CITE

Your simulation uses code contributions which should be cited:
- pair reaxff command: doi:10.1016/j.parco.2011.08.005
- fix qeq/reaxff command: doi:10.1016/j.parco.2011.08.005
The log file lists these citations in BibTeX format.

CITE-CITE-CITE-CITE-CITE-CITE-CITE-CITE-CITE-CITE-CITE-CITE-CITE

Neighbor list info ...
  update: every = 10 steps, delay = 0 steps, check = no
  max neighbors/atom: 2000, page size: 100000
  master list distance cutoff = 12
  ghost atom cutoff = 12
  binsize = 6, bins = 4 3 3
  2 neighbor lists, perpetual/occasional/extra = 2 0 0
  (1) pair reaxff, perpetual
      attributes: half, newton off, ghost
      pair build: half/bin/newtoff/ghost
      stencil: full/ghost/bin/3d
      bin: standard
  (2) fix qeq/reaxff, perpetual, copy from (1)
      attributes: half, newton off
      pair build: copy
      stencil: none
      bin: none
Setting up Verlet run ...
  Unit style    : real
  Current step  : 0
  Time step     : 0.5
Per MPI rank memory allocation (min/avg/max) = 105.6 | 105.7 | 105.7 Mbytes
   Step          Temp          PotEng         Press         Density         Volume    
         0   300           -36881.566      21554.577      2.8878482      2983.7813    
       100   191.09983     -36767.324      3773.286       2.8878482      2983.7813    
       200   230.20342     -36757.547      4407.8277      2.8878482      2983.7813    
       300   259.64905     -36734.12       25689.153      2.8878482      2983.7813    
       400   269.2476      -36690.997      6922.8718      2.8878482      2983.7813    
       500   305.1432      -36688.387      3692.0166      2.8878482      2983.7813    
       600   319.20254     -36712.081      33465.073      2.8878482      2983.7813    
       700   288.03159     -36703.346      13520.704      2.8878482      2983.7813    
       800   277.18941     -36716.655      3300.1126      2.8878482      2983.7813    
       900   291.83311     -36731.142      25384.801      2.8878482      2983.7813    
      1000   305.23958     -36717.066      9593.5464      2.8878482      2983.7813    
      1100   300.87826     -36697.131      1212.9238      2.8878482      2983.7813    
      1200   325.26462     -36718.925      25578.851      2.8878482      2983.7813    
      1300   301.23674     -36706.61       15333.9        2.8878482      2983.7813    
      1400   305.42241     -36728.018     -147.2389       2.8878482      2983.7813    
      1500   280.60014     -36721.663      18171.064      2.8878482      2983.7813    
      1600   302.3094      -36727.117      27704.492      2.8878482      2983.7813    
      1700   293.21401     -36683.951     -110.0841       2.8878482      2983.7813    
      1800   326.75668     -36712.457      18069.156      2.8878482      2983.7813    
      1900   279.14868     -36699.554      18820.402      2.8878482      2983.7813    
      2000   280.3789      -36702.545     -3651.3784      2.8878482      2983.7813    
      2100   307.09326     -36727.711      16421.513      2.8878482      2983.7813    
      2200   288.29142     -36709.064      26951.587      2.8878482      2983.7813    
      2300   302.0771      -36694.478      1247.567       2.8878482      2983.7813    
      2400   340.38252     -36715.102      9458.0262      2.8878482      2983.7813    
      2500   297.38641     -36713.519      24168.511      2.8878482      2983.7813    
      2600   302.38408     -36725.954      4837.4389      2.8878482      2983.7813    
      2700   298.58254     -36722.162      16874.351      2.8878482      2983.7813    
      2800   294.90977     -36710.592      15322.385      2.8878482      2983.7813    
      2900   321.48009     -36715.508      7571.64        2.8878482      2983.7813    
      3000   332.69353     -36695.515      12900.347      2.8878482      2983.7813    
Loop time of 78.6444 on 8 procs for 3000 steps with 243 atoms

Performance: 1.648 ns/day, 14.564 hours/ns, 38.146 timesteps/s, 9.270 katom-step/s
98.7% CPU use with 8 MPI tasks x 1 OpenMP threads

MPI task timing breakdown:
Section |  min time  |  avg time  |  max time  |%varavg| %total
---------------------------------------------------------------
Pair    | 63.304     | 64.737     | 66.455     |  15.7 | 82.32
Bond    | 0.0066461  | 0.0074758  | 0.0081443  |   0.7 |  0.01
Neigh   | 4.7151     | 4.7295     | 4.7416     |   0.4 |  6.01
Comm    | 0.85413    | 2.5742     | 4.0086     |  78.7 |  3.27
Output  | 0.0010868  | 0.0011643  | 0.0016721  |   0.6 |  0.00
Modify  | 6.5245     | 6.538      | 6.5528     |   0.3 |  8.31
Other   |            | 0.05753    |            |       |  0.07

Nlocal:         30.375 ave          33 max          26 min
Histogram: 2 0 0 0 0 0 0 2 3 1
Nghost:        2712.25 ave        2723 max        2703 min
Histogram: 1 0 2 0 1 1 2 0 0 1
Neighs:          17582 ave       19077 max       15100 min
Histogram: 2 0 0 0 0 0 0 2 3 1

Total # of neighbors = 140656
Ave neighs/atom = 578.83128
Ave special neighs/atom = 0
Neighbor list builds = 300
Dangerous builds not checked
System init for write_data ...
System init for write_restart ...
OMP_NUM_THREADS environment is not set. Defaulting to 1 thread. (src/comm.cpp:98)
  using 1 OpenMP thread(s) per MPI task
Reading restart file ...
  restart file = 2 Aug 2023, LAMMPS = 2 Aug 2023
  restoring atom style full from restart
  triclinic box = (0 0 0) to (14.6913 12.723 15.9631) with tilt (-7.3456 0 0)
WARNING: Triclinic box skew is large. LAMMPS will run inefficiently. (src/domain.cpp:220)
  2 by 2 by 2 MPI processor grid
  pair style reaxff stores no restart info
  243 atoms
Finding 1-2 1-3 1-4 neighbors ...
  special bond factors lj:    0        0        0       
  special bond factors coul:  0        0        0       
     0 = max # of 1-2 neighbors
     0 = max # of 1-3 neighbors
     0 = max # of 1-4 neighbors
     1 = max # of special neighbors
  special bonds CPU = 0.000 seconds
  read_restart CPU = 0.002 seconds
*****debug*****
xy = -7.3456000000000001293, deltaxy = 0.146912
xz = 0, deltaxz = -0
yz = 0, deltayz = -0
*****
*****Negative-deform 1 starts.*****
WARNING: Van der Waals parameters for element SI indicate inner wall+shielding, but earlier atoms indicate a different van der Waals method. This may cause division-by-zero errors. Keeping van der Waals setting for earlier atoms. (src/REAXFF/reaxff_ffield.cpp:251)
WARNING: Van der Waals parameters for element AL indicate inner wall+shielding, but earlier atoms indicate a different van der Waals method. This may cause division-by-zero errors. Keeping van der Waals setting for earlier atoms. (src/REAXFF/reaxff_ffield.cpp:251)
WARNING: Changed valency_val to valency_boc for X (src/REAXFF/reaxff_ffield.cpp:296)
Resetting global fix info from restart file:
  fix style: nvt, fix ID: fnvt
All restart file global fix info was re-assigned
Neighbor list info ...
  update: every = 10 steps, delay = 0 steps, check = no
  max neighbors/atom: 2000, page size: 100000
  master list distance cutoff = 12
  ghost atom cutoff = 12
  binsize = 6, bins = 4 3 3
  2 neighbor lists, perpetual/occasional/extra = 2 0 0
  (1) pair reaxff, perpetual
      attributes: half, newton off, ghost
      pair build: half/bin/newtoff/ghost
      stencil: full/ghost/bin/3d
      bin: standard
  (2) fix qeq/reaxff, perpetual, copy from (1)
      attributes: half, newton off
      pair build: copy
      stencil: none
      bin: none
Setting up Verlet run ...
  Unit style    : real
  Current step  : 0
  Time step     : 0.5
Per MPI rank memory allocation (min/avg/max) = 105.8 | 106.1 | 106.4 Mbytes
   Step          Temp          PotEng         Press         Density         Volume    
         0   332.69353     -36695.515      12898.377      2.8878482      2983.7813    
       100   297.89995     -36689.043      17548.305      2.8897747      2981.7921    
       200   311.38401     -36715.513      9097.2418      2.8917038      2979.8029    
       300   299.3082      -36711.222      13070.589      2.8936354      2977.8137    
       400   297.49702     -36722.238      15189.609      2.8955697      2975.8246    
       500   293.37876     -36727.653      14849.963      2.8975065      2973.8354    
       600   298.94337     -36706.581      17271.686      2.8994459      2971.8462    
       700   331.83264     -36712.449      16002.466      2.901388       2969.857     
       800   309.99087     -36709.484      8486.3841      2.9033326      2967.8678    
       900   308.25471     -36722.822      18772.804      2.9052798      2965.8786    
      1000   269.19905     -36689.828      11632.696      2.9072297      2963.8894    
      1100   307.31882     -36713.753      11223.681      2.9091822      2961.9002    
      1200   312.29939     -36736.725      18484.623      2.9111373      2959.9111    
      1300   259.00202     -36717.411      17508.256      2.913095       2957.9219    
      1400   295.05947     -36722.661      12164.332      2.9150553      2955.9327    
      1500   288.98556     -36707.049      19101.476      2.9170183      2953.9435    
      1600   313.20949     -36718.088      16278.152      2.918984       2951.9543    
      1700   291.52541     -36705.312      16409.358      2.9209523      2949.9651    
      1800   278.04304     -36714.63       20552.831      2.9229232      2947.9759    
      1900   274.08007     -36725.772      20940.683      2.9248969      2945.9867    
      2000   283.68117     -36711.325      18324.009      2.9268731      2943.9976    
      2100   294.16521     -36703.348      17999.397      2.9288521      2942.0084    
      2200   320.73551     -36720.328      23943.602      2.9308337      2940.0192    
      2300   294.48987     -36712.578      17427.622      2.932818       2938.03      
      2400   282.06876     -36714.5        21506.788      2.934805       2936.0408    
      2500   303.27786     -36717.247      23055.878      2.9367947      2934.0516    
      2600   323.4441      -36706.726      17518.224      2.9387871      2932.0624    
      2700   309.83372     -36693.924      32833.581      2.9407822      2930.0732    
      2800   294.0004      -36694.91       28130.315      2.9427801      2928.0841    
      2900   284.05496     -36710.835      17006.903      2.9447806      2926.0949    
      3000   299.56916     -36723.304      28435.351      2.9467838      2924.1057    
Loop time of 79.0829 on 8 procs for 3000 steps with 243 atoms

Performance: 1.639 ns/day, 14.645 hours/ns, 37.935 timesteps/s, 9.218 katom-step/s
98.7% CPU use with 8 MPI tasks x 1 OpenMP threads

MPI task timing breakdown:
Section |  min time  |  avg time  |  max time  |%varavg| %total
---------------------------------------------------------------
Pair    | 62.997     | 64.852     | 66.586     |  17.3 | 82.01
Bond    | 0.0066427  | 0.0076234  | 0.0084601  |   0.7 |  0.01
Neigh   | 4.7314     | 4.7517     | 4.7834     |   0.8 |  6.01
Comm    | 0.75564    | 2.4924     | 4.3492     |  88.3 |  3.15
Output  | 0.0045099  | 0.0063526  | 0.0077846  |   1.7 |  0.01
Modify  | 6.8815     | 6.9114     | 6.9289     |   0.6 |  8.74
Other   |            | 0.06145    |            |       |  0.08

Nlocal:         30.375 ave          32 max          28 min
Histogram: 2 0 0 0 0 1 0 3 0 2
Nghost:        2724.12 ave        2734 max        2713 min
Histogram: 2 0 1 0 1 0 0 0 3 1
Neighs:        17890.6 ave       18812 max       16519 min
Histogram: 2 0 0 0 0 1 0 3 0 2

Total # of neighbors = 143125
Ave neighs/atom = 588.99177
Ave special neighs/atom = 0
Neighbor list builds = 300
Dangerous builds not checked
OMP_NUM_THREADS environment is not set. Defaulting to 1 thread. (src/comm.cpp:98)
  using 1 OpenMP thread(s) per MPI task
Reading restart file ...
  restart file = 2 Aug 2023, LAMMPS = 2 Aug 2023
  restoring atom style full from restart
  triclinic box = (0 0 0) to (14.6913 12.723 15.9631) with tilt (-7.3456 0 0)
WARNING: Triclinic box skew is large. LAMMPS will run inefficiently. (src/domain.cpp:220)
  2 by 2 by 2 MPI processor grid
  pair style reaxff stores no restart info
  243 atoms
Finding 1-2 1-3 1-4 neighbors ...
  special bond factors lj:    0        0        0       
  special bond factors coul:  0        0        0       
     0 = max # of 1-2 neighbors
     0 = max # of 1-3 neighbors
     0 = max # of 1-4 neighbors
     1 = max # of special neighbors
  special bonds CPU = 0.000 seconds
  read_restart CPU = 0.002 seconds
*****Positive-deform 1 starts.*****
WARNING: Van der Waals parameters for element SI indicate inner wall+shielding, but earlier atoms indicate a different van der Waals method. This may cause division-by-zero errors. Keeping van der Waals setting for earlier atoms. (src/REAXFF/reaxff_ffield.cpp:251)
WARNING: Van der Waals parameters for element AL indicate inner wall+shielding, but earlier atoms indicate a different van der Waals method. This may cause division-by-zero errors. Keeping van der Waals setting for earlier atoms. (src/REAXFF/reaxff_ffield.cpp:251)
WARNING: Changed valency_val to valency_boc for X (src/REAXFF/reaxff_ffield.cpp:296)
Resetting global fix info from restart file:
  fix style: nvt, fix ID: fnvt
All restart file global fix info was re-assigned
Neighbor list info ...
  update: every = 10 steps, delay = 0 steps, check = no
  max neighbors/atom: 2000, page size: 100000
  master list distance cutoff = 12
  ghost atom cutoff = 12
  binsize = 6, bins = 4 3 3
  2 neighbor lists, perpetual/occasional/extra = 2 0 0
  (1) pair reaxff, perpetual
      attributes: half, newton off, ghost
      pair build: half/bin/newtoff/ghost
      stencil: full/ghost/bin/3d
      bin: standard
  (2) fix qeq/reaxff, perpetual, copy from (1)
      attributes: half, newton off
      pair build: copy
      stencil: none
      bin: none
Setting up Verlet run ...
  Unit style    : real
  Current step  : 0
  Time step     : 0.5
Per MPI rank memory allocation (min/avg/max) = 105.9 | 106.1 | 106.4 Mbytes
   Step          Temp          PotEng         Press         Density         Volume    
         0   332.69353     -36695.515      12898.377      2.8878482      2983.7813    
       100   297.89242     -36689.845      17253.168      2.8859242      2985.7705    
       200   314.28694     -36718.926      6656.9741      2.8840028      2987.7597    
       300   313.92199     -36726.95       13050.52       2.882084       2989.7489    
       400   295.71973     -36721.624      10592.798      2.8801677      2991.7381    
       500   286.61186     -36720.007      9897.1183      2.878254       2993.7272    
       600   285.21274     -36699.746      13762.425      2.8763428      2995.7164    
       700   336.93449     -36721.675      13177.889      2.8744341      2997.7056    
       800   298.5828      -36700.251      6642.6403      2.872528       2999.6948    
       900   307.94799     -36733.642      8908.7927      2.8706244      3001.684     
      1000   273.29758     -36716.941      12283.973      2.8687233      3003.6732    
      1100   270.65894     -36702.031      10010.325      2.8668248      3005.6624    
      1200   289.73631     -36697.982      8624.9657      2.8649287      3007.6516    
      1300   301.15425     -36701.749      15084.4        2.8630352      3009.6407    
      1400   277.28414     -36695.068      7898.2776      2.8611442      3011.6299    
      1500   277.78787     -36722.449      6627.7846      2.8592556      3013.6191    
      1600   272.85857     -36718.094      8697.7427      2.8573696      3015.6083    
      1700   295.90819     -36712.584      5844.4911      2.855486       3017.5975    
      1800   297.29271     -36701.5        3946.5042      2.8536049      3019.5867    
      1900   306.63413     -36711.254      15515.951      2.8517263      3021.5759    
      2000   313.92131     -36722.613      7241.8726      2.8498502      3023.5651    
      2100   310.56386     -36727.09       3731.4929      2.8479765      3025.5542    
      2200   279.03062     -36710.149      6286.4929      2.8461053      3027.5434    
      2300   288.07137     -36714.873      1700.1219      2.8442365      3029.5326    
      2400   295.68755     -36704.743      188.82286      2.8423702      3031.5218    
      2500   332.55231     -36714.18       3409.6914      2.8405064      3033.511     
      2600   301.72725     -36696.978      5130.3004      2.838645       3035.5002    
      2700   283.87721     -36712.04       2740.9113      2.836786       3037.4894    
      2800   283.13031     -36712.701      2259.0016      2.8349295      3039.4786    
      2900   294.64351     -36707.912      1860.881       2.8330754      3041.4677    
      3000   308.73563     -36703.571      2055.453       2.8312237      3043.4569    
Loop time of 76.8352 on 8 procs for 3000 steps with 243 atoms

Performance: 1.687 ns/day, 14.229 hours/ns, 39.045 timesteps/s, 9.488 katom-step/s
98.8% CPU use with 8 MPI tasks x 1 OpenMP threads

MPI task timing breakdown:
Section |  min time  |  avg time  |  max time  |%varavg| %total
---------------------------------------------------------------
Pair    | 62.064     | 63.367     | 64.795     |  13.1 | 82.47
Bond    | 0.0068597  | 0.007715   | 0.0085369  |   0.6 |  0.01
Neigh   | 4.684      | 4.6982     | 4.7127     |   0.4 |  6.11
Comm    | 0.63519    | 2.0645     | 3.3696     |  72.6 |  2.69
Output  | 0.0043579  | 0.006164   | 0.0075885  |   1.7 |  0.01
Modify  | 6.615      | 6.6282     | 6.6425     |   0.4 |  8.63
Other   |            | 0.06329    |            |       |  0.08

Nlocal:         30.375 ave          33 max          27 min
Histogram: 1 0 0 1 0 1 4 0 0 1
Nghost:        2695.12 ave        2715 max        2681 min
Histogram: 2 1 0 1 0 1 1 1 0 1
Neighs:        17283.2 ave       18746 max       15419 min
Histogram: 1 0 0 1 1 0 4 0 0 1

Total # of neighbors = 138266
Ave neighs/atom = 568.99588
Ave special neighs/atom = 0
Neighbor list builds = 300
Dangerous builds not checked
OMP_NUM_THREADS environment is not set. Defaulting to 1 thread. (src/comm.cpp:98)
  using 1 OpenMP thread(s) per MPI task
Reading restart file ...
  restart file = 2 Aug 2023, LAMMPS = 2 Aug 2023
  restoring atom style full from restart
  triclinic box = (0 0 0) to (14.6913 12.723 15.9631) with tilt (-7.3456 0 0)
WARNING: Triclinic box skew is large. LAMMPS will run inefficiently. (src/domain.cpp:220)
  2 by 2 by 2 MPI processor grid
  pair style reaxff stores no restart info
  243 atoms
Finding 1-2 1-3 1-4 neighbors ...
  special bond factors lj:    0        0        0       
  special bond factors coul:  0        0        0       
     0 = max # of 1-2 neighbors
     0 = max # of 1-3 neighbors
     0 = max # of 1-4 neighbors
     1 = max # of special neighbors
  special bonds CPU = 0.000 seconds
  read_restart CPU = 0.002 seconds
*****debug*****
xy = -7.3456000000000001293, deltaxy = 0.146912
xz = 0, deltaxz = -0
yz = 0, deltayz = -0
*****
*****Negative-deform 2 starts.*****
WARNING: Van der Waals parameters for element SI indicate inner wall+shielding, but earlier atoms indicate a different van der Waals method. This may cause division-by-zero errors. Keeping van der Waals setting for earlier atoms. (src/REAXFF/reaxff_ffield.cpp:251)
WARNING: Van der Waals parameters for element AL indicate inner wall+shielding, but earlier atoms indicate a different van der Waals method. This may cause division-by-zero errors. Keeping van der Waals setting for earlier atoms. (src/REAXFF/reaxff_ffield.cpp:251)
WARNING: Changed valency_val to valency_boc for X (src/REAXFF/reaxff_ffield.cpp:296)
Resetting global fix info from restart file:
  fix style: nvt, fix ID: fnvt
All restart file global fix info was re-assigned
Neighbor list info ...
  update: every = 10 steps, delay = 0 steps, check = no
  max neighbors/atom: 2000, page size: 100000
  master list distance cutoff = 12
  ghost atom cutoff = 12
  binsize = 6, bins = 4 3 3
  2 neighbor lists, perpetual/occasional/extra = 2 0 0
  (1) pair reaxff, perpetual
      attributes: half, newton off, ghost
      pair build: half/bin/newtoff/ghost
      stencil: full/ghost/bin/3d
      bin: standard
  (2) fix qeq/reaxff, perpetual, copy from (1)
      attributes: half, newton off
      pair build: copy
      stencil: none
      bin: none
Setting up Verlet run ...
  Unit style    : real
  Current step  : 0
  Time step     : 0.5
Per MPI rank memory allocation (min/avg/max) = 105.8 | 106.1 | 106.4 Mbytes
   Step          Temp          PotEng         Press         Density         Volume    
         0   332.69353     -36695.515      12898.377      2.8878482      2983.7813    
       100   296.63003     -36688.273      18715.259      2.8897747      2981.7921    
       200   317.29046     -36719.638      6750.1652      2.8917038      2979.8029    
       300   306.62926     -36718.368      9781.1638      2.8936354      2977.8137    
       400   297.28549     -36722.375      12678.78       2.8955697      2975.8246    
       500   305.13672     -36734.378      13487.798      2.8975065      2973.8354    
       600   306.62769     -36714.301      17253.175      2.8994459      2971.8462    
       700   330.56726     -36712.431      10949.435      2.901388       2969.857     
       800   296.67158     -36701.383      9191.7401      2.9033326      2967.8678    
       900   292.70717     -36716.585      17038.57       2.9052798      2965.8786    
      1000   291.66323     -36714.378      19468.605      2.9072297      2963.8894    
      1100   324.87026     -36737.646      8501.9613      2.9091822      2961.9002    
      1200   299.59866     -36720.941      23392.759      2.9111373      2959.9111    
      1300   301.75228     -36711.733      24214.415      2.913095       2957.9219    
      1400   329.37393     -36701.671      14143.738      2.9150553      2955.9327    
      1500   324.16459     -36702.28       22055.043      2.9170183      2953.9435    
      1600   305.58212     -36713.497      19720.16       2.918984       2951.9543    
      1700   296.6386      -36711.099      10089.225      2.9209523      2949.9651    
      1800   307.38828     -36722.151      21546.955      2.9229232      2947.9759    
      1900   299.54104     -36719.081      20090.552      2.9248969      2945.9867    
      2000   301.74955     -36720.341      18315.072      2.9268731      2943.9976    
      2100   307.81467     -36712.333      19787.586      2.9288521      2942.0084    
      2200   317.20711     -36711.552      28569.272      2.9308337      2940.0192    
      2300   297.83101     -36703.564      22140.012      2.932818       2938.03      
      2400   291.34481     -36715.433      20765.655      2.934805       2936.0408    
      2500   282.78657     -36721.955      23606.807      2.9367947      2934.0516    
      2600   293.10244     -36718.086      16470.749      2.9387871      2932.0624    
      2700   315.64223     -36704.719      23791.366      2.9407822      2930.0732    
      2800   307.10172     -36690.132      27117.242      2.9427801      2928.0841    
      2900   287.74989     -36692.727      23655.571      2.9447806      2926.0949    
      3000   284.95571     -36703.792      18515.498      2.9467838      2924.1057    
Loop time of 79.3573 on 8 procs for 3000 steps with 243 atoms

Performance: 1.633 ns/day, 14.696 hours/ns, 37.804 timesteps/s, 9.186 katom-step/s
98.7% CPU use with 8 MPI tasks x 1 OpenMP threads

MPI task timing breakdown:
Section |  min time  |  avg time  |  max time  |%varavg| %total
---------------------------------------------------------------
Pair    | 63.45      | 65.14      | 66.953     |  16.1 | 82.08
Bond    | 0.007087   | 0.0078705  | 0.0089813  |   0.7 |  0.01
Neigh   | 4.7514     | 4.776      | 4.7967     |   0.7 |  6.02
Comm    | 0.61449    | 2.4287     | 4.122      |  83.4 |  3.06
Output  | 0.0043793  | 0.0063251  | 0.0078219  |   1.8 |  0.01
Modify  | 6.9181     | 6.9362     | 6.958      |   0.5 |  8.74
Other   |            | 0.06209    |            |       |  0.08

Nlocal:         30.375 ave          34 max          26 min
Histogram: 1 0 0 2 0 0 3 1 0 1
Nghost:        2748.62 ave        2754 max        2739 min
Histogram: 2 0 0 0 0 1 0 0 2 3
Neighs:        17890.5 ave       19944 max       15367 min
Histogram: 1 0 0 2 0 0 3 1 0 1

Total # of neighbors = 143124
Ave neighs/atom = 588.98765
Ave special neighs/atom = 0
Neighbor list builds = 300
Dangerous builds not checked
OMP_NUM_THREADS environment is not set. Defaulting to 1 thread. (src/comm.cpp:98)
  using 1 OpenMP thread(s) per MPI task
Reading restart file ...
  restart file = 2 Aug 2023, LAMMPS = 2 Aug 2023
  restoring atom style full from restart
  triclinic box = (0 0 0) to (14.6913 12.723 15.9631) with tilt (-7.3456 0 0)
WARNING: Triclinic box skew is large. LAMMPS will run inefficiently. (src/domain.cpp:220)
  2 by 2 by 2 MPI processor grid
  pair style reaxff stores no restart info
  243 atoms
Finding 1-2 1-3 1-4 neighbors ...
  special bond factors lj:    0        0        0       
  special bond factors coul:  0        0        0       
     0 = max # of 1-2 neighbors
     0 = max # of 1-3 neighbors
     0 = max # of 1-4 neighbors
     1 = max # of special neighbors
  special bonds CPU = 0.000 seconds
  read_restart CPU = 0.002 seconds
*****Positive-deform 2 starts.*****
WARNING: Van der Waals parameters for element SI indicate inner wall+shielding, but earlier atoms indicate a different van der Waals method. This may cause division-by-zero errors. Keeping van der Waals setting for earlier atoms. (src/REAXFF/reaxff_ffield.cpp:251)
WARNING: Van der Waals parameters for element AL indicate inner wall+shielding, but earlier atoms indicate a different van der Waals method. This may cause division-by-zero errors. Keeping van der Waals setting for earlier atoms. (src/REAXFF/reaxff_ffield.cpp:251)
WARNING: Changed valency_val to valency_boc for X (src/REAXFF/reaxff_ffield.cpp:296)
Resetting global fix info from restart file:
  fix style: nvt, fix ID: fnvt
All restart file global fix info was re-assigned
Neighbor list info ...
  update: every = 10 steps, delay = 0 steps, check = no
  max neighbors/atom: 2000, page size: 100000
  master list distance cutoff = 12
  ghost atom cutoff = 12
  binsize = 6, bins = 4 3 3
  2 neighbor lists, perpetual/occasional/extra = 2 0 0
  (1) pair reaxff, perpetual
      attributes: half, newton off, ghost
      pair build: half/bin/newtoff/ghost
      stencil: full/ghost/bin/3d
      bin: standard
  (2) fix qeq/reaxff, perpetual, copy from (1)
      attributes: half, newton off
      pair build: copy
      stencil: none
      bin: none
Setting up Verlet run ...
  Unit style    : real
  Current step  : 0
  Time step     : 0.5
Per MPI rank memory allocation (min/avg/max) = 105.9 | 106.1 | 106.4 Mbytes
   Step          Temp          PotEng         Press         Density         Volume    
         0   332.69353     -36695.515      12898.377      2.8878482      2983.7813    
       100   297.09152     -36689.067      18174.217      2.8859242      2985.7705    
       200   305.93998     -36713.168      9593.7354      2.8840028      2987.7597    
       300   306.40149     -36721.041      15177.83       2.882084       2989.7489    
       400   310.67879     -36730.729      7661.2399      2.8801677      2991.7381    
       500   274.32324     -36710.23       11891.875      2.878254       2993.7272    
       600   306.76896     -36710.204      9270.9684      2.8763428      2995.7164    
       700   336.89191     -36718.118      10735.388      2.8744341      2997.7056    
       800   325.22294     -36720.617      4460.4904      2.872528       2999.6948    
       900   284.91667     -36713.9        14976.998      2.8706244      3001.684     
      1000   297.96627     -36718.983      9766.8968      2.8687233      3003.6732    
      1100   286.0664      -36702.994      4042.0013      2.8668248      3005.6624    
      1200   301.33853     -36704.889      19811.537      2.8649287      3007.6516    
      1300   292.75987     -36695.305      8196.3468      2.8630352      3009.6407    
      1400   289.84637     -36704.005      3144.4611      2.8611442      3011.6299    
      1500   282.24718     -36711.149      8360.1246      2.8592556      3013.6191    
      1600   289.58917     -36724.533      6297.5093      2.8573696      3015.6083    
      1700   290.74899     -36715.921      1596.4529      2.855486       3017.5975    
      1800   306.08892     -36702.296      10203.944      2.8536049      3019.5867    
      1900   302.47955     -36689.398      8656.361       2.8517263      3021.5759    
      2000   302.59575     -36701.465      4672.0717      2.8498502      3023.5651    
      2100   290.23185     -36706.165      5770.7636      2.8479765      3025.5542    
      2200   312.35677     -36727.353      6584.5947      2.8461053      3027.5434    
      2300   286.80022     -36711.239      1109.7788      2.8442365      3029.5326    
      2400   306.35935     -36712.639      2305.5513      2.8423702      3031.5218    
      2500   324.01303     -36700.512      5978.2202      2.8405064      3033.511     
      2600   326.30213     -36705.619      417.66453      2.838645       3035.5002    
      2700   307.50358     -36704.509      2735.8251      2.836786       3037.4894    
      2800   297.73235     -36703.588      5752.5485      2.8349295      3039.4786    
      2900   303.2342      -36717.335      627.55238      2.8330754      3041.4677    
      3000   296.32903     -36716.981     -177.26254      2.8312237      3043.4569    
Loop time of 76.7334 on 8 procs for 3000 steps with 243 atoms

Performance: 1.689 ns/day, 14.210 hours/ns, 39.096 timesteps/s, 9.500 katom-step/s
98.8% CPU use with 8 MPI tasks x 1 OpenMP threads

MPI task timing breakdown:
Section |  min time  |  avg time  |  max time  |%varavg| %total
---------------------------------------------------------------
Pair    | 62.089     | 63.373     | 64.635     |  13.2 | 82.59
Bond    | 0.0067155  | 0.007607   | 0.0084926  |   0.6 |  0.01
Neigh   | 4.6742     | 4.681      | 4.6939     |   0.3 |  6.10
Comm    | 0.80616    | 2.0699     | 3.3576     |  73.2 |  2.70
Output  | 0.0045325  | 0.0065548  | 0.0081569  |   1.9 |  0.01
Modify  | 6.518      | 6.5315     | 6.5409     |   0.3 |  8.51
Other   |            | 0.06392    |            |       |  0.08

Nlocal:         30.375 ave          32 max          28 min
Histogram: 1 0 1 0 0 3 0 0 0 3
Nghost:        2667.75 ave        2675 max        2660 min
Histogram: 1 1 1 0 1 0 1 1 0 2
Neighs:        17269.4 ave       18181 max       15962 min
Histogram: 1 0 1 0 2 1 0 0 0 3

Total # of neighbors = 138155
Ave neighs/atom = 568.53909
Ave special neighs/atom = 0
Neighbor list builds = 300
Dangerous builds not checked
OMP_NUM_THREADS environment is not set. Defaulting to 1 thread. (src/comm.cpp:98)
  using 1 OpenMP thread(s) per MPI task
Reading restart file ...
  restart file = 2 Aug 2023, LAMMPS = 2 Aug 2023
  restoring atom style full from restart
  triclinic box = (0 0 0) to (14.6913 12.723 15.9631) with tilt (-7.3456 0 0)
WARNING: Triclinic box skew is large. LAMMPS will run inefficiently. (src/domain.cpp:220)
  2 by 2 by 2 MPI processor grid
  pair style reaxff stores no restart info
  243 atoms
Finding 1-2 1-3 1-4 neighbors ...
  special bond factors lj:    0        0        0       
  special bond factors coul:  0        0        0       
     0 = max # of 1-2 neighbors
     0 = max # of 1-3 neighbors
     0 = max # of 1-4 neighbors
     1 = max # of special neighbors
  special bonds CPU = 0.000 seconds
  read_restart CPU = 0.002 seconds
*****debug*****
xy = -7.3456000000000001293, deltaxy = 0.146912
xz = 0, deltaxz = -0
yz = 0, deltayz = -0
*****
*****Negative-deform 3 starts.*****
WARNING: Van der Waals parameters for element SI indicate inner wall+shielding, but earlier atoms indicate a different van der Waals method. This may cause division-by-zero errors. Keeping van der Waals setting for earlier atoms. (src/REAXFF/reaxff_ffield.cpp:251)
WARNING: Van der Waals parameters for element AL indicate inner wall+shielding, but earlier atoms indicate a different van der Waals method. This may cause division-by-zero errors. Keeping van der Waals setting for earlier atoms. (src/REAXFF/reaxff_ffield.cpp:251)
WARNING: Changed valency_val to valency_boc for X (src/REAXFF/reaxff_ffield.cpp:296)
Resetting global fix info from restart file:
  fix style: nvt, fix ID: fnvt
All restart file global fix info was re-assigned
Neighbor list info ...
  update: every = 10 steps, delay = 0 steps, check = no
  max neighbors/atom: 2000, page size: 100000
  master list distance cutoff = 12
  ghost atom cutoff = 12
  binsize = 6, bins = 4 3 3
  2 neighbor lists, perpetual/occasional/extra = 2 0 0
  (1) pair reaxff, perpetual
      attributes: half, newton off, ghost
      pair build: half/bin/newtoff/ghost
      stencil: full/ghost/bin/3d
      bin: standard
  (2) fix qeq/reaxff, perpetual, copy from (1)
      attributes: half, newton off
      pair build: copy
      stencil: none
      bin: none
Setting up Verlet run ...
  Unit style    : real
  Current step  : 0
  Time step     : 0.5
Per MPI rank memory allocation (min/avg/max) = 105.8 | 106.1 | 106.4 Mbytes
   Step          Temp          PotEng         Press         Density         Volume    
         0   332.69353     -36695.515      12898.377      2.8878482      2983.7813    
       100   295.11413     -36686.792      18597.256      2.8897747      2981.7921    
       200   316.16806     -36717.894      9265.662       2.8917038      2979.8029    
       300   313.37077     -36722.737      12270.727      2.8936354      2977.8137    
       400   282.03601     -36712.566      9719.603       2.8955697      2975.8246    
       500   287.24765     -36721.062      18939.111      2.8975065      2973.8354    
       600   303.61561     -36699.172      18129.86       2.8994459      2971.8462    
       700   334.5525      -36715.526      10708.947      2.901388       2969.857     
       800   297.08898     -36703.696      11767.477      2.9033326      2967.8678    
       900   289.58369     -36707.418      24463.305      2.9052798      2965.8786    
      1000   308.8513      -36718.729      7714.1094      2.9072297      2963.8894    
      1100   292.2686      -36721.941      16729.739      2.9091822      2961.9002    
      1200   264.36596     -36728.648      14960.802      2.9111373      2959.9111    
      1300   288.29198     -36730.199      9416.2421      2.913095       2957.9219    
      1400   296.48781     -36712.525      13635.609      2.9150553      2955.9327    
      1500   291.42203     -36701.805      21303.846      2.9170183      2953.9435    
      1600   306.38122     -36707.264      16734.916      2.918984       2951.9543    
      1700   290.6897      -36709.605      20212.136      2.9209523      2949.9651    
      1800   298.08608     -36734.346      19650.811      2.9229232      2947.9759    
      1900   296.13814     -36733.872      14574.561      2.9248969      2945.9867    
      2000   289.65917     -36694.239      18238.856      2.9268731      2943.9976    
      2100   305.0252      -36697.304      22420.806      2.9288521      2942.0084    
      2200   318.28665     -36709.152      23543.151      2.9308337      2940.0192    
      2300   307.30811     -36716.753      14423.897      2.932818       2938.03      
      2400   297.72299     -36719.638      24116.495      2.934805       2936.0408    
      2500   304.85984     -36713.605      25378.063      2.9367947      2934.0516    
      2600   313.39837     -36706.117      17012.184      2.9387871      2932.0624    
      2700   319.00762     -36674.668      27783.158      2.9407822      2930.0732    
      2800   324.64856     -36674.071      27693.622      2.9427801      2928.0841    
      2900   322.25884     -36699.447      20359.012      2.9447806      2926.0949    
      3000   288.75565     -36692.127      26939.318      2.9467838      2924.1057    
Loop time of 78.8617 on 8 procs for 3000 steps with 243 atoms

Performance: 1.643 ns/day, 14.604 hours/ns, 38.041 timesteps/s, 9.244 katom-step/s
98.8% CPU use with 8 MPI tasks x 1 OpenMP threads

MPI task timing breakdown:
Section |  min time  |  avg time  |  max time  |%varavg| %total
---------------------------------------------------------------
Pair    | 63.364     | 64.931     | 66.578     |  14.9 | 82.34
Bond    | 0.0065713  | 0.0075341  | 0.0085758  |   0.7 |  0.01
Neigh   | 4.7167     | 4.7638     | 4.8242     |   1.9 |  6.04
Comm    | 0.63368    | 2.281      | 3.8481     |  79.5 |  2.89
Output  | 0.0043259  | 0.0062841  | 0.0077796  |   1.8 |  0.01
Modify  | 6.749      | 6.8094     | 6.857      |   1.5 |  8.63
Other   |            | 0.0625     |            |       |  0.08

Nlocal:         30.375 ave          35 max          26 min
Histogram: 1 0 1 1 1 1 2 0 0 1
Nghost:        2749.75 ave        2759 max        2740 min
Histogram: 1 1 1 0 1 1 0 0 1 2
Neighs:        17853.8 ave       20502 max       15351 min
Histogram: 1 0 1 1 1 1 2 0 0 1

Total # of neighbors = 142830
Ave neighs/atom = 587.77778
Ave special neighs/atom = 0
Neighbor list builds = 300
Dangerous builds not checked
OMP_NUM_THREADS environment is not set. Defaulting to 1 thread. (src/comm.cpp:98)
  using 1 OpenMP thread(s) per MPI task
Reading restart file ...
  restart file = 2 Aug 2023, LAMMPS = 2 Aug 2023
  restoring atom style full from restart
  triclinic box = (0 0 0) to (14.6913 12.723 15.9631) with tilt (-7.3456 0 0)
WARNING: Triclinic box skew is large. LAMMPS will run inefficiently. (src/domain.cpp:220)
  2 by 2 by 2 MPI processor grid
  pair style reaxff stores no restart info
  243 atoms
Finding 1-2 1-3 1-4 neighbors ...
  special bond factors lj:    0        0        0       
  special bond factors coul:  0        0        0       
     0 = max # of 1-2 neighbors
     0 = max # of 1-3 neighbors
     0 = max # of 1-4 neighbors
     1 = max # of special neighbors
  special bonds CPU = 0.000 seconds
  read_restart CPU = 0.002 seconds
*****Positive-deform 3 starts.*****
WARNING: Van der Waals parameters for element SI indicate inner wall+shielding, but earlier atoms indicate a different van der Waals method. This may cause division-by-zero errors. Keeping van der Waals setting for earlier atoms. (src/REAXFF/reaxff_ffield.cpp:251)
WARNING: Van der Waals parameters for element AL indicate inner wall+shielding, but earlier atoms indicate a different van der Waals method. This may cause division-by-zero errors. Keeping van der Waals setting for earlier atoms. (src/REAXFF/reaxff_ffield.cpp:251)
WARNING: Changed valency_val to valency_boc for X (src/REAXFF/reaxff_ffield.cpp:296)
Resetting global fix info from restart file:
  fix style: nvt, fix ID: fnvt
All restart file global fix info was re-assigned
Neighbor list info ...
  update: every = 10 steps, delay = 0 steps, check = no
  max neighbors/atom: 2000, page size: 100000
  master list distance cutoff = 12
  ghost atom cutoff = 12
  binsize = 6, bins = 4 3 3
  2 neighbor lists, perpetual/occasional/extra = 2 0 0
  (1) pair reaxff, perpetual
      attributes: half, newton off, ghost
      pair build: half/bin/newtoff/ghost
      stencil: full/ghost/bin/3d
      bin: standard
  (2) fix qeq/reaxff, perpetual, copy from (1)
      attributes: half, newton off
      pair build: copy
      stencil: none
      bin: none
Setting up Verlet run ...
  Unit style    : real
  Current step  : 0
  Time step     : 0.5
Per MPI rank memory allocation (min/avg/max) = 105.8 | 106.1 | 106.4 Mbytes
   Step          Temp          PotEng         Press         Density         Volume    
         0   332.69353     -36695.515      12898.377      2.8878482      2983.7813    
       100   298.49895     -36690.391      18393.467      2.8859242      2985.7705    
       200   313.25275     -36718.794      8735.6709      2.8840028      2987.7597    
       300   296.85537     -36714.901      15699.824      2.882084       2989.7489    
       400   295.45337     -36722.806      14598.942      2.8801677      2991.7381    
       500   302.76299     -36729.598      11120.652      2.878254       2993.7272    
       600   308.15095     -36704.729      13737.451      2.8763428      2995.7164    
       700   322.76794     -36709.573      12045.016      2.8744341      2997.7056    
       800   304.70188     -36711.668      7797.643       2.872528       2999.6948    
       900   300.38359     -36724.177      11868.218      2.8706244      3001.684     
      1000   268.99905     -36698.203      12671.251      2.8687233      3003.6732    
      1100   310.18433     -36723.702      8626.3797      2.8668248      3005.6624    
      1200   283.7849      -36702.034      11706.406      2.8649287      3007.6516    
      1300   306.8731      -36712.904      7831.1448      2.8630352      3009.6407    
      1400   322.60782     -36718.217      3938.2814      2.8611442      3011.6299    
      1500   288.55738     -36702.889      11895.662      2.8592556      3013.6191    
      1600   286.98646     -36718.657      4612.828       2.8573696      3015.6083    
      1700   265.35792     -36718.393      7452.4264      2.855486       3017.5975    
      1800   286.38177     -36725.841      7298.1156      2.8536049      3019.5867    
      1900   306.36809     -36709.896      15017.656      2.8517263      3021.5759    
      2000   297.98555     -36699.849      1234.6802      2.8498502      3023.5651    
      2100   294.18946     -36705.676      6704.6292      2.8479765      3025.5542    
      2200   302.03153     -36724.923      6422.4182      2.8461053      3027.5434    
      2300   287.05874     -36729.318      7867.5293      2.8442365      3029.5326    
      2400   293.73615     -36731.298      3540.8967      2.8423702      3031.5218    
      2500   334.15203     -36728.922      8457.4624      2.8405064      3033.511     
      2600   298.45871     -36698.376      5306.8589      2.838645       3035.5002    
      2700   296.78025     -36712.556      5505.9796      2.836786       3037.4894    
      2800   301.05011     -36721.037      4753.7354      2.8349295      3039.4786    
      2900   289.61187     -36726.999      9949.6174      2.8330754      3041.4677    
      3000   276.23001     -36721.681     -1096.6285      2.8312237      3043.4569    
Loop time of 77.0329 on 8 procs for 3000 steps with 243 atoms

Performance: 1.682 ns/day, 14.265 hours/ns, 38.944 timesteps/s, 9.463 katom-step/s
98.7% CPU use with 8 MPI tasks x 1 OpenMP threads

MPI task timing breakdown:
Section |  min time  |  avg time  |  max time  |%varavg| %total
---------------------------------------------------------------
Pair    | 61.437     | 63.465     | 65.061     |  14.5 | 82.39
Bond    | 0.0066744  | 0.0076466  | 0.0087714  |   0.7 |  0.01
Neigh   | 4.6669     | 4.6929     | 4.7332     |   1.1 |  6.09
Comm    | 0.60778    | 2.203      | 4.234      |  77.8 |  2.86
Output  | 0.0044626  | 0.0058192  | 0.0070181  |   1.3 |  0.01
Modify  | 6.5572     | 6.5966     | 6.6237     |   0.9 |  8.56
Other   |            | 0.0623     |            |       |  0.08

Nlocal:         30.375 ave          34 max          25 min
Histogram: 1 0 0 0 2 1 1 1 1 1
Nghost:        2685.88 ave        2717 max        2655 min
Histogram: 3 1 0 0 0 0 0 0 2 2
Neighs:          17243 ave       19259 max       14244 min
Histogram: 1 0 0 0 2 1 1 1 1 1

Total # of neighbors = 137944
Ave neighs/atom = 567.67078
Ave special neighs/atom = 0
Neighbor list builds = 300
Dangerous builds not checked
OMP_NUM_THREADS environment is not set. Defaulting to 1 thread. (src/comm.cpp:98)
  using 1 OpenMP thread(s) per MPI task
Reading restart file ...
  restart file = 2 Aug 2023, LAMMPS = 2 Aug 2023
  restoring atom style full from restart
  triclinic box = (0 0 0) to (14.6913 12.723 15.9631) with tilt (-7.3456 0 0)
WARNING: Triclinic box skew is large. LAMMPS will run inefficiently. (src/domain.cpp:220)
  2 by 2 by 2 MPI processor grid
  pair style reaxff stores no restart info
  243 atoms
Finding 1-2 1-3 1-4 neighbors ...
  special bond factors lj:    0        0        0       
  special bond factors coul:  0        0        0       
     0 = max # of 1-2 neighbors
     0 = max # of 1-3 neighbors
     0 = max # of 1-4 neighbors
     1 = max # of special neighbors
  special bonds CPU = 0.000 seconds
  read_restart CPU = 0.002 seconds
*****debug*****
xy = -7.3456000000000001293, deltaxy = 0.146912
xz = 0, deltaxz = -0
yz = 0, deltayz = -0
*****
*****Negative-deform 4 starts.*****
WARNING: Van der Waals parameters for element SI indicate inner wall+shielding, but earlier atoms indicate a different van der Waals method. This may cause division-by-zero errors. Keeping van der Waals setting for earlier atoms. (src/REAXFF/reaxff_ffield.cpp:251)
WARNING: Van der Waals parameters for element AL indicate inner wall+shielding, but earlier atoms indicate a different van der Waals method. This may cause division-by-zero errors. Keeping van der Waals setting for earlier atoms. (src/REAXFF/reaxff_ffield.cpp:251)
WARNING: Changed valency_val to valency_boc for X (src/REAXFF/reaxff_ffield.cpp:296)
Resetting global fix info from restart file:
  fix style: nvt, fix ID: fnvt
All restart file global fix info was re-assigned
Neighbor list info ...
  update: every = 10 steps, delay = 0 steps, check = no
  max neighbors/atom: 2000, page size: 100000
  master list distance cutoff = 12
  ghost atom cutoff = 12
  binsize = 6, bins = 4 3 3
  2 neighbor lists, perpetual/occasional/extra = 2 0 0
  (1) pair reaxff, perpetual
      attributes: half, newton off, ghost
      pair build: half/bin/newtoff/ghost
      stencil: full/ghost/bin/3d
      bin: standard
  (2) fix qeq/reaxff, perpetual, copy from (1)
      attributes: half, newton off
      pair build: copy
      stencil: none
      bin: none
Setting up Verlet run ...
  Unit style    : real
  Current step  : 0
  Time step     : 0.5
Per MPI rank memory allocation (min/avg/max) = 105.8 | 106.1 | 106.4 Mbytes
   Step          Temp          PotEng         Press         Density         Volume    
         0   332.69353     -36695.515      12898.377      2.8878482      2983.7813    
       100   295.14559     -36687.24       19221.772      2.8878482      2983.7813    
       200   309.2693      -36713.51       5634.0951      2.8878482      2983.7813    
       300   308.85033     -36720.665      12146.803      2.8878482      2983.7813    
       400   284.7621      -36714.072      8317.6024      2.8878482      2983.7813    
       500   299.34815     -36725.02       19894.656      2.8878482      2983.7813    
       600   312.96076     -36709.748      10555.266      2.8878482      2983.7813    
       700   337.69        -36712.61       11810.514      2.8878482      2983.7813    
       800   305.68553     -36705.328      10879.423      2.8878482      2983.7813    
       900   294.66427     -36716.872      13171.265      2.8878482      2983.7813    
      1000   294.1338      -36714.085      13621.58       2.8878482      2983.7813    
      1100   303.21528     -36715.584      8970.3301      2.8878482      2983.7813    
      1200   295.28115     -36703.2        12138.617      2.8878482      2983.7813    
      1300   333.67249     -36721.3        13511.392      2.8878482      2983.7813    
      1400   290.86715     -36692.155      5258.4049      2.8878482      2983.7813    
      1500   286.73544     -36712.013      14223.206      2.8878482      2983.7813    
      1600   278.51789     -36718.456      8470.7042      2.8878482      2983.7813    
      1700   282.04253     -36710.361      12424.635      2.8878482      2983.7813    
      1800   311.7569      -36707.561      9071.5058      2.8878482      2983.7813    
      1900   340.17993     -36699.094      12316.966      2.8878482      2983.7813    
      2000   333.45274     -36686.255      15142.123      2.8878482      2983.7813    
      2100   285.4557      -36698.031      14479.771      2.8878482      2983.7813    
      2200   298.68277     -36725.483      13892.804      2.8878482      2983.7813    
      2300   282.46738     -36721.249      15832.428      2.8878482      2983.7813    
      2400   286.34214     -36712.23       12341.675      2.8878482      2983.7813    
      2500   306.31982     -36705.591      13583.67       2.8878482      2983.7813    
      2600   327.29594     -36710.966      15324.742      2.8878482      2983.7813    
      2700   320.40339     -36719.201      13229.077      2.8878482      2983.7813    
      2800   302.70455     -36727.236      9469.4019      2.8878482      2983.7813    
      2900   276.82563     -36702.285      9521.7286      2.8878482      2983.7813    
      3000   311.84632     -36713.772      16268.052      2.8878482      2983.7813    
Loop time of 78.4367 on 8 procs for 3000 steps with 243 atoms

Performance: 1.652 ns/day, 14.525 hours/ns, 38.247 timesteps/s, 9.294 katom-step/s
98.8% CPU use with 8 MPI tasks x 1 OpenMP threads

MPI task timing breakdown:
Section |  min time  |  avg time  |  max time  |%varavg| %total
---------------------------------------------------------------
Pair    | 62.351     | 64.165     | 66.242     |  17.4 | 81.80
Bond    | 0.0066203  | 0.0075999  | 0.0086929  |   0.8 |  0.01
Neigh   | 4.7641     | 4.7816     | 4.7958     |   0.5 |  6.10
Comm    | 0.55777    | 2.639      | 4.455      |  86.1 |  3.36
Output  | 0.0044418  | 0.006188   | 0.0074899  |   1.5 |  0.01
Modify  | 6.7656     | 6.777      | 6.7925     |   0.4 |  8.64
Other   |            | 0.0604     |            |       |  0.08

Nlocal:         30.375 ave          33 max          26 min
Histogram: 1 0 1 0 1 1 0 0 2 2
Nghost:        2720.12 ave        2737 max        2698 min
Histogram: 1 0 1 0 0 3 0 0 2 1
Neighs:        17558.2 ave       19037 max       15083 min
Histogram: 1 0 1 0 1 1 0 0 2 2

Total # of neighbors = 140466
Ave neighs/atom = 578.04938
Ave special neighs/atom = 0
Neighbor list builds = 300
Dangerous builds not checked
OMP_NUM_THREADS environment is not set. Defaulting to 1 thread. (src/comm.cpp:98)
  using 1 OpenMP thread(s) per MPI task
Reading restart file ...
  restart file = 2 Aug 2023, LAMMPS = 2 Aug 2023
  restoring atom style full from restart
  triclinic box = (0 0 0) to (14.6913 12.723 15.9631) with tilt (-7.3456 0 0)
WARNING: Triclinic box skew is large. LAMMPS will run inefficiently. (src/domain.cpp:220)
  2 by 2 by 2 MPI processor grid
  pair style reaxff stores no restart info
  243 atoms
Finding 1-2 1-3 1-4 neighbors ...
  special bond factors lj:    0        0        0       
  special bond factors coul:  0        0        0       
     0 = max # of 1-2 neighbors
     0 = max # of 1-3 neighbors
     0 = max # of 1-4 neighbors
     1 = max # of special neighbors
  special bonds CPU = 0.000 seconds
  read_restart CPU = 0.002 seconds
*****Positive-deform 4 starts.*****
WARNING: Van der Waals parameters for element SI indicate inner wall+shielding, but earlier atoms indicate a different van der Waals method. This may cause division-by-zero errors. Keeping van der Waals setting for earlier atoms. (src/REAXFF/reaxff_ffield.cpp:251)
WARNING: Van der Waals parameters for element AL indicate inner wall+shielding, but earlier atoms indicate a different van der Waals method. This may cause division-by-zero errors. Keeping van der Waals setting for earlier atoms. (src/REAXFF/reaxff_ffield.cpp:251)
WARNING: Changed valency_val to valency_boc for X (src/REAXFF/reaxff_ffield.cpp:296)
Resetting global fix info from restart file:
  fix style: nvt, fix ID: fnvt
All restart file global fix info was re-assigned
Neighbor list info ...
  update: every = 10 steps, delay = 0 steps, check = no
  max neighbors/atom: 2000, page size: 100000
  master list distance cutoff = 12
  ghost atom cutoff = 12
  binsize = 6, bins = 4 3 3
  2 neighbor lists, perpetual/occasional/extra = 2 0 0
  (1) pair reaxff, perpetual
      attributes: half, newton off, ghost
      pair build: half/bin/newtoff/ghost
      stencil: full/ghost/bin/3d
      bin: standard
  (2) fix qeq/reaxff, perpetual, copy from (1)
      attributes: half, newton off
      pair build: copy
      stencil: none
      bin: none
Setting up Verlet run ...
  Unit style    : real
  Current step  : 0
  Time step     : 0.5
Per MPI rank memory allocation (min/avg/max) = 105.9 | 106.1 | 106.4 Mbytes
   Step          Temp          PotEng         Press         Density         Volume    
         0   332.69353     -36695.515      12898.377      2.8878482      2983.7813    
       100   297.73443     -36689.456      18102.915      2.8878482      2983.7813    
       200   309.64394     -36716.613      5318.6683      2.8878482      2983.7813    
       300   305.46054     -36719.628      12163.088      2.8878482      2983.7813    
       400   305.34292     -36726.246      8917.025       2.8878482      2983.7813    
       500   287.6727      -36721.218      11802.007      2.8878482      2983.7813    
       600   304.52691     -36710.718      15998.213      2.8878482      2983.7813    
       700   311.7243      -36702.641      8186.8614      2.8878482      2983.7813    
       800   308.42989     -36706.471      5414.5171      2.8878482      2983.7813    
       900   292.59666     -36723.551      21782.498      2.8878482      2983.7813    
      1000   268.66433     -36721.972      13486.367      2.8878482      2983.7813    
      1100   294.63216     -36728.407      3779.594       2.8878482      2983.7813    
      1200   310.59306     -36728.621      19290.643      2.8878482      2983.7813    
      1300   302.52151     -36709.286      24543.765      2.8878482      2983.7813    
      1400   307.90884     -36708.281      722.19624      2.8878482      2983.7813    
      1500   293.89823     -36718.937      13498.274      2.8878482      2983.7813    
      1600   263.23409     -36724.038      16908.697      2.8878482      2983.7813    
      1700   286.5945      -36725.795      3958.6832      2.8878482      2983.7813    
      1800   292.84467     -36711.559      9514.6576      2.8878482      2983.7813    
      1900   291.42101     -36705.46       19202.265      2.8878482      2983.7813    
      2000   314.39931     -36719.552      14516.699      2.8878482      2983.7813    
      2100   320.59844     -36718.046      7587.5191      2.8878482      2983.7813    
      2200   296.90221     -36717.107      11569.941      2.8878482      2983.7813    
      2300   292.04726     -36727.012      18879.335      2.8878482      2983.7813    
      2400   287.66931     -36708.242      16166.054      2.8878482      2983.7813    
      2500   306.8085      -36701.201      5862.369       2.8878482      2983.7813    
      2600   306.06381     -36703.723      17774.876      2.8878482      2983.7813    
      2700   300.28773     -36724.145      18183.833      2.8878482      2983.7813    
      2800   289.66741     -36725.872      10966.456      2.8878482      2983.7813    
      2900   294.69098     -36723.074      11507.271      2.8878482      2983.7813    
      3000   298.40928     -36699.564      23279.374      2.8878482      2983.7813    
Loop time of 77.9205 on 8 procs for 3000 steps with 243 atoms

Performance: 1.663 ns/day, 14.430 hours/ns, 38.501 timesteps/s, 9.356 katom-step/s
98.8% CPU use with 8 MPI tasks x 1 OpenMP threads

MPI task timing breakdown:
Section |  min time  |  avg time  |  max time  |%varavg| %total
---------------------------------------------------------------
Pair    | 63.133     | 64.272     | 65.863     |  12.3 | 82.48
Bond    | 0.0067574  | 0.0075566  | 0.0083443  |   0.6 |  0.01
Neigh   | 4.744      | 4.7789     | 4.811      |   1.0 |  6.13
Comm    | 0.58099    | 2.1678     | 3.3073     |  66.8 |  2.78
Output  | 0.0044581  | 0.0067537  | 0.008534   |   2.1 |  0.01
Modify  | 6.5912     | 6.6236     | 6.6577     |   0.9 |  8.50
Other   |            | 0.06364    |            |       |  0.08

Nlocal:         30.375 ave          34 max          26 min
Histogram: 1 0 2 0 0 1 1 1 0 2
Nghost:        2720.25 ave        2738 max        2704 min
Histogram: 1 1 1 1 1 0 0 1 1 1
Neighs:          17577 ave       19620 max       15101 min
Histogram: 1 0 2 0 0 1 1 1 0 2

Total # of neighbors = 140616
Ave neighs/atom = 578.66667
Ave special neighs/atom = 0
Neighbor list builds = 300
Dangerous builds not checked
OMP_NUM_THREADS environment is not set. Defaulting to 1 thread. (src/comm.cpp:98)
  using 1 OpenMP thread(s) per MPI task
Reading restart file ...
  restart file = 2 Aug 2023, LAMMPS = 2 Aug 2023
  restoring atom style full from restart
  triclinic box = (0 0 0) to (14.6913 12.723 15.9631) with tilt (-7.3456 0 0)
WARNING: Triclinic box skew is large. LAMMPS will run inefficiently. (src/domain.cpp:220)
  2 by 2 by 2 MPI processor grid
  pair style reaxff stores no restart info
  243 atoms
Finding 1-2 1-3 1-4 neighbors ...
  special bond factors lj:    0        0        0       
  special bond factors coul:  0        0        0       
     0 = max # of 1-2 neighbors
     0 = max # of 1-3 neighbors
     0 = max # of 1-4 neighbors
     1 = max # of special neighbors
  special bonds CPU = 0.000 seconds
  read_restart CPU = 0.002 seconds
*****debug*****
xy = -7.3456000000000001293, deltaxy = 0.146912
xz = 0, deltaxz = -0
yz = 0, deltayz = -0
*****
*****Negative-deform 5 starts.*****
WARNING: Van der Waals parameters for element SI indicate inner wall+shielding, but earlier atoms indicate a different van der Waals method. This may cause division-by-zero errors. Keeping van der Waals setting for earlier atoms. (src/REAXFF/reaxff_ffield.cpp:251)
WARNING: Van der Waals parameters for element AL indicate inner wall+shielding, but earlier atoms indicate a different van der Waals method. This may cause division-by-zero errors. Keeping van der Waals setting for earlier atoms. (src/REAXFF/reaxff_ffield.cpp:251)
WARNING: Changed valency_val to valency_boc for X (src/REAXFF/reaxff_ffield.cpp:296)
Resetting global fix info from restart file:
  fix style: nvt, fix ID: fnvt
All restart file global fix info was re-assigned
Neighbor list info ...
  update: every = 10 steps, delay = 0 steps, check = no
  max neighbors/atom: 2000, page size: 100000
  master list distance cutoff = 12
  ghost atom cutoff = 12
  binsize = 6, bins = 4 3 3
  2 neighbor lists, perpetual/occasional/extra = 2 0 0
  (1) pair reaxff, perpetual
      attributes: half, newton off, ghost
      pair build: half/bin/newtoff/ghost
      stencil: full/ghost/bin/3d
      bin: standard
  (2) fix qeq/reaxff, perpetual, copy from (1)
      attributes: half, newton off
      pair build: copy
      stencil: none
      bin: none
Setting up Verlet run ...
  Unit style    : real
  Current step  : 0
  Time step     : 0.5
Per MPI rank memory allocation (min/avg/max) = 105.8 | 106.1 | 106.4 Mbytes
   Step          Temp          PotEng         Press         Density         Volume    
         0   332.69353     -36695.515      12898.377      2.8878482      2983.7813    
       100   298.24785     -36689.577      17683.368      2.8878482      2983.7813    
       200   311.97076     -36716.332      9842.5632      2.8878482      2983.7813    
       300   299.26339     -36714.555      13636.029      2.8878482      2983.7813    
       400   288.95435     -36719.917      10914.101      2.8878482      2983.7813    
       500   289.82716     -36718.94       16645.473      2.8878482      2983.7813    
       600   305.42383     -36698.57       15192.755      2.8878482      2983.7813    
       700   322.74863     -36710.247      12351.988      2.8878482      2983.7813    
       800   312.61227     -36716.507      5207.651       2.8878482      2983.7813    
       900   294.09372     -36714.822      16732.227      2.8878482      2983.7813    
      1000   307.37853     -36720.92       19172.028      2.8878482      2983.7813    
      1100   312.64238     -36718.807      11096.553      2.8878482      2983.7813    
      1200   282.48562     -36713.268      8039.476       2.8878482      2983.7813    
      1300   277.53977     -36730.112      14760.151      2.8878482      2983.7813    
      1400   291.65582     -36730.293      15571.285      2.8878482      2983.7813    
      1500   283.28815     -36699.142      9299.2931      2.8878482      2983.7813    
      1600   309.23278     -36714.667      12566.994      2.8878482      2983.7813    
      1700   300.61112     -36716.125      9623.06        2.8878482      2983.7813    
      1800   288.87891     -36709.027      11619.86       2.8878482      2983.7813    
      1900   322.23642     -36715.939      12077.199      2.8878482      2983.7813    
      2000   328.52536     -36707.659      5731.1531      2.8878482      2983.7813    
      2100   306.33104     -36715.908      17586.737      2.8878482      2983.7813    
      2200   277.93076     -36711.446      14223.911      2.8878482      2983.7813    
      2300   305.28503     -36723.466      4895.4641      2.8878482      2983.7813    
      2400   304.54074     -36707.367      9190.6428      2.8878482      2983.7813    
      2500   304.65636     -36710.612      17218.632      2.8878482      2983.7813    
      2600   278.43835     -36715.725      4821.4212      2.8878482      2983.7813    
      2700   266.7947      -36717.093      15493.705      2.8878482      2983.7813    
      2800   306.3195      -36724.579      13160.853      2.8878482      2983.7813    
      2900   307.88206     -36710.855      11515.201      2.8878482      2983.7813    
      3000   292.94166     -36697.635      6049.9459      2.8878482      2983.7813    
Loop time of 77.9055 on 8 procs for 3000 steps with 243 atoms

Performance: 1.664 ns/day, 14.427 hours/ns, 38.508 timesteps/s, 9.357 katom-step/s
98.7% CPU use with 8 MPI tasks x 1 OpenMP threads

MPI task timing breakdown:
Section |  min time  |  avg time  |  max time  |%varavg| %total
---------------------------------------------------------------
Pair    | 62.437     | 64.091     | 65.695     |  15.6 | 82.27
Bond    | 0.0065202  | 0.0075629  | 0.0085891  |   0.7 |  0.01
Neigh   | 4.721      | 4.7353     | 4.7518     |   0.5 |  6.08
Comm    | 0.69289    | 2.2965     | 3.9536     |  82.4 |  2.95
Output  | 0.0043555  | 0.0065338  | 0.0081554  |   2.0 |  0.01
Modify  | 6.6926     | 6.7075     | 6.7192     |   0.3 |  8.61
Other   |            | 0.06081    |            |       |  0.08

Nlocal:         30.375 ave          32 max          28 min
Histogram: 1 0 1 0 0 2 0 2 0 2
Nghost:        2707.12 ave        2711 max        2700 min
Histogram: 1 0 0 1 0 1 0 1 2 2
Neighs:        17573.2 ave       18510 max       16232 min
Histogram: 1 0 1 0 2 0 0 2 0 2

Total # of neighbors = 140586
Ave neighs/atom = 578.54321
Ave special neighs/atom = 0
Neighbor list builds = 300
Dangerous builds not checked
OMP_NUM_THREADS environment is not set. Defaulting to 1 thread. (src/comm.cpp:98)
  using 1 OpenMP thread(s) per MPI task
Reading restart file ...
  restart file = 2 Aug 2023, LAMMPS = 2 Aug 2023
  restoring atom style full from restart
  triclinic box = (0 0 0) to (14.6913 12.723 15.9631) with tilt (-7.3456 0 0)
WARNING: Triclinic box skew is large. LAMMPS will run inefficiently. (src/domain.cpp:220)
  2 by 2 by 2 MPI processor grid
  pair style reaxff stores no restart info
  243 atoms
Finding 1-2 1-3 1-4 neighbors ...
  special bond factors lj:    0        0        0       
  special bond factors coul:  0        0        0       
     0 = max # of 1-2 neighbors
     0 = max # of 1-3 neighbors
     0 = max # of 1-4 neighbors
     1 = max # of special neighbors
  special bonds CPU = 0.000 seconds
  read_restart CPU = 0.002 seconds
*****Positive-deform 5 starts.*****
WARNING: Van der Waals parameters for element SI indicate inner wall+shielding, but earlier atoms indicate a different van der Waals method. This may cause division-by-zero errors. Keeping van der Waals setting for earlier atoms. (src/REAXFF/reaxff_ffield.cpp:251)
WARNING: Van der Waals parameters for element AL indicate inner wall+shielding, but earlier atoms indicate a different van der Waals method. This may cause division-by-zero errors. Keeping van der Waals setting for earlier atoms. (src/REAXFF/reaxff_ffield.cpp:251)
WARNING: Changed valency_val to valency_boc for X (src/REAXFF/reaxff_ffield.cpp:296)
Resetting global fix info from restart file:
  fix style: nvt, fix ID: fnvt
All restart file global fix info was re-assigned
Neighbor list info ...
  update: every = 10 steps, delay = 0 steps, check = no
  max neighbors/atom: 2000, page size: 100000
  master list distance cutoff = 12
  ghost atom cutoff = 12
  binsize = 6, bins = 4 3 3
  2 neighbor lists, perpetual/occasional/extra = 2 0 0
  (1) pair reaxff, perpetual
      attributes: half, newton off, ghost
      pair build: half/bin/newtoff/ghost
      stencil: full/ghost/bin/3d
      bin: standard
  (2) fix qeq/reaxff, perpetual, copy from (1)
      attributes: half, newton off
      pair build: copy
      stencil: none
      bin: none
Setting up Verlet run ...
  Unit style    : real
  Current step  : 0
  Time step     : 0.5
Per MPI rank memory allocation (min/avg/max) = 105.9 | 106.1 | 106.4 Mbytes
   Step          Temp          PotEng         Press         Density         Volume    
         0   332.69353     -36695.515      12898.377      2.8878482      2983.7813    
       100   294.52974     -36687.058      19249.035      2.8878482      2983.7813    
       200   310.30681     -36716.274      4819.4388      2.8878482      2983.7813    
       300   309.97058     -36724.576      11357.104      2.8878482      2983.7813    
       400   285.91314     -36715.834      12809.379      2.8878482      2983.7813    
       500   298.46707     -36725.732      10695.996      2.8878482      2983.7813    
       600   318.76871     -36708.661      7649.0865      2.8878482      2983.7813    
       700   323.60478     -36712.861      11242.104      2.8878482      2983.7813    
       800   323.56543     -36725.179      7919.0549      2.8878482      2983.7813    
       900   282.54823     -36709.174      16951.563      2.8878482      2983.7813    
      1000   322.07493     -36735.837      8746.8947      2.8878482      2983.7813    
      1100   279.05934     -36721.526      11418.313      2.8878482      2983.7813    
      1200   281.84523     -36732.403      8865.4683      2.8878482      2983.7813    
      1300   293.73468     -36721.552      9709.9638      2.8878482      2983.7813    
      1400   306.95885     -36711.262      11152.019      2.8878482      2983.7813    
      1500   347.55093     -36735.918      11805.364      2.8878482      2983.7813    
      1600   299.19892     -36715.988      11407.8        2.8878482      2983.7813    
      1700   276.22477     -36711.51       13757.559      2.8878482      2983.7813    
      1800   310.3921      -36716.204      15756.542      2.8878482      2983.7813    
      1900   320.78427     -36699.165      13492.443      2.8878482      2983.7813    
      2000   296.79671     -36693.323      12421.324      2.8878482      2983.7813    
      2100   302.02046     -36714.172      15363.266      2.8878482      2983.7813    
      2200   290.06794     -36713.707      10150.649      2.8878482      2983.7813    
      2300   293.08039     -36716.089      9405.8692      2.8878482      2983.7813    
      2400   280.88883     -36701.083      12038.621      2.8878482      2983.7813    
      2500   313.42008     -36716.48       10166.844      2.8878482      2983.7813    
      2600   317.43856     -36719.175      15690.59       2.8878482      2983.7813    
      2700   303.35559     -36717.737      13639.284      2.8878482      2983.7813    
      2800   245.22866     -36712.978      10137.424      2.8878482      2983.7813    
      2900   275.6896      -36727.819      13069.325      2.8878482      2983.7813    
      3000   288.51333     -36712.292      13268.222      2.8878482      2983.7813    
Loop time of 77.4987 on 8 procs for 3000 steps with 243 atoms

Performance: 1.672 ns/day, 14.352 hours/ns, 38.710 timesteps/s, 9.407 katom-step/s
98.8% CPU use with 8 MPI tasks x 1 OpenMP threads

MPI task timing breakdown:
Section |  min time  |  avg time  |  max time  |%varavg| %total
---------------------------------------------------------------
Pair    | 62.581     | 64.116     | 65.403     |  12.5 | 82.73
Bond    | 0.0066121  | 0.007627   | 0.008627   |   0.7 |  0.01
Neigh   | 4.7109     | 4.7293     | 4.7434     |   0.6 |  6.10
Comm    | 0.68764    | 1.9768     | 3.5139     |  71.2 |  2.55
Output  | 0.0045688  | 0.0066013  | 0.0082006  |   1.9 |  0.01
Modify  | 6.5828     | 6.5988     | 6.6198     |   0.6 |  8.51
Other   |            | 0.06384    |            |       |  0.08

Nlocal:         30.375 ave          32 max          28 min
Histogram: 1 0 0 0 0 4 0 1 0 2
Nghost:        2709.12 ave        2716 max        2700 min
Histogram: 1 1 1 1 0 0 0 0 1 3
Neighs:        17570.6 ave       18489 max       16224 min
Histogram: 1 0 0 0 1 3 0 1 0 2

Total # of neighbors = 140565
Ave neighs/atom = 578.45679
Ave special neighs/atom = 0
Neighbor list builds = 300
Dangerous builds not checked
OMP_NUM_THREADS environment is not set. Defaulting to 1 thread. (src/comm.cpp:98)
  using 1 OpenMP thread(s) per MPI task
Reading restart file ...
  restart file = 2 Aug 2023, LAMMPS = 2 Aug 2023
  restoring atom style full from restart
  triclinic box = (0 0 0) to (14.6913 12.723 15.9631) with tilt (-7.3456 0 0)
WARNING: Triclinic box skew is large. LAMMPS will run inefficiently. (src/domain.cpp:220)
  2 by 2 by 2 MPI processor grid
  pair style reaxff stores no restart info
  243 atoms
Finding 1-2 1-3 1-4 neighbors ...
  special bond factors lj:    0        0        0       
  special bond factors coul:  0        0        0       
     0 = max # of 1-2 neighbors
     0 = max # of 1-3 neighbors
     0 = max # of 1-4 neighbors
     1 = max # of special neighbors
  special bonds CPU = 0.000 seconds
  read_restart CPU = 0.002 seconds
*****debug*****
xy = -7.3456000000000001293, deltaxy = 0.146912
xz = 0, deltaxz = -0
yz = 0, deltayz = -0
*****
*****Negative-deform 6 starts.*****
WARNING: Van der Waals parameters for element SI indicate inner wall+shielding, but earlier atoms indicate a different van der Waals method. This may cause division-by-zero errors. Keeping van der Waals setting for earlier atoms. (src/REAXFF/reaxff_ffield.cpp:251)
WARNING: Van der Waals parameters for element AL indicate inner wall+shielding, but earlier atoms indicate a different van der Waals method. This may cause division-by-zero errors. Keeping van der Waals setting for earlier atoms. (src/REAXFF/reaxff_ffield.cpp:251)
WARNING: Changed valency_val to valency_boc for X (src/REAXFF/reaxff_ffield.cpp:296)
Resetting global fix info from restart file:
  fix style: nvt, fix ID: fnvt
All restart file global fix info was re-assigned
Neighbor list info ...
  update: every = 10 steps, delay = 0 steps, check = no
  max neighbors/atom: 2000, page size: 100000
  master list distance cutoff = 12
  ghost atom cutoff = 12
  binsize = 6, bins = 4 3 3
  2 neighbor lists, perpetual/occasional/extra = 2 0 0
  (1) pair reaxff, perpetual
      attributes: half, newton off, ghost
      pair build: half/bin/newtoff/ghost
      stencil: full/ghost/bin/3d
      bin: standard
  (2) fix qeq/reaxff, perpetual, copy from (1)
      attributes: half, newton off
      pair build: copy
      stencil: none
      bin: none
Setting up Verlet run ...
  Unit style    : real
  Current step  : 0
  Time step     : 0.5
Per MPI rank memory allocation (min/avg/max) = 105.8 | 106.1 | 106.4 Mbytes
   Step          Temp          PotEng         Press         Density         Volume    
         0   332.69353     -36695.515      12898.377      2.8878482      2983.7813    
       100   296.89556     -36688.736      18352.378      2.8878482      2983.7813    
       200   315.25317     -36720.001      6794.2306      2.8878482      2983.7813    
       300   301.93302     -36717.338      14157.876      2.8878482      2983.7813    
       400   307.97613     -36729.425      11757.382      2.8878482      2983.7813    
       500   290.47808     -36724.905      12813.083      2.8878482      2983.7813    
       600   301.2976      -36711.878      18566.306      2.8878482      2983.7813    
       700   318.06189     -36707.195      15775.77       2.8878482      2983.7813    
       800   305.3859      -36703.578      3235.6478      2.8878482      2983.7813    
       900   312.48521     -36736.485      18374.86       2.8878482      2983.7813    
      1000   266.29819     -36711.738      22814.336      2.8878482      2983.7813    
      1100   277.3998      -36713.737      9114.6854      2.8878482      2983.7813    
      1200   288.81673     -36708.956      11957.876      2.8878482      2983.7813    
      1300   300.21543     -36700.379      17651.464      2.8878482      2983.7813    
      1400   293.11202     -36690.799      5346.2726      2.8878482      2983.7813    
      1500   293.04337     -36719.434      19373.521      2.8878482      2983.7813    
      1600   262.14371     -36708.096      7738.1628      2.8878482      2983.7813    
      1700   286.99588     -36718.354      5660.2327      2.8878482      2983.7813    
      1800   302.1455      -36713.802      15999.479      2.8878482      2983.7813    
      1900   294.0061      -36704.74       14166.509      2.8878482      2983.7813    
      2000   306.95428     -36708.371      1006.6826      2.8878482      2983.7813    
      2100   310.48642     -36718.953      12173.171      2.8878482      2983.7813    
      2200   306.00924     -36725.516      14804.184      2.8878482      2983.7813    
      2300   286.83881     -36712.13       14951.175      2.8878482      2983.7813    
      2400   285.40749     -36705.265      4516.0325      2.8878482      2983.7813    
      2500   300.73812     -36706.817      16545.37       2.8878482      2983.7813    
      2600   310.28894     -36704.815      11128.298      2.8878482      2983.7813    
      2700   288.21923     -36709.613      10949.185      2.8878482      2983.7813    
      2800   265.07227     -36711.186      9213           2.8878482      2983.7813    
      2900   311.18677     -36734.84       14499.191      2.8878482      2983.7813    
      3000   315.59801     -36702.504      4776.6458      2.8878482      2983.7813    
Loop time of 78.3335 on 8 procs for 3000 steps with 243 atoms

Performance: 1.654 ns/day, 14.506 hours/ns, 38.298 timesteps/s, 9.306 katom-step/s
98.8% CPU use with 8 MPI tasks x 1 OpenMP threads

MPI task timing breakdown:
Section |  min time  |  avg time  |  max time  |%varavg| %total
---------------------------------------------------------------
Pair    | 62.578     | 64.221     | 66.062     |  18.2 | 81.98
Bond    | 0.0064309  | 0.0075462  | 0.0084709  |   0.7 |  0.01
Neigh   | 4.7186     | 4.7548     | 4.7923     |   1.2 |  6.07
Comm    | 0.67521    | 2.5177     | 4.162      |  92.0 |  3.21
Output  | 0.0043117  | 0.0057041  | 0.0069221  |   1.3 |  0.01
Modify  | 6.7286     | 6.7652     | 6.799      |   1.0 |  8.64
Other   |            | 0.06134    |            |       |  0.08

Nlocal:         30.375 ave          34 max          26 min
Histogram: 1 1 0 1 0 1 1 1 0 2
Nghost:        2729.62 ave        2751 max        2712 min
Histogram: 2 2 0 0 0 0 1 1 0 2
Neighs:        17575.5 ave       19641 max       15091 min
Histogram: 1 1 0 1 0 1 1 1 0 2

Total # of neighbors = 140604
Ave neighs/atom = 578.61728
Ave special neighs/atom = 0
Neighbor list builds = 300
Dangerous builds not checked
OMP_NUM_THREADS environment is not set. Defaulting to 1 thread. (src/comm.cpp:98)
  using 1 OpenMP thread(s) per MPI task
Reading restart file ...
  restart file = 2 Aug 2023, LAMMPS = 2 Aug 2023
  restoring atom style full from restart
  triclinic box = (0 0 0) to (14.6913 12.723 15.9631) with tilt (-7.3456 0 0)
WARNING: Triclinic box skew is large. LAMMPS will run inefficiently. (src/domain.cpp:220)
  2 by 2 by 2 MPI processor grid
  pair style reaxff stores no restart info
  243 atoms
Finding 1-2 1-3 1-4 neighbors ...
  special bond factors lj:    0        0        0       
  special bond factors coul:  0        0        0       
     0 = max # of 1-2 neighbors
     0 = max # of 1-3 neighbors
     0 = max # of 1-4 neighbors
     1 = max # of special neighbors
  special bonds CPU = 0.000 seconds
  read_restart CPU = 0.002 seconds
*****Positive-deform 6 starts.*****
WARNING: Van der Waals parameters for element SI indicate inner wall+shielding, but earlier atoms indicate a different van der Waals method. This may cause division-by-zero errors. Keeping van der Waals setting for earlier atoms. (src/REAXFF/reaxff_ffield.cpp:251)
WARNING: Van der Waals parameters for element AL indicate inner wall+shielding, but earlier atoms indicate a different van der Waals method. This may cause division-by-zero errors. Keeping van der Waals setting for earlier atoms. (src/REAXFF/reaxff_ffield.cpp:251)
WARNING: Changed valency_val to valency_boc for X (src/REAXFF/reaxff_ffield.cpp:296)
Resetting global fix info from restart file:
  fix style: nvt, fix ID: fnvt
All restart file global fix info was re-assigned
Neighbor list info ...
  update: every = 10 steps, delay = 0 steps, check = no
  max neighbors/atom: 2000, page size: 100000
  master list distance cutoff = 12
  ghost atom cutoff = 12
  binsize = 6, bins = 4 3 3
  2 neighbor lists, perpetual/occasional/extra = 2 0 0
  (1) pair reaxff, perpetual
      attributes: half, newton off, ghost
      pair build: half/bin/newtoff/ghost
      stencil: full/ghost/bin/3d
      bin: standard
  (2) fix qeq/reaxff, perpetual, copy from (1)
      attributes: half, newton off
      pair build: copy
      stencil: none
      bin: none
Setting up Verlet run ...
  Unit style    : real
  Current step  : 0
  Time step     : 0.5
Per MPI rank memory allocation (min/avg/max) = 105.9 | 106.1 | 106.4 Mbytes
   Step          Temp          PotEng         Press         Density         Volume    
         0   332.69353     -36695.515      12898.377      2.8878482      2983.7813    
       100   296.70001     -36688.499      18625.061      2.8878482      2983.7813    
       200   310.59925     -36715.358      8501.1327      2.8878482      2983.7813    
       300   317.88982     -36729.988      13490.402      2.8878482      2983.7813    
       400   307.40495     -36727.526      9908.3863      2.8878482      2983.7813    
       500   295.3938      -36720.43       12040.976      2.8878482      2983.7813    
       600   303.57591     -36697.498      12924.386      2.8878482      2983.7813    
       700   336.2478      -36716.985      9100.1106      2.8878482      2983.7813    
       800   315.46816     -36720.279      10872.912      2.8878482      2983.7813    
       900   292.96721     -36716.49       17828.183      2.8878482      2983.7813    
      1000   300.16146     -36715.882      9434.4578      2.8878482      2983.7813    
      1100   286.72246     -36701.83       10957.018      2.8878482      2983.7813    
      1200   337.89314     -36722.556      17435.908      2.8878482      2983.7813    
      1300   310.10202     -36681.095      13821.775      2.8878482      2983.7813    
      1400   303.71997     -36691.411      3065.1396      2.8878482      2983.7813    
      1500   310.14906     -36720.805      20604.619      2.8878482      2983.7813    
      1600   277.38727     -36707.417      11250.462      2.8878482      2983.7813    
      1700   286.69681     -36711.277      8458.2503      2.8878482      2983.7813    
      1800   319.78989     -36716.895      13870.161      2.8878482      2983.7813    
      1900   309.04444     -36694.068      11843.268      2.8878482      2983.7813    
      2000   335.17012     -36706.699      11544.89       2.8878482      2983.7813    
      2100   283.03019     -36698.547      11843.591      2.8878482      2983.7813    
      2200   307.79902     -36729.277      17417.898      2.8878482      2983.7813    
      2300   287.70124     -36720.459      15302.04       2.8878482      2983.7813    
      2400   290.70591     -36713.969      15086.798      2.8878482      2983.7813    
      2500   312.51336     -36703.007      14267.342      2.8878482      2983.7813    
      2600   317.91908     -36699.64       11526.978      2.8878482      2983.7813    
      2700   306.8062      -36707.714      20646.399      2.8878482      2983.7813    
      2800   296.20275     -36719.546      17660.658      2.8878482      2983.7813    
      2900   296.83697     -36712.519      8499.0534      2.8878482      2983.7813    
      3000   314.04227     -36715.792      19096.156      2.8878482      2983.7813    
Loop time of 77.5358 on 8 procs for 3000 steps with 243 atoms

Performance: 1.671 ns/day, 14.358 hours/ns, 38.692 timesteps/s, 9.402 katom-step/s
98.7% CPU use with 8 MPI tasks x 1 OpenMP threads

MPI task timing breakdown:
Section |  min time  |  avg time  |  max time  |%varavg| %total
---------------------------------------------------------------
Pair    | 62.571     | 63.98      | 65.454     |  13.4 | 82.52
Bond    | 0.0067444  | 0.0076727  | 0.0088592  |   0.8 |  0.01
Neigh   | 4.6812     | 4.698      | 4.7173     |   0.5 |  6.06
Comm    | 0.61271    | 2.0908     | 3.5004     |  74.2 |  2.70
Output  | 0.0044256  | 0.006787   | 0.0085732  |   2.2 |  0.01
Modify  | 6.6699     | 6.6889     | 6.7076     |   0.5 |  8.63
Other   |            | 0.06378    |            |       |  0.08

Nlocal:         30.375 ave          34 max          26 min
Histogram: 1 0 0 1 0 1 4 0 0 1
Nghost:        2697.62 ave        2709 max        2688 min
Histogram: 2 1 0 1 0 1 0 1 1 1
Neighs:        17582.9 ave       19629 max       15087 min
Histogram: 1 0 0 1 0 1 4 0 0 1

Total # of neighbors = 140663
Ave neighs/atom = 578.86008
Ave special neighs/atom = 0
Neighbor list builds = 300
Dangerous builds not checked
Total wall time: 0:16:55
