LAMMPS (2 Aug 2023 - Update 2)
OMP_NUM_THREADS environment is not set. Defaulting to 1 thread. (src/comm.cpp:98)
  using 1 OpenMP thread(s) per MPI task
Reading data file ...
  triclinic box = (0 0 0) to (14.6913 12.723 15.9631) with tilt (-7.3456 0 0)
WARNING: Triclinic box skew is large. LAMMPS will run inefficiently. (src/domain.cpp:220)
  2 by 2 by 2 MPI processor grid
  reading atoms ...
  243 atoms
Finding 1-2 1-3 1-4 neighbors ...
  special bond factors lj:    0        0        0       
  special bond factors coul:  0        0        0       
     0 = max # of 1-2 neighbors
     0 = max # of 1-3 neighbors
     0 = max # of 1-4 neighbors
     1 = max # of special neighbors
  special bonds CPU = 0.001 seconds
  read_data CPU = 0.010 seconds
*****Minimization starts.*****
Setting up cg style minimization ...
  Unit style    : real
  Current step  : 0
WARNING: No pairwise cutoff or binsize set. Atom sorting therefore disabled. (src/atom.cpp:2366)
WARNING: Communication cutoff is 0.0. No ghost atoms will be generated. Atoms may get lost. (src/comm_brick.cpp:210)
Per MPI rank memory allocation (min/avg/max) = 6.364 | 6.364 | 6.364 Mbytes
   Step          Temp          E_pair         E_mol          TotEng         Press     
         0   0              0              0              0              0            
         1   0              0              0              0              0            
Loop time of 9.54385e-05 on 8 procs for 1 steps with 243 atoms

53.7% CPU use with 8 MPI tasks x 1 OpenMP threads

Minimization stats:
  Stopping criterion = search direction is not downhill
  Energy initial, next-to-last, final = 
                     0                  0                  0
  Force two-norm initial, final = 0 0
  Force max component initial, final = 0 0
  Final line search alpha, max atom move = 0 0
  Iterations, force evaluations = 1 0

MPI task timing breakdown:
Section |  min time  |  avg time  |  max time  |%varavg| %total
---------------------------------------------------------------
Pair    | 0          | 0          | 0          |   0.0 |  0.00
Bond    | 1.048e-06  | 2.4009e-06 | 2.724e-06  |   0.0 |  2.52
Neigh   | 0          | 0          | 0          |   0.0 |  0.00
Comm    | 1.0825e-05 | 1.3322e-05 | 1.6482e-05 |   0.0 | 13.96
Output  | 0          | 0          | 0          |   0.0 |  0.00
Modify  | 0          | 0          | 0          |   0.0 |  0.00
Other   |            | 7.972e-05  |            |       | 83.53

Nlocal:         30.375 ave          33 max          24 min
Histogram: 1 0 0 0 0 0 4 0 0 3
Nghost:           2.25 ave           5 max           0 min
Histogram: 2 0 1 0 2 0 0 0 2 1
Neighs:              0 ave           0 max           0 min
Histogram: 8 0 0 0 0 0 0 0 0 0

Total # of neighbors = 0
Ave neighs/atom = 0
Ave special neighs/atom = 0
Neighbor list builds = 0
Dangerous builds = 0
System init for write_data ...
WARNING: Communication cutoff is 0.0. No ghost atoms will be generated. Atoms may get lost. (src/comm_brick.cpp:210)
WARNING: Van der Waals parameters for element SI indicate inner wall+shielding, but earlier atoms indicate a different van der Waals method. This may cause division-by-zero errors. Keeping van der Waals setting for earlier atoms. (src/REAXFF/reaxff_ffield.cpp:251)
WARNING: Van der Waals parameters for element AL indicate inner wall+shielding, but earlier atoms indicate a different van der Waals method. This may cause division-by-zero errors. Keeping van der Waals setting for earlier atoms. (src/REAXFF/reaxff_ffield.cpp:251)
WARNING: Changed valency_val to valency_boc for X (src/REAXFF/reaxff_ffield.cpp:296)

CITE-CITE-CITE-CITE-CITE-CITE-CITE-CITE-CITE-CITE-CITE-CITE-CITE

Your simulation uses code contributions which should be cited:
- pair reaxff command: doi:10.1016/j.parco.2011.08.005
- fix qeq/reaxff command: doi:10.1016/j.parco.2011.08.005
The log file lists these citations in BibTeX format.

CITE-CITE-CITE-CITE-CITE-CITE-CITE-CITE-CITE-CITE-CITE-CITE-CITE

Neighbor list info ...
  update: every = 10 steps, delay = 0 steps, check = no
  max neighbors/atom: 2000, page size: 100000
  master list distance cutoff = 12
  ghost atom cutoff = 12
  binsize = 6, bins = 4 3 3
  2 neighbor lists, perpetual/occasional/extra = 2 0 0
  (1) pair reaxff, perpetual
      attributes: half, newton off, ghost
      pair build: half/bin/newtoff/ghost
      stencil: full/ghost/bin/3d
      bin: standard
  (2) fix qeq/reaxff, perpetual, copy from (1)
      attributes: half, newton off
      pair build: copy
      stencil: none
      bin: none
Setting up Verlet run ...
  Unit style    : real
  Current step  : 0
  Time step     : 0.5
Per MPI rank memory allocation (min/avg/max) = 105.6 | 105.7 | 105.7 Mbytes
   Step          Temp          PotEng         Press         Density         Volume    
         0   300           -36881.566      21554.577      2.8878482      2983.7813    
       100   191.09983     -36767.324      3773.286       2.8878482      2983.7813    
       200   230.20342     -36757.547      4407.8277      2.8878482      2983.7813    
       300   259.64905     -36734.12       25689.153      2.8878482      2983.7813    
       400   269.2476      -36690.997      6922.8718      2.8878482      2983.7813    
       500   305.1432      -36688.387      3692.0166      2.8878482      2983.7813    
       600   319.20254     -36712.081      33465.073      2.8878482      2983.7813    
       700   288.03159     -36703.346      13520.704      2.8878482      2983.7813    
       800   277.18941     -36716.655      3300.1126      2.8878482      2983.7813    
       900   291.83311     -36731.142      25384.801      2.8878482      2983.7813    
      1000   305.23958     -36717.066      9593.5464      2.8878482      2983.7813    
      1100   300.87826     -36697.131      1212.9238      2.8878482      2983.7813    
      1200   325.26462     -36718.925      25578.851      2.8878482      2983.7813    
      1300   301.23674     -36706.61       15333.9        2.8878482      2983.7813    
      1400   305.42241     -36728.018     -147.2389       2.8878482      2983.7813    
      1500   280.60014     -36721.663      18171.064      2.8878482      2983.7813    
      1600   302.3094      -36727.117      27704.492      2.8878482      2983.7813    
      1700   293.21401     -36683.951     -110.0841       2.8878482      2983.7813    
      1800   326.75668     -36712.457      18069.156      2.8878482      2983.7813    
      1900   279.14868     -36699.554      18820.402      2.8878482      2983.7813    
      2000   280.3789      -36702.545     -3651.3784      2.8878482      2983.7813    
Loop time of 41.595 on 8 procs for 2000 steps with 243 atoms

Performance: 2.077 ns/day, 11.554 hours/ns, 48.083 timesteps/s, 11.684 katom-step/s
98.5% CPU use with 8 MPI tasks x 1 OpenMP threads

MPI task timing breakdown:
Section |  min time  |  avg time  |  max time  |%varavg| %total
---------------------------------------------------------------
Pair    | 31.517     | 32.614     | 33.484     |  11.3 | 78.41
Bond    | 0.0033082  | 0.0035761  | 0.0038068  |   0.2 |  0.01
Neigh   | 3.074      | 3.117      | 3.1558     |   1.8 |  7.49
Comm    | 0.71756    | 1.5881     | 2.6844     |  51.1 |  3.82
Output  | 0.00066161 | 0.00070376 | 0.00097184 |   0.0 |  0.00
Modify  | 4.198      | 4.2366     | 4.2785     |   1.5 | 10.19
Other   |            | 0.03494    |            |       |  0.08

Nlocal:         30.375 ave          35 max          24 min
Histogram: 1 0 0 1 2 0 1 0 1 2
Nghost:        2712.75 ave        2725 max        2696 min
Histogram: 1 0 0 1 1 1 2 0 0 2
Neighs:        17558.9 ave       20170 max       13958 min
Histogram: 1 0 0 1 2 0 1 0 1 2

Total # of neighbors = 140471
Ave neighs/atom = 578.06996
Ave special neighs/atom = 0
Neighbor list builds = 200
Dangerous builds not checked
System init for write_data ...
System init for write_restart ...
OMP_NUM_THREADS environment is not set. Defaulting to 1 thread. (src/comm.cpp:98)
  using 1 OpenMP thread(s) per MPI task
Reading restart file ...
  restart file = 2 Aug 2023, LAMMPS = 2 Aug 2023
  restoring atom style full from restart
  triclinic box = (0 0 0) to (14.6913 12.723 15.9631) with tilt (-7.3456 0 0)
WARNING: Triclinic box skew is large. LAMMPS will run inefficiently. (src/domain.cpp:220)
  2 by 2 by 2 MPI processor grid
  pair style reaxff stores no restart info
  243 atoms
Finding 1-2 1-3 1-4 neighbors ...
  special bond factors lj:    0        0        0       
  special bond factors coul:  0        0        0       
     0 = max # of 1-2 neighbors
     0 = max # of 1-3 neighbors
     0 = max # of 1-4 neighbors
     1 = max # of special neighbors
  special bonds CPU = 0.000 seconds
  read_restart CPU = 0.002 seconds
*****Negative-deform 1 starts.*****
WARNING: Van der Waals parameters for element SI indicate inner wall+shielding, but earlier atoms indicate a different van der Waals method. This may cause division-by-zero errors. Keeping van der Waals setting for earlier atoms. (src/REAXFF/reaxff_ffield.cpp:251)
WARNING: Van der Waals parameters for element AL indicate inner wall+shielding, but earlier atoms indicate a different van der Waals method. This may cause division-by-zero errors. Keeping van der Waals setting for earlier atoms. (src/REAXFF/reaxff_ffield.cpp:251)
WARNING: Changed valency_val to valency_boc for X (src/REAXFF/reaxff_ffield.cpp:296)
Resetting global fix info from restart file:
  fix style: nvt, fix ID: fnvt
All restart file global fix info was re-assigned
Neighbor list info ...
  update: every = 10 steps, delay = 0 steps, check = no
  max neighbors/atom: 2000, page size: 100000
  master list distance cutoff = 12
  ghost atom cutoff = 12
  binsize = 6, bins = 4 3 3
  2 neighbor lists, perpetual/occasional/extra = 2 0 0
  (1) pair reaxff, perpetual
      attributes: half, newton off, ghost
      pair build: half/bin/newtoff/ghost
      stencil: full/ghost/bin/3d
      bin: standard
  (2) fix qeq/reaxff, perpetual, copy from (1)
      attributes: half, newton off
      pair build: copy
      stencil: none
      bin: none
Setting up Verlet run ...
  Unit style    : real
  Current step  : 0
  Time step     : 0.5
Per MPI rank memory allocation (min/avg/max) = 105.8 | 106.1 | 106.5 Mbytes
   Step          Temp          PotEng         Press         Density         Volume    
         0   280.3789      -36702.545     -3650.8612      2.8878482      2983.7813    
       100   307.09229     -36727.709      16433.676      2.8892928      2982.2894    
       200   289.65853     -36709.515      25180.808      2.8907389      2980.7975    
       300   306.14834     -36695.693     -858.58507      2.8921864      2979.3056    
       400   326.86912     -36705.015      12775.694      2.8936354      2977.8137    
       500   277.9696      -36701.002      22256.023      2.8950859      2976.3219    
       600   306.06969     -36723.44       5285.3864      2.8965378      2974.83      
       700   294.17621     -36715.41       13669.264      2.8979911      2973.3381    
       800   286.11148     -36711.079      27482.018      2.8994459      2971.8462    
       900   300.49088     -36706.203      14408.752      2.9009022      2970.3543    
      1000   334.64727     -36705.367      18047.222      2.90236        2968.8624    
      1100   323.2579      -36712.411      13589.753      2.9038192      2967.3705    
      1200   308.42931     -36721.666      12027.881      2.9052798      2965.8786    
