ITEM: TIMESTEP
0
ITEM: NUMBER OF ATOMS
331
ITEM: BOX BOUNDS xy xz yz pp pp pp
-8.4808679999999992e+00 1.5708700000000000e+01 -8.3350679999999997e+00
-2.0055999999999998e+00 1.3086800000000000e+01 -1.4580000000000001e-01
0.0000000000000000e+00 1.7524799999999999e+01 -2.0055999999999998e+00
ITEM: ATOMS id type x y z
1 4 -0.798166 1.90928 4.83627
2 4 0.245649 4.59873 3.2212
3 1 0.739173 1.34081 5.85309
174 2 -1.46119 5.24568 5.26762
5 1 2.10978 4.42332 3.13675
6 1 -0.484988 5.03673 1.31146
8 2 1.64513 2.15776 5.95125
9 2 0.973368 0.461303 5.20909
10 2 0.393111 0.981491 6.81379
312 2 5.61729 0.3706 3.00615
12 2 2.08651 3.24429 3.36276
13 2 2.92218 5.13035 3.8246
14 2 2.07768 4.63215 1.92881
182 2 -0.947187 4.86394 7.67697
16 2 -1.05518 4.38801 0.612445
17 2 0.295928 5.74793 0.821676
18 3 -0.309836 3.41335 3.95277
24 4 5.87191 1.82683 3.98996
45 1 4.02861 1.32461 3.48391
47 1 3.58857 0.46846 8.46076
263 4 4.26184 3.81746 1.15391
51 1 3.16129 3.53345 6.31771
78 2 3.83303 1.45172 2.39081
79 2 3.65247 2.33499 4.02296
80 2 3.58674 0.402434 3.94397
83 2 2.45033 0.500895 8.31736
82 2 4.26257 0.616934 7.5264
265 2 2.74971 3.17601 1.76355
154 1 -2.57633 5.35365 5.16374
15 2 -1.22625 5.75741 1.95344
93 2 3.83814 2.66873 6.01983
94 2 2.33251 3.69031 5.53992
95 2 2.79808 3.48199 7.40737
117 3 6.38186 1.50913 5.5523
321 2 5.1614 0.196138 0.950786
162 2 2.97045 -0.250929 6.75193
266 3 5.11669 2.81314 0.390367
267 3 3.85649 5.19779 0.619498
283 1 1.43746 1.31102 0.411893
175 2 -2.9919 4.66441 4.35532
311 2 0.973283 4.11407 0.393488
286 2 1.57862 1.88595 1.41514
284 2 2.3237 0.693367 0.0091235
32 4 3.99703 5.19137 6.52518
46 1 6.05416 0.0510738 0.136299
285 2 0.298417 0.88873 0.188058
176 2 -3.10789 5.40476 6.14451
11 2 -0.733489 1.2894 2.61563
264 2 4.76929 4.01848 2.75264
7 2 0.42103 6.02466 4.23404
19 4 1.10768 0.755653 16.8542
21 4 2.41274 -1.05608 12.4286
22 4 1.20334 1.4758 11.3119
23 4 -0.621255 2.40686 13.7154
25 4 5.72706 -0.153398 16.8139
27 4 4.19047 1.61297 9.85199
29 4 3.71589 0.553046 14.7636
149 4 -0.219176 5.07601 9.97003
34 4 0.17546 4.33981 16.0839
44 1 -1.52748 0.839198 14.4158
48 1 5.30413 0.547058 10.9466
58 2 -0.502141 0.706455 16.0232
60 2 -2.07553 3.07376 13.0127
81 2 3.9781 -0.525722 9.22677
62 2 -1.00962 4.30621 17.2151
170 2 -0.308636 3.37598 9.99996
76 2 -0.562213 0.139505 14.1553
84 2 5.79882 -0.323617 10.3181
85 2 4.63343 0.194774 11.7794
171 2 2.56621 3.54158 11.9096
112 3 -0.0327439 1.70076 9.96967
113 3 1.45349 -0.0843722 11.4606
114 3 0.477421 2.12088 12.6023
116 3 2.57212 2.26579 10.862
119 3 3.17379 -0.0718794 13.3909
120 3 4.77109 -0.432597 15.419
121 3 2.39172 0.70143 15.8994
122 3 5.24287 2.67395 9.12599
125 3 4.55266 1.99997 14.307
126 3 -0.197744 3.33399 14.9124
127 3 1.57001 4.5276 16.7714
20 4 -1.30478 0.849925 9.43496
86 2 6.00199 1.44402 11.2904
161 2 -7.90751 11.7932 6.2259
143 4 -6.23664 11.4527 6.31639
144 4 -2.5772 7.11538 4.4442
146 4 -2.71235 9.29253 6.61381
219 2 -5.85411 10.0033 3.21251
57 1 -5.0279 7.25552 8.49575
184 2 -1.04956 6.73287 8.45487
230 2 0.0269171 8.66671 5.90564
163 2 -3.37934 7.5491 3.03262
164 2 -0.880905 7.42746 3.85592
166 2 -4.20008 9.72897 7.22602
167 2 -2.2373 10.6996 5.74173
169 2 -5.61056 11.2651 4.7996
328 2 -5.04066 8.11431 7.75287
234 2 -0.588185 11.2763 6.38299
183 2 0.609572 6.07313 7.82444
218 2 -7.49954 12.0962 1.86831
192 3 -2.93656 8.07723 5.6417
193 3 -5.85213 10.2455 7.24245
199 3 -1.6078 9.04893 7.77014
206 4 -2.34121 10.0545 2.22038
207 4 0.176022 9.79908 4.17389
213 1 -3.88758 10.1076 3.30344
214 1 0.392052 7.8078 5.14688
215 1 -0.433336 11.2639 5.24689
220 2 -2.10161 11.4694 1.18279
221 2 -2.68289 8.91841 0.91374
227 2 -3.7232 9.89698 4.39118
228 2 -4.42398 9.28142 2.59701
229 2 -4.15182 11.2835 2.98475
231 2 1.41178 8.03152 4.77866
232 2 0.505819 6.90701 5.80659
235 2 -1.3215 11.6779 4.66639
242 3 -1.05253 9.62627 3.18914
291 1 2.82045 7.4327 1.70317
322 2 -1.19199 12.9494 0.550578
157 1 -0.403463 5.78749 8.25325
294 2 1.65782 7.43033 1.63919
303 2 -4.40325 9.39854 0.737903
299 2 0.594563 10.3353 8.12092
293 2 3.09125 6.79653 2.60457
30 4 3.15846 6.625 0.00430328
326 2 -1.65452 11.5532 11.9701
64 2 -0.39837 5.85237 15.5216
115 3 -6.88363 10.9125 13.2159
145 4 -2.24217 6.52748 12.3056
148 4 -4.76259 9.79532 10.6673
151 4 -1.85221 9.82859 9.34996
274 2 -0.955853 8.24204 17.1394
301 1 -4.35587 6.82763 17.2806
155 1 -1.16861 6.60516 13.882
156 1 -4.76582 8.51523 12.14
275 2 -0.439205 7.69309 15.4377
320 2 -2.6654 10.5067 16.7036
165 2 -2.90563 8.01857 11.81
319 2 -5.77333 8.70474 12.5553
188 2 -1.61427 10.1587 13.2673
177 2 -1.29908 7.86142 13.9074
178 2 -0.152921 6.12186 13.6318
179 2 -1.95427 5.90381 14.5116
180 2 -4.62358 7.44305 11.9107
181 2 -4.03361 8.87882 12.9773
153 4 0.027522 9.65078 11.7436
194 3 -3.43651 5.6024 12.7658
198 3 1.47602 5.50531 10.4166
195 3 -6.10787 9.70496 9.88356
196 3 -4.76075 11.2457 11.4307
197 3 -1.24204 5.82507 11.0432
200 3 -1.78627 11.4799 9.20508
201 3 -3.42382 9.50276 9.90503
202 3 2.04191 6.13022 12.9339
203 3 -0.588163 9.34363 10.3338
302 2 -3.99159 7.4968 16.4553
150 4 2.45449 5.21445 11.6392
159 1 -0.966448 10.9858 12.6618
272 2 1.17327 7.74628 17.1957
262 2 -5.94448 9.73873 15.9989
270 1 -0.123029 8.34287 16.3474
204 3 0.863891 8.62641 12.6251
172 2 1.33606 7.81033 15.0886
259 1 -7.02583 9.52555 15.7884
273 2 -0.212502 9.93372 15.7041
329 2 -3.96505 7.00121 8.85899
325 2 -3.04747 5.60602 17.3705
28 4 7.68741 1.81548 6.54842
31 4 6.38034 3.76092 8.41011
35 4 9.91938 1.68166 4.27496
37 4 12.1024 1.26747 6.32524
40 4 10.4502 4.40098 2.7601
296 2 9.86867 0.495826 0.993384
304 1 13.1118 0.741464 0.0984304
55 1 11.1036 3.93163 0.937473
315 2 15.0969 -0.174536 3.98426
65 2 9.36369 0.802134 2.95401
69 2 10.143 5.79731 3.6635
70 2 9.48586 4.36479 0.992728
49 1 6.58776 3.44589 3.22188
89 2 6.53463 4.18606 4.06619
87 2 6.39975 3.90118 2.11859
88 2 7.72307 2.97689 3.2188
106 2 11.2291 2.79322 0.939384
107 2 12.1934 4.49199 2.24534
108 2 9.76171 4.74787 5.24684
118 3 7.90641 0.448871 7.57668
123 3 7.47774 3.16432 7.42987
124 3 5.24198 5.24336 7.55142
128 3 8.86896 1.85071 5.37534
129 3 14.906 -0.475449 8.70178
131 3 13.4086 2.04344 5.97913
132 3 11.2583 0.92906 4.71916
133 3 12.2869 -0.33609 7.07157
137 3 10.1131 3.09095 3.65268
139 3 11.2951 2.15318 7.39049
140 3 10.3151 4.44111 8.21358
316 2 13.3092 0.540562 3.40063
96 2 4.6563 5.08792 4.4669
330 2 12.4002 0.957934 0.990595
4 1 14.4671 0.686362 3.45334
281 2 10.759 5.79004 0.373331
41 4 10.9249 2.93215 8.65459
59 2 13.7828 1.92271 8.34894
56 1 9.75231 5.84075 5.61995
323 2 8.11261 0.152036 1.74397
305 2 14.0701 0.193558 0.444691
187 2 4.56844 4.34217 10.5351
251 1 9.35944 4.95549 12.6963
33 4 5.37439 3.26183 13.8565
36 4 9.49834 1.1944 10.887
38 4 8.53732 0.829125 15.9149
39 4 12.112 -0.239995 11.1779
50 1 7.3191 4.48949 9.78303
53 1 7.35576 2.6644 13.3311
54 1 9.20837 -0.454145 14.7149
327 2 8.02157 -1.44929 13.3904
63 2 4.95911 3.69454 12.2583
66 2 8.77417 1.96007 12.2067
67 2 8.35389 2.24064 15.0107
68 2 12.7225 -1.11373 12.5959
310 2 12.0512 -0.384806 14.5648
77 2 13.364 0.841571 13.6182
91 2 8.43104 4.12656 9.65241
92 2 6.93986 4.27164 10.8177
99 2 6.9505 2.97485 12.2245
100 2 6.88125 1.59128 13.9546
101 2 7.6688 3.6013 14.0032
102 2 10.3232 -0.812427 14.635
103 2 8.93787 0.16166 13.7654
104 2 8.44528 -1.32242 14.9699
130 3 8.49519 0.185219 10.1952
134 3 7.30715 0.203024 16.5708
135 3 13.2112 0.582603 10.5047
136 3 10.7491 0.414157 11.5903
138 3 10.0953 2.27323 9.79217
141 3 5.60602 4.61489 14.8301
249 4 11.0831 4.58226 13.4247
250 1 11.6919 2.71275 13.1268
331 3 11.0273 4.77593 15.0882
71 2 12.383 3.27467 9.36077
253 2 12.1448 2.47351 12.1459
254 2 10.6006 2.30646 13.1336
313 2 9.78135 1.20687 17.0011
256 2 9.0951 3.94064 12.3948
306 2 13.1533 -0.409342 16.9647
252 2 12.2671 2.33818 13.9685
307 1 12.2668 -1.48054 14.4448
26 4 8.05278 -0.544594 8.80375
75 2 13.7709 0.663743 15.4893
158 1 4.29223 5.22267 11.2312
105 2 11.4309 2.35132 17.4906
109 2 8.93999 6.48061 5.20757
42 4 9.76444 5.83809 7.7039
147 4 8.63508 9.94986 8.65035
61 2 3.07457 6.6954 6.39334
97 2 4.96846 7.04339 4.85151
297 2 1.09769 11.8299 1.9318
224 2 6.13033 6.55317 7.63136
110 2 8.23369 5.86565 6.64082
72 2 10.8628 6.41642 5.79913
205 4 8.22331 10.3976 2.7093
208 4 5.29147 11.9626 7.34853
209 4 3.30384 10.7359 3.61056
210 4 6.33558 8.28366 7.54345
211 4 5.97515 10.1699 5.12298
212 1 7.49202 10.7075 1.00786
216 1 3.70431 10.5599 1.77271
324 2 1.60593 11.9144 7.48412
295 1 0.690871 12.793 1.27011
222 2 4.6906 10.4938 8.00289
223 2 3.24064 12.4355 4.00282
317 2 6.41524 10.8559 1.01857
225 2 7.85154 9.04226 1.41293
244 3 7.54691 8.79411 8.40068
298 1 1.10242 11.3134 8.39429
233 2 0.542599 11.8616 4.92925
292 2 3.17482 8.52906 1.8327
236 2 4.72004 10.0723 1.60239
237 2 3.72384 11.7913 1.63415
238 2 2.82928 10.0417 1.20089
243 3 1.78734 10.1626 3.73874
245 3 7.08249 10.2719 3.92672
246 3 4.50065 10.1272 4.43968
247 3 6.19825 8.9043 6.1029
248 3 6.18395 11.7629 6.04151
240 2 3.73523 8.92073 7.92186
52 1 4.10571 6.33485 4.86301
217 1 4.69932 8.58115 8.52012
98 2 3.39336 6.65904 3.96658
226 2 8.01842 10.9544 0.0200856
43 4 5.48705 5.59467 16.0899
73 2 5.97123 7.22002 15.7044
309 2 5.03736 11.4322 14.3314
142 3 4.0776 5.67601 16.7701
282 2 9.64802 6.2278 16.9083
160 1 3.61818 8.32756 13.3343
173 2 0.788003 11.172 11.7533
185 2 4.95649 5.32087 12.1283
152 4 1.88881 7.69533 13.4642
268 4 1.06313 9.71803 17.182
189 2 3.33542 9.32618 12.7126
190 2 4.12649 7.46917 12.7436
191 2 4.1947 8.54929 14.4263
289 2 6.86205 8.35751 12.2431
308 2 3.25022 11.0507 13.7503
260 2 8.34041 8.07125 13.7913
241 2 4.92379 9.29331 9.45354
186 2 4.26191 6.28203 10.7274
258 4 7.98267 9.90833 14.1379
74 2 6.54968 5.1905 17.2758
314 2 3.51022 11.4108 10.1981
269 4 4.04745 10.6351 16.2712
271 1 5.21821 8.97944 16.1351
111 2 9.85084 7.28558 9.42233
290 2 5.9786 9.83022 13.4587
277 2 5.71536 8.78902 15.0704
278 2 4.39323 8.26316 16.3573
279 3 2.50006 10.1741 16.7189
280 4 10.9709 5.0532 16.7076
276 2 5.98181 8.92462 17.0727
255 2 8.66963 5.39547 13.5121
287 1 6.67486 8.51553 13.313
288 2 6.09617 7.64664 13.6972
318 2 8.35842 8.47273 15.9352
257 2 9.46716 5.75193 11.8552
90 2 7.10269 5.6333 9.47565
300 2 1.81295 11.2499 9.29891
239 2 4.67943 7.46268 8.902
261 2 7.77996 10.3429 16.2994
168 2 7.72826 11.3749 8.97615
ITEM: TIMESTEP
100
ITEM: NUMBER OF ATOMS
331
ITEM: BOX BOUNDS xy xz yz pp pp pp
-8.4808679999999992e+00 1.5708700000000000e+01 -8.3350679999999997e+00
-2.0055999999999998e+00 1.3086800000000000e+01 -1.4580000000000001e-01
0.0000000000000000e+00 1.7524799999999999e+01 -2.0055999999999998e+00
ITEM: ATOMS id type x y z
1 4 -0.782252 1.89481 4.81324
2 4 0.113451 4.56524 3.2411
3 1 0.757354 1.33699 5.79183
174 2 -1.599 4.83161 5.47171
5 1 2.01569 4.38991 3.2752
6 1 -0.32852 4.86716 1.35362
8 2 1.59767 2.0988 5.95897
9 2 1.02808 0.543395 4.93768
10 2 0.368973 0.884691 6.80734
312 2 5.87705 0.419012 2.95956
12 2 2.11119 3.26271 3.49353
13 2 2.73531 5.08081 3.89797
14 2 1.9828 4.73892 2.0563
182 2 -0.867857 5.12963 7.67235
16 2 -0.759492 3.97213 0.677612
17 2 0.490739 5.50356 0.82242
18 3 -0.402607 3.25951 3.98666
24 4 5.86029 1.87379 3.96806
45 1 4.16147 1.22878 3.32204
47 1 3.53165 0.747773 8.50745
263 4 4.35263 3.9673 1.20447
51 1 3.14712 3.49508 6.29348
78 2 4.05454 0.943486 2.24402
79 2 3.70739 2.36078 3.59942
80 2 3.61232 0.473238 3.96132
83 2 2.413 0.861197 8.56685
82 2 4.03917 1.23231 7.63695
265 2 2.9246 3.31571 1.86287
154 1 -2.61687 5.34471 5.27725
15 2 -1.262 5.59479 1.78671
93 2 3.94124 2.75295 6.49349
94 2 2.64626 3.54105 5.25621
95 2 2.36912 3.8576 7.28335
117 3 6.20948 1.58762 5.48823
321 2 5.21527 0.100241 1.08398
162 2 2.77592 -0.192763 6.89684
266 3 5.12321 2.9369 0.49678
267 3 3.82719 5.31981 0.594305
283 1 1.46752 1.14418 0.390282
175 2 -3.32443 4.85934 4.47122
311 2 1.23139 3.93228 0.525086
286 2 1.48776 1.40268 1.51325
284 2 2.44337 0.639206 0.0214164
7 2 0.192269 6.04783 4.24006
176 2 -3.19469 5.52884 6.22262
264 2 4.96436 4.15945 2.8418
59 2 -1.83764 1.96694 8.29494
46 1 5.94683 0.0273 0.227696
32 4 4.07076 5.08467 6.5572
322 2 7.14584 -0.0283031 0.541989
19 4 1.20879 0.636418 16.8948
21 4 2.41108 -0.957359 12.358
22 4 1.24292 1.45738 11.3979
23 4 -0.722096 2.49816 13.7608
25 4 5.68756 -0.313594 16.8524
27 4 4.35004 1.65829 10.0508
29 4 3.76399 0.633946 14.8409
149 4 -0.178203 5.06414 10.0008
34 4 -0.094679 4.46946 16.1394
44 1 -1.47706 0.894304 14.5216
48 1 5.50598 0.438844 10.921
58 2 -0.37376 0.799662 16.1211
60 2 -2.14587 3.07684 13.0335
81 2 4.00618 -0.291817 8.86999
62 2 -1.17621 4.08396 17.3931
170 2 -0.214712 3.31397 9.96613
76 2 -0.568171 0.209549 14.4508
84 2 5.90376 -0.383096 10.1323
85 2 4.92207 0.00885168 11.8044
171 2 2.75807 3.53114 12.022
112 3 -0.00988011 1.72994 9.9958
113 3 1.4054 -0.133226 11.3214
114 3 0.398032 2.07226 12.6874
116 3 2.75515 2.17913 11.139
119 3 3.26469 -0.0267794 13.5255
120 3 4.66531 -0.490652 15.6199
121 3 2.37938 0.771891 15.8508
122 3 5.31934 2.72601 9.40967
125 3 4.65273 2.00985 14.3406
126 3 -0.428514 3.50663 15.0258
127 3 1.29712 4.46133 16.7653
198 3 1.30388 5.28291 10.4962
326 2 6.66117 -1.22311 12.1838
285 2 0.323676 -1.41828 17.4888
20 4 -1.33157 0.892684 9.42164
161 2 -7.78157 11.6151 5.74445
143 4 -6.14923 11.4323 6.19295
144 4 -2.47587 6.98467 4.40162
146 4 -2.70412 9.2719 6.48225
219 2 -5.86422 9.8777 2.97525
57 1 -5.085 7.18991 8.47867
184 2 -0.857317 6.83134 8.52468
230 2 -0.00356457 8.7096 5.79802
163 2 -3.23143 6.94185 2.87516
164 2 -0.840078 7.37813 3.73441
166 2 -4.16929 9.85721 6.82108
167 2 -1.97689 10.5714 5.65581
169 2 -5.25134 11.4573 4.69331
328 2 -5.06126 8.06825 7.73933
234 2 -0.281341 11.1683 6.45758
183 2 0.781192 6.10787 7.91749
218 2 -7.44276 11.8301 1.89888
192 3 -2.89096 8.07694 5.47212
193 3 -5.91031 10.1736 7.10277
199 3 -1.93388 9.0194 7.77765
206 4 -2.45814 10.1046 2.22878
207 4 0.224939 9.89904 4.22925
213 1 -3.93346 9.90895 3.25976
214 1 0.371325 7.83067 5.07953
215 1 -0.240419 11.3856 5.34533
220 2 -2.58635 11.6802 1.54016
221 2 -2.52191 9.29299 0.696371
227 2 -4.0684 9.78527 4.39099
228 2 -4.39277 9.00691 2.59468
229 2 -4.43158 11.0033 2.82425
231 2 1.44089 7.95361 4.69255
232 2 0.298736 6.89804 5.66668
235 2 -1.26346 11.6923 4.91353
242 3 -1.08456 9.83731 3.14327
291 1 2.78785 7.72046 1.6544
325 2 -3.05588 7.51743 0.114036
157 1 -0.251911 5.92649 8.33312
294 2 1.69318 7.79951 1.53646
303 2 -4.51296 9.15776 0.786422
30 4 3.15637 6.63202 0.120866
293 2 3.07424 7.09732 2.64309
152 4 1.78584 7.71241 13.5613
64 2 -0.549212 6.09111 15.749
115 3 -7.07283 10.9603 13.212
145 4 -2.26793 6.42963 12.2176
148 4 -4.80896 9.81549 10.7096
151 4 -1.94837 9.85296 9.28118
274 2 -1.03464 8.64078 17.0568
301 1 -4.36412 6.70117 17.3982
155 1 -1.20515 6.62099 13.9713
156 1 -4.83138 8.37565 12.014
275 2 -0.529584 7.84627 15.4378
320 2 -2.90908 10.4973 16.8827
165 2 -2.90279 7.94318 11.6553
319 2 -5.92686 8.47616 12.2929
188 2 -1.65134 10.1564 13.1875
177 2 -1.36383 7.79213 13.7564
178 2 -0.386228 5.95783 13.4119
179 2 -2.04074 6.08461 14.5363
180 2 -4.68305 7.33712 11.6589
181 2 -4.16659 8.5999 12.8265
153 4 -0.0304306 9.77835 11.6401
194 3 -3.42234 5.56612 12.7607
318 2 -6.62217 8.70363 16.348
195 3 -6.1311 9.80198 9.83765
196 3 -4.77884 11.3721 11.5041
197 3 -1.30028 5.68592 11.0673
200 3 -1.83536 11.4832 9.05589
201 3 -3.41879 9.46976 10.0301
202 3 1.99401 6.16757 13.0227
203 3 -0.691417 9.27223 10.2772
302 2 -3.94483 7.43404 16.6274
150 4 2.33522 5.20718 11.6827
159 1 -0.982289 11.0868 12.6239
272 2 1.24034 7.94336 17.191
262 2 -6.11036 10.489 16.0224
270 1 -0.169852 8.60371 16.3342
204 3 0.901826 8.83171 12.6049
172 2 1.22993 7.67086 15.278
259 1 -6.93444 9.73885 15.9293
273 2 -0.0593707 9.95775 15.7563
329 2 -4.1449 7.0114 9.01784
28 4 7.59146 1.69306 6.53415
31 4 6.4093 3.68909 8.48775
35 4 9.85662 1.52804 4.33042
37 4 12.0845 1.24961 6.38239
40 4 10.4219 4.26398 2.58515
296 2 10.031 0.285593 1.56729
304 1 13.3906 0.666317 0.023857
55 1 11.2092 3.92951 0.801742
315 2 15.3023 -0.318526 3.36999
65 2 9.12549 0.421299 3.23737
69 2 10.1458 5.70944 3.58201
70 2 9.40123 4.31438 1.00041
49 1 6.7601 3.45845 3.10609
89 2 7.02215 4.17436 3.87953
87 2 6.45811 3.98942 2.14715
88 2 7.69231 2.69122 2.9109
106 2 11.4914 2.87814 0.846548
107 2 12.1895 4.56148 2.06873
108 2 10.0627 4.93514 5.19825
118 3 7.95397 0.370752 7.49552
123 3 7.34238 3.06781 7.36615
124 3 5.35702 5.11155 7.50477
128 3 8.8232 1.73566 5.55019
129 3 14.7572 -0.587891 8.59886
131 3 13.7488 1.89872 5.83054
132 3 11.2295 0.939014 4.71267
133 3 12.5315 -0.111123 7.03035
137 3 10.1396 2.98604 3.42375
139 3 11.3066 2.07588 7.37416
140 3 10.4095 4.3868 8.15792
316 2 13.586 0.284662 3.9114
96 2 4.60072 5.12699 4.39795
330 2 12.7934 0.833419 0.94776
4 1 14.5613 0.542287 3.4145
110 2 8.30965 5.69498 6.75573
41 4 10.9597 2.9738 8.59648
305 2 14.3648 -0.00296639 0.160586
56 1 9.58475 5.89371 5.46695
323 2 8.17467 0.603624 1.44315
281 2 10.402 5.64706 0.162939
11 2 14.4601 1.11685 2.4606
187 2 4.46063 4.59233 10.5896
105 2 11.4194 2.20102 17.2833
33 4 5.45527 3.32004 13.8728
36 4 9.49393 1.28481 10.8888
38 4 8.69995 0.601204 15.8786
39 4 12.1132 -0.209139 11.1135
50 1 7.47264 4.50773 9.77839
53 1 7.18682 2.71418 13.3006
54 1 9.41456 -0.647482 14.7006
327 2 8.09693 -1.50929 13.3972
63 2 4.77362 4.25399 12.4996
66 2 8.70327 2.07245 12.2014
67 2 8.40906 1.93281 14.714
68 2 12.7013 -0.894854 12.553
310 2 12.1357 -0.395576 14.5849
77 2 13.5135 0.692098 13.6762
91 2 8.48775 4.03256 9.56411
92 2 7.12072 4.44016 10.8144
99 2 7.04921 3.21078 12.1955
100 2 7.33654 1.58517 13.4247
101 2 7.85211 3.36368 14.034
102 2 10.5393 -0.973485 14.5818
103 2 8.96918 -0.0865201 13.7373
104 2 8.71638 -1.52378 15.0805
130 3 8.40984 0.211871 10.302
134 3 7.27708 0.191491 16.3878
135 3 13.1572 0.643666 10.3491
136 3 10.7815 0.453031 11.4473
138 3 10.0144 2.37588 9.79404
141 3 5.53808 4.45422 14.911
249 4 11.1245 4.76189 13.4662
250 1 11.5915 2.84881 13.0981
86 2 6.29952 1.2837 11.2293
71 2 12.488 3.23999 9.25839
253 2 12.1375 2.72513 12.0865
254 2 10.392 2.63746 13.1447
313 2 9.82339 0.995272 17.1745
256 2 9.45343 4.37986 12.0291
306 2 13.443 -0.409829 16.9284
252 2 12.2099 2.37996 14.0243
307 1 12.5055 -1.48842 14.4588
26 4 8.13842 -0.588312 8.90772
75 2 13.7915 0.933484 15.5782
109 2 8.78733 6.27759 4.74717
42 4 9.81303 5.72255 7.71476
147 4 8.65682 9.94283 8.53749
98 2 3.34207 6.58782 4.0005
97 2 4.8899 7.05834 4.84141
297 2 0.481962 11.8304 1.92911
224 2 5.93366 6.62375 7.46867
299 2 0.753324 10.3472 8.33852
72 2 10.3612 6.71972 5.66176
205 4 8.16034 10.2164 2.64686
208 4 5.34197 11.9533 7.22573
209 4 3.32915 10.8728 3.5136
210 4 6.31462 8.33247 7.5439
211 4 5.97938 10.1353 5.01286
212 1 7.42938 10.4431 0.953855
216 1 3.94146 10.7668 1.71065
324 2 1.82056 11.8551 7.9419
295 1 0.668864 12.9036 1.34236
222 2 4.49641 10.5495 7.78584
223 2 3.16427 12.5313 3.93844
317 2 6.25173 10.5643 1.02304
225 2 7.81866 8.95668 1.05661
244 3 7.67341 8.68311 8.2828
298 1 1.22239 11.2587 8.75667
233 2 0.532714 12.2196 5.1587
292 2 3.30089 8.82347 1.70322
236 2 4.86309 10.0589 1.83585
237 2 4.31035 11.8499 1.61793
238 2 3.33979 10.4882 0.857348
243 3 1.81879 10.1706 3.64372
245 3 7.10556 10.1563 3.90569
246 3 4.4633 10.289 4.401
247 3 6.03815 8.95231 6.14045
248 3 6.27029 11.7093 5.93552
240 2 3.79073 9.14565 8.2314
52 1 4.1064 6.24597 4.81302
217 1 4.75564 8.8051 8.60618
61 2 3.17647 6.64313 6.3962
43 4 5.42766 5.42204 16.0685
73 2 5.86637 7.0005 15.5208
261 2 7.78297 10.2648 16.4232
142 3 4.12701 5.50988 16.8867
282 2 9.56546 6.40943 17.0804
160 1 3.41665 8.44292 13.4132
173 2 0.614724 11.3862 11.5423
185 2 4.86773 5.837 11.9776
239 2 4.64896 7.66534 8.95686
268 4 1.11837 9.87004 17.3276
189 2 3.16255 9.45566 12.9583
190 2 3.83234 7.54457 12.6113
191 2 4.01123 8.434 14.4532
289 2 7.00744 8.84689 12.2673
308 2 3.35843 10.8967 14.0026
260 2 7.8893 7.78486 13.6536
241 2 5.23173 9.50326 9.40302
186 2 3.81308 6.36759 10.3925
258 4 7.97136 9.93111 14.2109
74 2 6.75682 5.12868 17.0134
314 2 3.468 11.4535 10.2729
269 4 4.20192 10.677 16.2533
271 1 5.21726 8.77884 16.0572
111 2 9.58892 7.29352 9.25796
290 2 6.1909 10.0707 14.2405
277 2 5.69304 8.56971 14.9965
278 2 4.33373 8.06501 16.2387
279 3 2.6916 10.2907 16.7758
280 4 10.7996 5.01649 16.7729
276 2 5.94739 8.71302 16.9887
255 2 8.60959 5.30573 13.5203
287 1 6.85174 8.50541 13.3152
288 2 5.94853 7.81902 13.3061
251 1 9.44246 5.30256 12.7561
257 2 9.61104 6.25988 12.1667
90 2 7.35873 5.6383 9.23975
300 2 1.80965 11.0796 9.72808
331 3 10.9172 4.79935 15.2511
158 1 4.12008 5.52048 11.1922
309 2 5.16575 11.4853 13.9124
168 2 7.62219 11.3034 8.77992
226 2 7.78964 8.95166 17.5114
ITEM: TIMESTEP
200
ITEM: NUMBER OF ATOMS
331
ITEM: BOX BOUNDS xy xz yz pp pp pp
-8.4808679999999992e+00 1.5708700000000000e+01 -8.3350679999999997e+00
-2.0055999999999998e+00 1.3086800000000000e+01 -1.4580000000000001e-01
0.0000000000000000e+00 1.7524799999999999e+01 -2.0055999999999998e+00
ITEM: ATOMS id type x y z
1 4 -0.921498 1.86807 4.7507
2 4 0.10999 4.66468 3.24161
3 1 0.767044 1.23462 5.78838
174 2 -1.43765 5.09361 5.68225
5 1 2.04151 4.60843 3.34429
6 1 -0.490453 4.79109 1.42556
8 2 1.54108 2.11865 5.92649
9 2 1.12234 0.41116 5.14261
10 2 0.253833 0.90007 6.75202
312 2 5.98141 0.389696 2.91677
12 2 1.93925 3.45836 3.69027
13 2 2.8245 5.21681 3.9638
14 2 2.05599 4.83867 2.17099
182 2 -0.554655 4.89925 7.77052
16 2 -0.948745 3.91923 0.944769
17 2 0.248775 5.39563 0.745727
18 3 -0.370958 3.28825 3.97364
24 4 5.95048 1.80149 4.01979
45 1 4.31084 1.10737 3.25676
47 1 3.49243 0.984546 8.64899
263 4 4.36096 3.95921 1.35562
51 1 3.18824 3.41805 6.32113
78 2 3.98231 1.18775 2.15619
79 2 3.88507 2.30564 4.02684
80 2 3.93193 0.191598 3.79774
285 2 0.651767 0.821785 0.462281
82 2 3.79469 1.52406 7.62594
265 2 3.2655 3.26146 2.39115
154 1 -2.61953 5.27128 5.54498
15 2 -1.3796 5.58856 1.96243
93 2 3.80514 2.42895 6.60302
94 2 2.70396 3.43471 5.3179
95 2 2.43543 3.8128 7.35212
117 3 6.24213 1.45973 5.47837
321 2 5.29429 0.366179 1.11108
162 2 3.06829 -0.459679 7.35677
266 3 5.14524 2.91072 0.486483
267 3 3.79537 5.21343 0.783848
283 1 1.73589 1.25169 0.395301
175 2 -3.00139 4.47987 4.81444
311 2 1.05674 3.96475 0.527112
286 2 1.93485 1.70659 1.43796
32 4 4.06454 5.08188 6.5641
7 2 0.488631 6.02238 4.42425
176 2 -3.17082 5.37147 6.52703
46 1 6.04464 0.133281 0.276119
59 2 -1.76545 1.94945 8.28247
322 2 7.1248 -0.0799418 0.784848
19 4 1.27079 0.729735 16.9191
21 4 2.3877 -0.969164 12.508
22 4 1.18371 1.5598 11.417
23 4 -0.674617 2.63787 13.684
25 4 5.71759 -0.224885 16.9073
27 4 4.28336 1.66582 10.1996
29 4 3.70364 0.63603 14.8449
149 4 -0.1953 5.0701 10.0526
34 4 -0.122835 4.44323 16.1944
44 1 -1.45318 1.07651 14.4926
48 1 5.35976 0.335326 11.0722
58 2 -0.200818 0.736103 15.9867
60 2 -2.23356 2.93446 12.8762
75 2 -1.8864 1.17771 15.5296
62 2 -1.17814 3.95209 17.4397
170 2 -0.528214 3.32644 9.94239
76 2 -0.551403 0.361198 14.3308
84 2 5.74149 -0.499259 10.3643
85 2 4.81891 -0.0604547 11.9406
171 2 2.75102 3.56178 12.2311
112 3 0.00272141 1.79463 9.9494
113 3 1.38862 -0.0705804 11.5291
114 3 0.420093 2.17962 12.6448
116 3 2.66436 2.28389 11.2117
119 3 3.10446 0.00221795 13.5279
120 3 4.88838 -0.438442 15.5055
121 3 2.47069 0.986844 15.9618
122 3 5.16446 2.88093 9.66451
125 3 4.56 1.88696 14.2753
126 3 -0.379006 3.53118 14.9359
20 4 -1.18701 0.865771 9.41056
284 2 2.46347 -1.42424 17.522
326 2 6.83558 -1.03067 11.8788
150 4 2.33982 5.19103 11.8026
198 3 1.34536 5.19478 10.536
83 2 2.3581 0.92468 8.90718
86 2 6.24049 0.910578 11.3731
127 3 1.24938 4.53389 16.8077
81 2 4.01382 -0.0857487 8.82779
161 2 -7.76083 11.9266 6.28183
143 4 -6.1053 11.4924 6.37003
144 4 -2.38625 6.83217 4.57923
146 4 -2.65857 9.23641 6.4604
219 2 -5.92555 9.71944 3.1525
57 1 -5.24451 7.21766 8.48537
184 2 -1.30982 6.63135 8.35622
230 2 0.186517 8.83246 5.59378
163 2 -3.56157 6.83461 3.37644
164 2 -0.75149 7.19597 3.78132
166 2 -4.35794 9.59274 6.68825
167 2 -2.01451 10.6722 5.7256
169 2 -5.62095 11.6411 4.84563
328 2 -4.72214 8.12125 8.09127
234 2 -0.463561 10.5036 6.47795
183 2 0.520959 6.54206 8.11112
218 2 -7.18728 11.6055 1.9065
192 3 -2.67384 8.01113 5.51369
193 3 -5.88309 10.003 6.7139
199 3 -2.02042 8.90417 7.79952
206 4 -2.47248 10.0611 2.15296
207 4 0.220383 10.021 4.01791
213 1 -4.00719 10.1514 3.18526
214 1 0.565072 7.90966 4.81225
215 1 -0.075444 11.0577 5.60335
220 2 -2.30436 11.3655 1.01298
221 2 -2.48435 8.8451 0.837617
227 2 -3.90118 10.4099 4.26755
228 2 -4.22506 8.93603 2.92605
229 2 -4.6068 10.8647 2.5488
231 2 1.5763 8.17397 4.15685
232 2 0.783898 7.07344 5.51502
235 2 -0.804316 11.8596 5.22595
242 3 -1.21997 10.0312 3.01888
291 1 2.68133 7.63589 1.69548
325 2 -3.16351 7.31121 0.149792
157 1 -0.412017 5.97384 8.42525
294 2 1.52062 7.77553 1.57703
303 2 -4.86168 9.1485 0.900571
30 4 3.05038 6.79677 0.102404
293 2 3.01158 6.83817 2.44399
168 2 -7.94609 11.4016 8.5034
301 1 -4.19764 8.77847 0.0242776
272 2 1.24709 8.09055 16.9687
64 2 -0.897733 5.95756 15.7836
115 3 -6.663 11.0113 13.3602
145 4 -2.23991 6.4074 12.3245
148 4 -4.84305 9.85251 10.6864
151 4 -2.06342 9.88371 9.30782
274 2 -1.03009 8.98345 16.9525
261 2 -7.87591 10.4281 16.4716
155 1 -1.23939 6.7004 13.9881
156 1 -4.87817 8.26167 11.821
275 2 -0.565293 7.99334 15.4005
320 2 -2.76084 10.3502 17.0561
165 2 -2.91378 7.89744 11.7249
319 2 -6.06201 8.23599 12.0026
188 2 -1.75537 10.5095 13.005
177 2 -0.968024 7.81606 13.6355
178 2 -0.519401 5.80389 13.7921
179 2 -2.16722 6.54624 14.6702
180 2 -4.50645 7.30071 11.2556
181 2 -4.35366 8.44489 12.8755
153 4 -0.14315 9.71086 11.6981
194 3 -3.40012 5.53768 12.9149
273 2 -0.0136798 10.0859 15.4534
195 3 -6.07389 9.75584 9.62789
196 3 -4.74454 11.1485 11.6565
197 3 -1.28904 5.76915 11.2151
200 3 -1.80886 11.4671 9.08564
201 3 -3.49342 9.67561 9.98302
202 3 1.94 6.11853 13.0775
203 3 -0.829037 9.36964 10.2995
302 2 -3.96931 7.44861 16.7825
329 2 -4.59476 6.65048 9.24293
159 1 -0.918999 11.3009 12.4403
152 4 1.71911 7.91231 13.4498
262 2 -5.93928 10.2723 16.1119
270 1 -0.21824 8.84543 16.2039
204 3 0.7988 8.78297 12.5739
172 2 1.23195 8.10847 15.1089
259 1 -6.97956 9.861 15.9155
28 4 7.58789 1.52766 6.52395
31 4 6.38956 3.73507 8.50829
35 4 9.87649 1.46932 4.32697
37 4 12.0885 1.21312 6.30611
40 4 10.3213 4.03446 2.57376
296 2 10.2312 0.0603083 1.64079
264 2 5.3872 4.40653 2.64953
55 1 11.0553 3.89754 0.633333
281 2 10.2163 5.58708 0.0958741
65 2 9.27898 0.232184 3.25044
69 2 9.99943 5.54274 3.50916
70 2 9.31728 4.02363 1.04769
49 1 6.94495 3.2699 3.02368
89 2 7.13837 4.17866 3.67714
87 2 6.62999 3.58926 1.99239
88 2 7.85726 2.6112 3.02113
106 2 11.6455 2.95098 0.929062
107 2 12.0233 4.30809 2.29749
108 2 9.22244 4.76256 5.09162
118 3 7.78336 0.244708 7.38034
123 3 7.33569 2.7509 7.63976
124 3 5.33225 5.02212 7.40756
128 3 8.79449 1.75902 5.44583
129 3 14.95 -0.500132 8.63167
131 3 13.549 2.06099 5.76182
132 3 11.1859 0.740602 4.6928
133 3 12.5487 -0.264229 6.8916
137 3 10.0984 2.73651 3.47598
139 3 11.5288 2.0733 7.51173
140 3 10.438 4.43204 8.01967
316 2 13.345 0.29962 3.70265
96 2 4.70404 5.24751 4.38823
330 2 13.1083 1.10123 0.616788
4 1 14.4469 0.508032 3.51279
315 2 15.1772 -0.31241 3.84381
41 4 11.0945 3.03982 8.66847
11 2 14.6267 0.899887 2.47645
56 1 9.43158 5.82898 5.37269
323 2 8.37092 0.555037 1.58699
105 2 11.6876 4.61201 0.0877746
110 2 8.23563 5.68896 6.8269
187 2 4.51339 4.33942 10.7745
309 2 13.6704 -1.30319 14.2559
33 4 5.48199 3.11329 13.9093
36 4 9.5044 1.32132 10.687
38 4 8.65381 0.58665 15.7479
39 4 12.2049 -0.08087 11.2062
50 1 7.42107 4.76993 9.59211
53 1 7.2936 2.47542 13.371
54 1 9.40291 -0.552452 14.5969
327 2 8.11352 -1.19877 13.1788
63 2 4.79338 3.86755 12.4349
66 2 8.56506 2.11353 11.8878
67 2 8.38622 2.08621 15.0252
68 2 12.6979 -0.784467 12.7421
310 2 12.119 -0.429133 14.8028
77 2 13.3789 0.973479 13.6357
91 2 8.51234 4.3806 9.30222
92 2 7.05566 4.45549 10.6483
99 2 6.91901 2.717 12.1854
100 2 7.01566 1.43172 13.8632
101 2 7.78333 3.37664 14.0028
102 2 10.5502 -0.931752 14.6132
103 2 9.15956 0.300397 13.5919
104 2 8.65232 -1.44416 14.6796
130 3 8.3761 0.413361 10.0751
134 3 7.20381 0.199175 16.3269
135 3 13.3261 0.639482 10.4306
136 3 10.7509 0.593616 11.3632
138 3 10.0076 2.40972 9.70979
141 3 5.61452 4.35977 15.0027
249 4 10.9994 4.63965 13.6051
250 1 11.5504 2.73886 13.2225
304 1 13.5733 -1.58984 17.4378
71 2 12.4008 3.59045 9.59903
253 2 11.9456 2.69959 12.1599
254 2 10.5666 2.18002 13.2229
313 2 9.88946 0.889395 17.1094
256 2 9.32023 4.62431 11.981
306 2 14.2448 -0.989785 16.7094
252 2 12.1798 2.54117 14.0747
307 1 12.5832 -1.38485 14.5995
26 4 7.95686 -0.578227 8.80176
109 2 8.82598 6.51379 4.81469
42 4 9.94072 5.80261 7.39062
147 4 8.68455 9.94698 8.37997
98 2 3.40758 6.6436 4.36858
97 2 5.16414 6.94367 4.96688
297 2 0.489676 11.7129 1.81155
224 2 6.06023 6.50774 7.64459
299 2 0.821926 10.2392 8.70792
72 2 10.6686 6.14085 5.26897
205 4 8.11446 9.915 2.64446
208 4 5.47698 12.0262 7.18668
209 4 3.34649 10.8879 3.47556
210 4 6.2917 8.22781 7.53674
211 4 5.85437 10.1384 5.02519
212 1 7.47423 10.5587 0.993203
216 1 3.90149 10.6034 1.68997
324 2 1.40806 11.6521 7.58584
295 1 0.776514 12.829 1.34897
222 2 4.89455 10.5252 7.85621
223 2 3.50194 12.5431 3.89818
317 2 6.44705 10.7485 1.15805
225 2 7.81968 8.87371 1.06297
244 3 7.65772 8.72597 8.08292
298 1 1.12478 11.3236 8.62523
233 2 0.904392 11.526 5.82275
292 2 3.23202 8.68193 1.82399
236 2 4.81414 9.88482 1.78278
237 2 4.18111 11.7299 1.53823
238 2 3.10688 10.2252 0.93652
243 3 1.78286 10.4394 3.5671
245 3 6.93667 9.94355 3.80666
246 3 4.35857 10.1332 4.39885
247 3 5.91274 8.8332 6.09815
248 3 6.35281 11.8055 5.89128
240 2 3.96018 9.1141 8.3243
52 1 4.32541 6.23027 4.91059
226 2 7.94299 11.0135 0.0234026
61 2 3.34688 6.68573 6.54424
305 2 5.89569 12.5877 0.451417
43 4 5.45664 5.49051 16.0696
73 2 6.05759 6.93137 15.4674
158 1 4.16336 5.32011 11.2464
142 3 4.05729 5.66038 16.7225
282 2 9.55855 6.4028 17.4696
160 1 3.42781 8.50408 13.2617
173 2 0.757606 11.2682 11.4746
185 2 4.83254 5.75402 12.0646
239 2 4.85074 7.94703 9.52684
268 4 1.16999 9.90976 17.2725