ITEM: TIMESTEP
0
ITEM: NUMBER OF ATOMS
331
ITEM: BOX BOUNDS xy xz yz pp pp pp
-8.4808679999999992e+00 1.5708700000000000e+01 -8.3350679999999997e+00
-2.0055999999999998e+00 1.3086800000000000e+01 -1.4580000000000001e-01
0.0000000000000000e+00 1.7524799999999999e+01 -2.0055999999999998e+00
ITEM: ATOMS id type x y z
1 4 -0.788204 1.99368 4.48997
2 4 -0.199444 4.31342 2.19687
3 1 0.0886467 2.91861 5.92223
174 2 -2.54644 5.39509 7.47064
5 1 1.69371 4.7642 3.4647
6 1 -1.65562 5.81438 1.79059
8 2 0.663547 3.88594 5.61426
9 2 0.811142 1.98769 6.12556
10 2 -0.810745 3.04275 6.69019
11 2 1.28377 0.296851 4.07736
12 2 1.53314 4.01545 1.76141
13 2 1.04317 4.33945 4.39039
14 2 2.78262 4.86005 3.82987
263 4 4.28785 4.32465 1.43474
16 2 -2.55957 5.41594 2.36551
17 2 -1.32292 4.66731 0.611418
18 3 -0.771239 3.17429 3.08754
24 4 4.98879 1.23599 4.34141
45 1 3.20906 2.12027 4.6917
47 1 3.58016 0.576372 8.43032
176 2 -1.88954 3.89913 6.67404
7 2 1.28279 5.79922 3.20542
78 2 2.68647 3.08592 4.19156
79 2 3.79354 2.38332 5.80025
80 2 2.46394 1.30878 4.78116
46 1 6.25478 0.252946 0.362963
82 2 4.07361 1.00963 7.58375
51 1 2.52991 5.51129 7.00779
163 2 -3.27379 5.10925 5.35565
154 1 -2.12858 4.98607 6.52168
93 2 2.55955 4.56883 7.65403
285 2 2.51134 1.76344 0.609899
265 2 3.07501 3.72115 2.51003
117 3 5.84459 0.624282 5.54749
284 2 0.577603 2.13214 0.959102
321 2 5.51921 0.460204 1.29115
94 2 2.10687 5.20035 5.90237
267 3 3.66005 5.615 0.74846
266 3 4.99388 3.17527 0.672527
96 2 4.10314 3.93127 4.62267
4 1 0.165247 0.379422 3.97592
312 2 3.51695 0.392468 3.84448
162 2 2.60582 -0.105337 6.88846
170 2 -0.743796 5.33904 7.90511
316 2 -0.150821 0.471038 2.87074
87 2 5.58398 2.42188 2.19114
175 2 -0.499894 5.64278 6.078
283 1 1.38527 1.79033 0.144886
15 2 -0.561023 6.1749 2.57617
83 2 2.47705 0.786212 8.523
49 1 6.13437 2.07492 3.18564
19 4 1.57126 1.01411 16.363
21 4 2.45326 -1.15975 13.0224
22 4 1.1989 1.25983 11.5574
23 4 -0.995004 2.49783 13.5818
25 4 6.11213 -0.0123232 17.269
27 4 4.08292 1.50773 10.0066
29 4 4.35676 0.481165 14.6575
150 4 2.61419 5.21624 11.0141
81 2 4.0048 -0.423088 8.83419
127 3 1.2136 4.27888 16.6058
48 1 5.38465 0.532793 11.0113
58 2 0.138525 0.615647 15.4878
44 1 -1.53271 0.896334 14.3951
34 4 -0.374631 4.35423 16.0838
75 2 -0.777327 0.0835349 14.122
198 3 1.47385 5.35045 9.71946
311 2 1.35458 2.74118 16.582
84 2 5.83436 -0.35179 10.263
85 2 4.83566 0.0758409 12.0401
171 2 2.44801 3.53798 11.2827
112 3 0.531078 0.274178 10.028
113 3 1.58605 0.112125 12.5498
114 3 0.113332 2.28434 12.362
116 3 2.56164 1.93474 11.2485
119 3 4.13891 -0.593834 13.4537
120 3 5.53821 -0.0315289 15.7154
121 3 2.97223 0.72974 15.5576
122 3 4.97217 2.69855 9.47593
125 3 4.88328 1.86194 14.0122
126 3 -0.734997 3.33451 14.9353
286 2 0.968585 -1.14287 17.0618
59 2 -0.820489 2.47142 9.48957
60 2 -2.56356 3.06331 12.8784
20 4 -0.970018 0.787891 9.60973
77 2 -1.77634 1.05463 15.4898
326 2 7.45555 -1.09015 12.4046
62 2 -1.42911 4.26826 17.418
95 2 1.86255 6.38381 7.54853
143 4 -6.50324 11.4709 6.49519
144 4 -2.00134 6.50939 5.29422
146 4 -2.60664 9.23681 6.9164
294 2 1.5784 8.29148 0.973815
300 2 0.206598 10.0444 7.9775
231 2 1.89072 8.20943 4.76012
322 2 -0.903492 12.9725 0.789189
317 2 -5.56398 9.72109 3.82678
235 2 -1.3707 11.5265 5.1306
166 2 -4.22859 9.75713 7.16214
167 2 -1.91625 10.5436 5.97635
169 2 -6.28235 11.2087 4.79035
164 2 -2.06766 6.58686 3.51459
230 2 0.233261 8.69126 5.86074
234 2 0.0790101 10.9889 6.29745
183 2 -0.324644 7.38433 7.56945
192 3 -2.42431 7.86299 6.05421
193 3 -5.83584 10.2495 7.29296
199 3 -1.92316 9.09776 8.29104
206 4 -1.87942 9.12384 1.33541
207 4 0.294002 9.8188 3.91721
213 1 -3.23336 10.262 1.04355
214 1 0.759823 8.25705 4.78355
215 1 -0.265317 11.2001 5.16513
184 2 1.4218 7.87719 8.17239
221 2 -2.37872 7.26381 1.18515
227 2 -4.06342 9.38843 1.61198
242 3 -0.872197 9.57043 2.5089
229 2 -2.97797 11.2264 1.69026
157 1 0.425846 7.58658 8.47915
232 2 0.21073 7.26063 4.41508
328 2 -5.92286 8.48882 7.3716
261 2 -7.04851 10.1312 16.3939
64 2 -0.727469 5.94627 15.5107
115 3 -6.81907 11.0807 14.3275
145 4 -1.94304 6.29042 12.2243
148 4 -5.05446 9.65463 10.914
151 4 -2.05556 10.1709 9.70369
200 3 -1.85795 11.685 9.13942
153 4 -0.0671268 9.79823 12.0555
155 1 -1.19174 7.03658 13.8765
156 1 -4.85695 7.97856 11.9215
274 2 -0.867357 10.8451 16.4896
182 2 -0.163047 8.24854 9.26279
165 2 -2.07224 8.08518 12.6572
149 4 0.0229263 5.9417 9.34955
258 4 -7.1878 9.55837 14.1548
177 2 -0.455694 7.64371 14.3811
178 2 -0.606578 5.60259 13.5422
179 2 -2.09263 6.87281 14.5733
180 2 -4.05109 7.56194 11.2326
181 2 -4.49901 8.03345 12.9741
220 2 -1.30017 7.39146 17.3165
188 2 -1.32338 10.3078 13.2348
194 3 -3.2437 5.57016 12.4902
195 3 -6.23038 9.41826 9.87157
196 3 -5.57212 10.7892 11.8663
197 3 -1.00948 6.06542 10.5785
147 4 -7.16708 10.3251 8.85458
201 3 -3.51379 9.96086 10.31
202 3 2.27425 6.1452 12.3267
203 3 -0.866961 9.70181 10.6462
168 2 -7.3986 11.8358 9.62997
275 2 -0.220738 9.07121 15.7913
204 3 0.960289 8.70033 12.626
260 2 -5.84592 8.73524 13.4574
303 2 -4.88323 6.21335 17.0893
320 2 -2.68656 10.7499 17.0228
30 4 2.97969 4.89526 17.4492
172 2 1.53094 7.35502 14.7456
270 1 -0.107697 10.2384 15.7679
228 2 -3.59311 8.43888 17.4543
28 4 7.28279 1.16415 6.3788
31 4 5.99018 3.45986 8.39607
35 4 9.52791 1.94107 4.17063
37 4 12.0608 1.43135 5.93869
40 4 10.8761 4.06609 2.49523
330 2 13.0333 1.42341 0.475557
105 2 12.0971 3.35943 0.636463
55 1 12.0104 2.80011 1.57944
56 1 7.87629 5.02675 5.49318
65 2 9.31761 0.711973 2.99742
69 2 11.6889 5.05718 3.64825
70 2 10.2034 5.46306 1.48188
313 2 10.4207 2.27212 0.50932
89 2 6.31416 2.96169 3.84722
296 2 9.06682 0.693221 0.532078
32 4 4.25832 5.61076 6.4484
106 2 11.4948 1.75737 1.61835
107 2 12.934 2.9898 2.39466
108 2 7.94863 3.91262 5.47177
118 3 8.0481 -0.0425608 7.13059
123 3 6.76196 2.43116 7.40623
124 3 5.08458 4.72336 7.4948
128 3 8.287 1.91101 5.23199
129 3 14.2879 0.242145 8.12393
131 3 13.4701 1.63113 5.11503
132 3 10.8529 1.58623 4.99109
133 3 11.9946 -0.406375 6.48883
137 3 9.7354 3.31215 3.37136
139 3 11.9869 2.40953 7.26851
140 3 10.2422 4.3328 7.37088
42 4 9.56722 5.54291 6.56896
264 2 5.29816 4.83288 2.74703
26 4 8.10397 -0.588073 8.62902
97 2 5.80987 4.78769 4.29817
109 2 6.97116 5.36241 4.84318
41 4 11.0174 3.20224 8.23619
110 2 7.61066 5.42955 6.71999
88 2 7.06518 1.42703 3.05669
52 1 4.67522 5.03432 4.57311
98 2 4.19831 5.81156 3.94594
72 2 9.55939 5.58997 4.78555
237 2 12.7859 -0.326467 3.46832
315 2 15.361 -0.48581 4.48963
309 2 13.6688 -1.46567 14.144
68 2 12.4404 -0.742982 12.7116
33 4 5.84596 3.19777 13.9115
36 4 9.73891 1.36309 10.3742
38 4 9.15313 1.06494 16.9793
39 4 12.2543 -0.213034 11.0985
50 1 7.27162 4.25614 9.49925
53 1 7.37418 3.11348 12.4732
54 1 9.39919 0.18174 15.3887
306 2 14.4397 -0.819309 16.7712
63 2 5.76724 3.92421 12.3002
66 2 8.96448 2.30936 11.6269
67 2 9.34247 2.83916 17.2824
71 2 11.9856 4.26687 9.13062
281 2 8.54063 4.47026 16.5234
327 2 8.75345 -0.81188 13.7422
90 2 6.90676 5.35834 9.47045
92 2 7.41621 3.8564 10.5959
99 2 8.20223 3.87941 12.2119
100 2 7.23515 2.18116 11.7159
101 2 7.77553 2.58037 13.9086
102 2 10.5958 0.313217 15.3366
103 2 8.71713 0.913027 14.7417
104 2 8.9473 -0.956369 15.5384
130 3 8.63973 0.350245 9.72633
134 3 7.69118 0.512415 17.4548
135 3 13.5839 0.530087 10.7137
136 3 10.9779 0.601809 10.933
138 3 10.2563 2.42446 9.29236
141 3 5.88598 4.41884 15.0253
249 4 10.9014 4.69093 12.9397
250 1 11.1963 2.78032 13.061
187 2 4.78744 4.78337 10.604
252 2 11.8068 2.5148 13.9356
253 2 11.6532 2.42271 12.1261
254 2 10.1306 2.33152 13.1363
304 1 13.6212 -1.38243 17.3537
256 2 9.31615 4.23774 10.832
76 2 13.128 0.888209 13.6818
302 2 11.2242 4.34729 17.045
91 2 8.19596 4.15579 8.82328
310 2 11.7748 -1.1636 14.2449
251 1 9.70017 5.09104 11.5289
301 1 10.1509 4.46178 17.412
86 2 6.23269 1.3526 11.3518
222 2 4.65468 11.0531 8.44964
218 2 9.79219 8.0854 5.63862
57 1 9.59942 7.32611 7.41692
61 2 4.56956 7.3229 6.68879
299 2 1.4561 11.3046 7.40613
226 2 8.8344 8.87471 2.4577
298 1 0.859176 10.9161 8.20256
244 3 7.21445 9.60141 8.60048
248 3 5.92783 11.4493 6.14554
205 4 8.39736 8.4451 4.60746
212 1 9.03335 9.73847 3.45372
209 4 3.54506 10.6593 3.78463
247 3 4.83774 8.88048 6.99129
211 4 5.65785 9.65395 5.59702
243 3 1.99298 10.3585 3.48383
216 1 4.21367 11.9751 2.61747
111 2 8.49414 7.14305 7.70216
219 2 8.09994 6.69077 4.49533
245 3 7.09926 9.03302 5.24892
223 2 3.4231 11.7567 5.13855
325 2 10.1889 6.95753 0.784887
208 4 5.11796 12.2381 7.26802
210 4 5.91273 8.80897 8.55779
297 2 1.92065 12.4222 2.03225
233 2 0.346015 11.984 4.54237
295 1 0.897582 12.3926 1.50525
236 2 5.1707 11.5903 2.10973
246 3 4.58097 9.53076 4.23749
238 2 3.33695 12.3077 1.88704
292 2 3.34675 9.02736 1.03256
161 2 7.47688 11.6576 6.57269
272 2 1.19974 10.7665 0.812489
305 2 5.86322 12.861 0.50635
225 2 8.51616 10.7126 3.36389
323 2 0.0982905 12.3191 2.32337
329 2 10.3466 6.86279 8.19445
291 1 2.67621 8.1352 1.29106
293 2 2.86593 7.59959 2.27969
43 4 5.47581 5.55929 15.9651
73 2 5.69222 7.05094 15.2453
255 2 8.84357 5.6579 12.0974
142 3 3.9446 5.55172 16.3919
74 2 6.5459 5.59457 17.2717
160 1 3.77991 8.27098 12.9862
159 1 0.0568332 11.5777 12.8474
185 2 4.51049 6.58564 11.3354
276 2 5.73134 8.54996 17.0373
282 2 8.7275 7.16729 15.7017
189 2 3.48425 9.21847 12.4777
190 2 4.37996 7.51204 12.3145
191 2 4.01208 8.27015 14.0753
217 1 4.69896 9.67102 9.84642
239 2 4.69588 8.53389 10.4237
262 2 8.89623 8.38517 16.9182
241 2 5.35758 10.4747 10.401
240 2 3.65184 9.98868 9.49525
257 2 10.2722 5.82471 10.8449
307 1 4.31387 11.1791 14.2748
259 1 8.36032 9.03661 16.1583
269 4 4.38358 10.5317 16.2741
271 1 5.16761 8.66259 16.1425
158 1 4.28279 5.82718 10.5364
318 2 7.16894 8.90704 16.1565
277 2 5.86537 8.8114 15.073
278 2 4.30022 7.92061 15.9674
279 3 2.84816 10.3254 16.6908
280 4 9.70134 5.69366 15.8187
186 2 4.19754 6.21128 9.48933
268 4 1.30132 10.1631 17.0897
287 1 6.84979 9.21393 13.3447
288 2 6.55757 8.15654 13.5116
289 2 7.24437 9.42476 12.2703
290 2 5.88974 10.0585 13.7663
152 4 2.05513 7.55646 13.1596
308 2 4.11743 10.1327 13.7098
314 2 3.65551 11.3638 10.3363
331 3 10.3238 5.20982 14.3858
273 2 0.0358354 10.7497 14.6744
324 2 1.44951 10.8227 9.22441
319 2 9.89853 7.34938 11.7793
224 2 6.37498 7.2166 8.78586
173 2 1.02624 11.5806 11.8417
ITEM: TIMESTEP
100
ITEM: NUMBER OF ATOMS
331
ITEM: BOX BOUNDS xy xz yz pp pp pp
-8.4808679999999992e+00 1.5708700000000000e+01 -8.3350679999999997e+00
-2.0055999999999998e+00 1.3086800000000000e+01 -1.4580000000000001e-01
0.0000000000000000e+00 1.7524799999999999e+01 -2.0055999999999998e+00
ITEM: ATOMS id type x y z
1 4 -0.854761 2.14329 4.5108
2 4 -0.239708 4.31205 2.22479
3 1 0.0939502 3.05344 5.92795
322 2 7.3549 0.0351946 0.953798
5 1 1.63285 4.62756 3.49051
6 1 -1.2472 5.94999 1.74141
8 2 0.692508 4.09485 5.99806
9 2 0.719594 2.04708 6.12322
10 2 -0.770598 3.12889 6.68449
11 2 1.3428 0.783398 4.37128
12 2 1.53137 3.63471 2.0642
13 2 1.04587 4.09558 4.47683
14 2 2.77866 4.71467 3.86252
263 4 4.36359 4.39607 1.4736
16 2 -2.24345 5.8715 2.16313
17 2 -0.865928 4.64517 0.541972
18 3 -1.00959 3.21168 3.08736
24 4 5.00297 1.2947 4.37428
45 1 3.21039 2.0831 4.9211
47 1 3.3086 0.603385 8.54548
176 2 -1.77948 4.05487 6.78039
7 2 1.22662 5.7023 3.17685
78 2 2.70443 2.97884 4.39495
79 2 3.84234 2.43937 5.94789
80 2 2.44076 1.21445 5.15073
46 1 6.28941 0.383032 0.480266
82 2 3.92036 1.10846 7.6076
51 1 2.59672 5.37243 6.87201
163 2 -3.54072 5.22259 5.68606
154 1 -2.07767 5.18565 6.63899
93 2 2.59593 4.36027 7.38919
285 2 2.18775 2.25422 0.936138
265 2 3.21285 3.81597 2.56924
117 3 5.82918 0.501933 5.42992
284 2 0.308194 1.85631 0.576464
321 2 5.41238 0.409239 1.18517
94 2 2.15593 5.36254 5.79802
267 3 3.64315 5.4736 0.591763
266 3 5.09197 3.28496 0.795248
96 2 4.13403 3.86164 4.65446
4 1 0.336639 0.731496 3.94024
312 2 3.46994 0.637043 3.701
162 2 2.65403 -0.192692 6.85729
170 2 -0.576979 5.28104 7.96492
316 2 0.392823 0.588202 2.82766
87 2 5.70605 2.58936 2.33106
83 2 2.1622 0.584584 8.4896
283 1 1.30985 1.77757 0.2109
49 1 6.23424 2.0968 3.25969
174 2 -2.32702 5.64926 7.57638
19 4 1.56048 0.929692 16.3193
21 4 2.41845 -1.12374 13.1662
22 4 1.06783 1.12922 11.568
23 4 -0.939373 2.36792 13.5638
25 4 6.06805 0.105017 17.2651
27 4 4.04547 1.55296 10.0031
29 4 4.3881 0.555956 14.8025
150 4 2.55144 5.18303 11.0057
81 2 3.76615 -0.440162 8.93662
127 3 1.00437 4.25499 16.6985
48 1 5.19628 0.484819 11.1387
58 2 0.402987 0.234364 15.2324
44 1 -1.35005 0.661164 14.426
34 4 -0.336047 4.33329 16.0268
75 2 -0.601081 -0.00998488 13.9077
198 3 1.39706 5.15024 9.87702
311 2 1.23893 2.60231 16.6841
84 2 5.62214 -0.365499 10.4156
85 2 4.67475 0.0399718 12.0894
171 2 2.48653 3.55751 11.6452
112 3 0.445576 0.411775 10.0165
113 3 1.44651 -0.0806446 12.5232
114 3 0.0682443 1.99206 12.4546
116 3 2.53926 2.07009 10.9812
119 3 4.07909 -0.489794 13.6866
120 3 5.5492 -0.179711 15.7342
121 3 2.99325 0.745485 15.6704
122 3 4.9677 2.68193 9.31847
125 3 4.98184 1.94581 14.0818
126 3 -0.551024 3.30005 14.8252
286 2 1.38743 -1.22781 17.3119
59 2 -1.12382 2.51455 9.3216
60 2 -2.36402 3.0563 12.7767
20 4 -0.986192 0.85384 9.46415
77 2 -1.29191 0.725597 15.5641
62 2 -1.50691 4.08133 17.3283
86 2 6.04315 1.21706 11.427
95 2 2.13677 6.21782 7.46302
143 4 -6.40636 11.3738 6.48205
144 4 -2.24483 6.52218 5.31879
146 4 -2.61109 9.24574 6.86987
294 2 1.6279 7.98014 1.24475
300 2 0.311048 10.029 7.74647
231 2 1.77014 8.35297 5.48485
15 2 -0.323619 6.50758 2.38887
317 2 -5.50756 9.90429 3.60451
235 2 -1.38479 11.4986 4.98958
166 2 -4.22693 9.77301 7.11043
167 2 -1.85678 10.439 5.9045
169 2 -6.0302 11.0702 4.84981
164 2 -1.63431 6.24149 3.61059
230 2 -0.0972972 8.47789 5.71665
234 2 0.115002 11.1077 6.218
183 2 0.0364812 7.50351 7.71523
192 3 -2.438 7.9151 5.97288
193 3 -5.91375 10.2424 7.39455
199 3 -1.93876 9.19818 8.24472
206 4 -1.84845 9.16278 1.47463
207 4 0.467461 9.8395 3.86619
213 1 -3.10391 10.4503 0.883211
214 1 0.727692 8.31443 4.97787
215 1 -0.287933 11.2072 5.01156
184 2 1.7982 7.65229 8.49058
221 2 -1.50863 7.54653 0.737744
227 2 -3.40395 8.94142 2.16097
242 3 -0.740236 9.46394 2.58383
229 2 -3.10497 11.2478 1.66683
157 1 0.657612 7.55157 8.65228
232 2 0.587433 7.43549 4.30022
328 2 -5.95143 8.41514 7.52456
175 2 -0.579838 5.86324 5.9925
228 2 -4.0972 10.3459 0.401692
261 2 -6.8305 10.0133 16.6491
64 2 -0.662822 5.87932 15.4325
115 3 -6.80617 11.1706 14.5101
145 4 -1.86773 5.91072 12.1733
148 4 -5.10215 9.70352 11.063
151 4 -2.18556 10.0623 9.58358
200 3 -1.90016 11.6361 9.17294
153 4 -0.0550383 9.80236 12.1378
155 1 -1.26611 6.86609 13.7995
156 1 -5.05354 8.03717 12.0846
274 2 -0.696222 10.9351 16.4484
182 2 0.35199 8.23058 9.51719
165 2 -2.04298 7.78567 12.7034
149 4 0.0853476 5.93439 9.42977
258 4 -7.13861 9.63232 14.4163
177 2 -0.453462 7.53233 14.2824
178 2 -0.480807 5.34815 13.3682
179 2 -2.1008 6.5817 14.5265
180 2 -4.2235 7.559 11.4176
181 2 -4.80211 7.79877 13.1875
172 2 1.9016 6.94787 14.6421
188 2 -1.16318 10.3055 13.4577
194 3 -3.24228 5.26712 12.5206
195 3 -6.48177 9.52017 9.98412
196 3 -5.45187 10.8082 12.1355
197 3 -1.11834 6.00319 10.6452
147 4 -7.24419 10.3717 8.84049
201 3 -3.73333 9.93189 10.375
202 3 2.19567 6.22971 12.1913
203 3 -0.961434 9.68415 10.9052
168 2 -7.3842 11.9257 9.41353
275 2 -0.144072 9.09697 15.632
204 3 1.01455 8.73909 12.7382
260 2 -5.78757 8.58285 13.7962
303 2 -4.57279 6.17136 16.9038
320 2 -2.50852 10.8683 17.0202
30 4 2.86603 4.6995 17.3232
220 2 -2.1898 8.44054 17.3112
28 4 7.2779 1.27373 6.25174
31 4 6.06073 3.46387 8.28547
35 4 9.54979 2.07314 4.17577
37 4 12.0383 1.47191 5.9209
40 4 10.9558 4.11262 2.52746
330 2 13.1482 1.52426 0.574996
105 2 11.8851 3.54489 0.534351
55 1 11.9601 2.81512 1.61111
56 1 8.01495 5.10912 5.21993
65 2 9.248 0.840478 2.98273
69 2 11.954 5.01251 3.51843
70 2 10.2416 5.38074 1.48473
313 2 10.4263 2.49279 0.351596
89 2 6.61377 2.95719 3.88872
296 2 9.02259 0.61627 0.843213
32 4 4.35522 5.63374 6.35915
106 2 11.3795 1.86552 1.58476
107 2 13.0293 2.86295 2.2632
108 2 8.10064 3.98786 5.08995
118 3 7.88075 0.0920424 7.08045
123 3 6.7868 2.46673 7.33468
124 3 5.24134 4.76071 7.35919
128 3 8.22393 1.97509 5.12136
129 3 14.392 0.228741 8.02805
131 3 13.4215 1.61827 5.08837
132 3 10.7985 1.59163 4.91851
133 3 11.9941 -0.317596 6.72029
137 3 9.77435 3.30965 3.21002
139 3 11.947 2.32243 7.27762
140 3 10.3268 4.36661 7.40903
42 4 9.41705 5.6257 6.73634
264 2 5.29166 5.11401 2.69975
26 4 7.98649 -0.726826 8.45023
97 2 5.8319 4.89506 4.35866
109 2 7.13503 5.40217 4.4442
41 4 11.1471 3.30375 8.32369
110 2 7.44292 5.32708 6.72326
88 2 7.09245 1.3936 2.93589
52 1 4.63109 4.93882 4.51307
98 2 4.0628 5.64961 3.84622
72 2 9.58246 5.79693 4.85751
315 2 15.3684 -0.0738809 4.4336
309 2 13.6368 -1.33483 13.9386
68 2 12.4414 -0.888715 12.5701
33 4 6.05791 3.11373 13.9682
36 4 9.80419 1.32691 10.1566
38 4 9.10927 1.15376 16.8591
39 4 12.1957 -0.249706 11.0096
50 1 7.29793 4.15904 9.55356
53 1 7.46218 2.87642 12.4844
54 1 9.54496 0.217063 15.2958
306 2 14.2851 -0.80859 16.6109
63 2 6.06749 3.85791 12.2285
66 2 8.85937 2.12899 11.3705
67 2 9.40176 2.92767 17.0759
71 2 12.2519 4.09582 9.35304
281 2 8.62976 4.48381 16.5797
327 2 8.8876 -0.886117 13.732
90 2 6.95159 5.26273 9.5583
92 2 7.35804 3.65526 10.595
99 2 8.31236 3.58205 12.1614
100 2 7.26555 1.92318 11.9146
101 2 7.85004 2.48041 14.0771
102 2 10.7249 0.331486 15.4015
103 2 8.96478 0.958547 14.5865
104 2 9.02852 -0.875684 15.4309
130 3 8.73732 0.212259 9.48235
134 3 7.6238 0.758122 17.223
135 3 13.5418 0.292665 10.4526
136 3 10.9253 0.586558 10.8836
138 3 10.2071 2.50885 9.28385
141 3 5.80116 4.30646 14.9578
249 4 11.022 4.65023 12.8998
250 1 11.421 2.78462 12.9607
187 2 4.71396 4.75455 10.5536
252 2 12.0741 2.58165 13.9066
253 2 11.9026 2.45751 11.9522
254 2 10.3756 2.32414 13.1125
304 1 13.5568 -1.25007 17.3584
256 2 9.46918 4.09148 10.9506
76 2 13.2946 0.605781 13.9428
302 2 11.2734 4.11369 17.1253
91 2 8.25739 3.92576 8.93423
310 2 11.7817 -1.30517 14.4735
251 1 9.70912 5.00294 11.5014
326 2 7.5278 -0.893048 12.4058
222 2 4.58813 11.079 8.35165
218 2 9.62724 8.11559 5.85381
57 1 9.69005 7.28711 7.59626
61 2 4.76915 7.3021 6.40496
299 2 1.58746 11.34 7.27567
226 2 8.77744 8.96772 2.45421
298 1 0.878657 10.906 8.05046
244 3 7.10182 9.55705 8.67873
248 3 5.96882 11.5643 6.0494
205 4 8.41191 8.44573 4.62134
212 1 9.11279 9.74947 3.4644
209 4 3.47596 10.8572 4.05735
247 3 5.00244 8.83937 7.12518
211 4 5.72952 9.7239 5.59397
243 3 1.97453 10.2897 3.59649
216 1 4.0371 11.9426 2.64303
111 2 8.55538 7.08166 8.21628
219 2 8.09978 6.72232 4.15788
245 3 7.10989 9.05867 5.2148
223 2 3.15606 11.8357 5.47948
325 2 10.5877 7.35247 0.760608
225 2 8.44669 10.706 3.54274
210 4 5.68645 8.76102 8.54439
297 2 1.78451 12.5684 2.25519
233 2 0.435468 12.0335 4.4755
295 1 0.836412 12.5753 1.55913
236 2 4.62668 11.1278 1.98083
246 3 4.57201 9.72248 4.48962
238 2 3.16838 12.4465 2.09975
292 2 3.29684 8.94561 0.644963
161 2 7.57778 11.4654 6.47736
272 2 1.32679 10.8485 0.929071
293 2 3.33964 7.63226 2.10715
291 1 2.77587 7.98434 1.15279
323 2 -0.12124 12.315 2.09072
329 2 10.5987 6.89478 8.22055
237 2 4.72252 12.7115 3.22943
305 2 5.88374 12.7582 0.472301
208 4 5.08417 12.2615 7.19121
43 4 5.38662 5.4087 15.9032
73 2 5.88074 7.02856 15.2955
255 2 8.82203 5.33791 12.1012
142 3 3.82806 5.45017 16.2528
74 2 6.40932 5.53532 17.2264
160 1 3.77902 8.39971 12.7044
173 2 1.18849 11.5466 11.8924
185 2 4.52588 6.71429 11.0951
276 2 6.00426 8.59553 17.1007
282 2 8.85562 7.14356 15.6292
189 2 3.3103 9.43003 12.3683
190 2 4.50528 7.97014 11.9653
191 2 4.15338 8.34232 13.7807
217 1 4.33019 9.63015 9.68412
239 2 4.21542 8.5225 10.2897
262 2 9.07733 8.17366 16.8984
241 2 4.95504 10.3921 10.281
240 2 3.3231 10.0683 9.33954
257 2 10.1143 5.8032 10.8346
307 1 4.3973 11.149 14.3034
259 1 8.55533 8.96332 16.2729
269 4 4.37099 10.6417 16.2502
271 1 5.31951 8.72553 16.121
158 1 4.1916 5.81552 10.3815
318 2 7.29737 8.853 16.3486
277 2 5.92885 8.84927 15.1197
278 2 4.42297 8.03049 16.1833
279 3 2.7739 10.3708 16.7225
280 4 9.85433 5.69617 15.8146
186 2 4.05048 6.19366 9.27827
268 4 1.2747 9.98337 17.1529
287 1 6.97251 9.3081 13.4373
288 2 6.65384 8.18283 13.5384
289 2 7.31692 9.45685 12.4054
290 2 5.96523 10.0222 13.736
152 4 2.07996 7.62478 13.0706
308 2 4.16927 10.1549 13.671
314 2 3.55831 11.3665 10.2459
331 3 10.4177 5.15022 14.409
273 2 0.035421 10.807 14.6738
324 2 1.37332 10.7898 9.09192
319 2 9.6015 7.65705 11.8335
224 2 5.97157 7.13535 8.84208
270 1 0.0590856 10.3221 15.7519
159 1 0.103294 11.6173 12.8186
301 1 10.2779 4.54295 17.4803
ITEM: TIMESTEP
200
ITEM: NUMBER OF ATOMS
331
ITEM: BOX BOUNDS xy xz yz pp pp pp
-8.4808679999999992e+00 1.5708700000000000e+01 -8.3350679999999997e+00
-2.0055999999999998e+00 1.3086800000000000e+01 -1.4580000000000001e-01
0.0000000000000000e+00 1.7524799999999999e+01 -2.0055999999999998e+00
ITEM: ATOMS id type x y z
1 4 -0.913499 2.24651 4.58939
2 4 -0.215712 4.45723 2.30632
3 1 0.0327571 3.28176 5.92771
322 2 7.41753 0.164006 1.15053
5 1 1.77457 4.72881 3.47836
6 1 -1.31185 6.02957 1.61429
8 2 0.191588 4.37216 5.65287
9 2 0.985529 2.6295 5.90389
10 2 -0.533433 3.13593 6.96953
11 2 1.24118 0.753126 4.65846
12 2 1.50806 3.83141 1.93319
13 2 1.13904 4.15951 4.54017
14 2 2.85986 4.87351 3.88271
263 4 4.27706 4.36004 1.39081
16 2 -2.26703 5.66807 2.07118
17 2 -0.689173 4.58725 0.640978
18 3 -1.09161 3.42973 3.1003
24 4 5.10912 1.37807 4.31181
45 1 3.2633 2.15916 4.75823
47 1 3.18201 0.421436 8.5672
176 2 -1.90177 3.99089 6.82998
7 2 1.31015 5.84732 3.25329
78 2 2.76541 3.13885 4.25921
79 2 3.72496 2.33178 5.83508
80 2 2.49259 1.26877 4.8614
46 1 6.33677 0.630823 0.756316
82 2 3.39695 0.9745 7.59257
51 1 2.58836 5.39893 6.89484
163 2 -3.35632 4.97427 5.50859
154 1 -2.18983 5.02994 6.6056
93 2 2.48343 4.29685 7.25706
285 2 2.16948 2.13233 0.990019
265 2 3.21603 3.69262 2.55057
117 3 5.78825 0.594939 5.58611
284 2 0.240143 1.89071 0.510574
321 2 5.62201 0.734951 1.61526
94 2 2.14714 5.4999 5.80493
267 3 3.59996 5.46604 0.612364
266 3 5.08475 3.37343 0.63205
96 2 4.19824 3.9484 4.65891
4 1 0.204681 0.820498 4.07268
312 2 3.68001 0.586813 3.65745
162 2 2.64472 -0.330704 6.74221
170 2 -0.771666 5.12483 7.96753
316 2 0.362097 1.09779 2.95471
87 2 5.80595 2.59168 2.19877
174 2 -2.64082 5.4363 7.53743
283 1 1.38675 1.7566 0.155119
83 2 2.0884 0.218675 8.72327
19 4 1.66091 1.00737 16.4198
21 4 2.54325 -1.16591 13.1734
22 4 1.07395 1.16919 11.5351
23 4 -0.923286 2.36097 13.5189
25 4 6.12654 0.190747 17.2452
27 4 3.9222 1.48725 9.97882
29 4 4.39785 0.527662 14.7973
150 4 2.55304 5.04941 11.1146
81 2 3.93462 -0.458691 8.84997
127 3 1.03958 4.19504 16.5238
48 1 5.15526 0.541075 11.0013
58 2 0.219961 0.744984 15.4338
44 1 -1.44422 0.680708 14.4203
34 4 -0.408164 4.24474 15.9045
86 2 5.89454 1.37505 11.2436
198 3 1.31443 5.10494 9.81801
311 2 1.31906 2.66698 16.5439
84 2 5.57639 -0.268345 10.2211
85 2 4.71166 0.0867106 11.9057
171 2 2.64794 3.48346 11.7609
112 3 0.361796 0.419121 9.93624
113 3 1.50947 -0.0812662 12.4299
114 3 0.01852 2.11108 12.2819
116 3 2.42077 1.96518 11.1783
119 3 3.94623 -0.508905 13.4729
120 3 5.44971 -0.307076 15.786
121 3 3.01115 0.911937 15.6397
122 3 4.78092 2.62254 9.30148
125 3 5.18575 1.84477 14.1802
126 3 -0.663827 3.28859 14.7507
286 2 1.51663 -1.22428 17.1527
59 2 -1.19446 2.50829 9.51835
60 2 -2.43753 2.85103 12.8034
20 4 -1.11822 0.814344 9.51085
77 2 -1.69588 0.868561 15.5426
62 2 -1.54792 3.9703 17.19
75 2 -0.821333 -0.205218 14.2108
95 2 2.15379 6.10047 7.67209
143 4 -6.37984 11.2957 6.41313
144 4 -2.18767 6.4524 5.22099
146 4 -2.63799 9.21103 6.77751
294 2 1.38768 7.93739 1.12692
300 2 0.0689897 9.9618 7.54492
231 2 1.52693 7.83005 5.14719
15 2 -0.686899 6.66616 2.39348
317 2 -5.16345 9.54091 3.81724
235 2 -1.40246 11.5729 4.7338
166 2 -4.20933 9.89329 6.85794
167 2 -1.79906 10.4429 5.93231
169 2 -5.71748 10.7043 4.93605
164 2 -1.83833 6.29243 3.49705
230 2 -0.0660687 8.62668 5.82003
234 2 0.117561 11.1451 6.04313
183 2 0.386824 7.68926 7.93675
192 3 -2.56598 7.8589 5.90573
193 3 -6.12832 10.2579 7.54343
199 3 -2.01992 9.10584 8.2006
206 4 -1.6798 9.18383 1.65103
207 4 0.404329 9.84264 3.95952
213 1 -2.86643 10.5087 1.23737
214 1 0.490667 8.17964 4.9393
215 1 -0.303186 11.3166 4.98538
329 2 -4.84335 7.06076 7.94707
221 2 -1.64734 7.54462 0.7245
227 2 -3.54849 9.28725 2.21267
242 3 -0.521829 9.46694 2.70951
229 2 -2.46197 11.3649 1.98337
228 2 -3.65384 10.9035 0.544451
232 2 -0.164742 7.31801 4.47284
212 1 -6.25285 9.46416 3.44712
291 1 2.52073 7.97204 1.08036
225 2 -6.79395 10.4617 3.32442
328 2 -5.96439 8.52205 7.66992
175 2 -0.684957 5.90228 6.20697
220 2 -1.53701 10.2969 0.0755681
261 2 -7.03758 9.88812 16.9132
64 2 -0.71296 5.82525 15.4797
115 3 -6.67414 11.098 14.6412
145 4 -1.73237 5.84226 12.1322
148 4 -5.09414 9.64651 11.1175
151 4 -2.15787 10.0264 9.54959
200 3 -1.92796 11.6927 9.14401
153 4 -0.16053 9.92661 12.0386
155 1 -1.18638 6.85139 13.8133
156 1 -4.99084 7.97995 12.1071
274 2 -0.716614 10.8308 16.4476
182 2 -0.111065 8.37773 9.5814
165 2 -1.69429 7.69123 12.8225
149 4 -0.00896168 5.93053 9.35953
258 4 -6.96728 9.55568 14.6175
177 2 -0.42352 7.47327 14.3188
178 2 -0.515183 5.21749 13.3682
179 2 -2.01508 6.63329 14.5628
180 2 -4.43063 7.45275 11.1797
181 2 -4.32328 8.10903 13.0274
172 2 1.77485 7.53113 14.6771
188 2 -1.17622 10.4911 13.425
194 3 -3.2027 5.13998 12.2972
195 3 -6.48173 9.63614 10.104
196 3 -5.43732 10.6794 12.2815
197 3 -0.961426 5.82847 10.6593
147 4 -7.25569 10.3658 8.99948
201 3 -3.6691 9.78407 10.1737
202 3 2.35677 6.12703 12.3184
203 3 -1.04813 9.77729 10.7887
168 2 -7.41467 11.9795 9.42572
275 2 -0.189048 9.17993 15.6734
204 3 0.890502 8.74689 12.4496
260 2 -5.6572 8.66156 13.8293
303 2 -4.3864 6.19398 16.8479
320 2 -2.54299 10.9974 17.3994
30 4 2.80031 4.70238 17.3244
184 2 1.69181 7.68021 9.35451
157 1 0.564704 7.66308 9.07991
28 4 7.25151 1.27546 6.33206
31 4 6.00172 3.48909 8.30317
35 4 9.56397 1.99355 4.14925
37 4 11.9827 1.46581 6.03352
40 4 10.8791 4.18319 2.51038
330 2 12.8588 1.54788 0.399001
105 2 11.8816 3.63937 0.520329
55 1 11.8574 2.95451 1.50631
56 1 8.11097 5.072 5.31804
65 2 9.20082 0.738774 3.05374
69 2 11.7142 5.27812 3.47071
70 2 10.1726 5.21216 1.23297
313 2 10.504 2.42751 0.1573
89 2 6.31025 3.27717 3.87427
296 2 9.25213 0.596269 0.923939
32 4 4.38443 5.6964 6.41938
106 2 11.6297 1.81463 1.31561
107 2 12.8109 3.11407 2.17969
108 2 8.19971 3.88781 5.33741
118 3 7.82824 0.0515198 7.10429
123 3 6.6918 2.49862 7.35223
124 3 5.28794 4.87381 7.47928
128 3 8.31572 2.04345 5.18633
129 3 14.438 0.232286 7.91067
131 3 13.3547 1.63751 5.22377
132 3 10.8028 1.52443 5.02485
133 3 12.0336 -0.356083 6.84171
137 3 9.83189 3.34124 3.36771
139 3 12.0347 2.70317 7.13281
140 3 10.1511 4.45934 7.44874
42 4 9.34087 5.6533 6.83802
264 2 5.17178 4.98065 2.71355
26 4 8.05026 -0.74387 8.45135
97 2 5.85839 4.95595 4.39888
109 2 7.40108 5.39745 4.50346
41 4 11.0227 3.34391 8.14941
110 2 7.44118 5.4583 6.84378
88 2 7.2771 1.78656 3.15809
52 1 4.74144 5.03849 4.62874
98 2 4.28479 5.79898 3.92901
72 2 9.56759 5.80822 4.91342
49 1 6.28538 2.31217 3.20764
315 2 15.374 -0.16112 4.19384
237 2 12.8191 -0.334876 3.12718
305 2 14.1165 -0.0414104 0.464577
309 2 13.9732 -1.49563 13.9325
68 2 12.3703 -1.04696 12.4961
33 4 6.08248 3.17237 13.8898
36 4 9.82383 1.33929 10.1881
38 4 9.16682 1.25582 16.7476
39 4 12.1224 -0.362084 10.9345
50 1 7.35366 4.07188 9.45176
53 1 7.45576 2.9422 12.448
54 1 9.95525 0.105621 15.4921
306 2 14.015 -0.684653 16.4439
63 2 5.89104 3.73225 12.0935
66 2 8.92498 2.18157 11.359
67 2 9.38596 3.0415 17.1005
251 1 9.8281 4.85981 11.4719
281 2 8.7167 4.61334 16.5313
327 2 8.99437 -0.776081 13.7413
90 2 7.14383 5.21227 9.23601
92 2 7.27537 3.60722 10.5016
99 2 8.29784 3.69046 12.1042
100 2 7.37982 1.99492 11.857
101 2 7.95707 2.44872 13.9656
102 2 10.9921 0.107305 15.8705
103 2 9.72187 0.911016 14.6036
104 2 9.30767 -0.913474 15.4847
130 3 8.93891 0.206114 9.54439
134 3 7.747 0.783413 17.0868
135 3 13.4642 0.207755 10.3904
136 3 10.8468 0.508453 11.0141
138 3 10.3691 2.30562 9.06865
141 3 5.93465 4.4537 14.7844
249 4 11.1073 4.45861 12.8118
250 1 11.3327 2.53264 13.052
187 2 4.71432 4.68382 10.6815
252 2 11.7546 2.4467 14.1004
253 2 11.9009 1.94244 12.3014
254 2 10.2253 2.17967 12.9981
304 1 13.3543 -1.20475 17.2771
256 2 9.59733 3.82425 10.9445
76 2 13.2128 0.772792 13.7476
159 1 8.49322 -1.3186 12.8436
91 2 8.23576 3.61135 8.8519
310 2 12.0901 -1.12852 14.2021
71 2 11.9796 4.31698 9.15129
326 2 7.65497 -0.65368 12.3805
302 2 11.4509 4.39778 17.2381
186 2 3.77811 5.38132 8.99116
222 2 4.584 11.1482 8.6013
218 2 9.45882 8.29691 6.0648
57 1 9.81062 7.39408 7.73168
61 2 4.78701 7.38445 6.36157
299 2 1.51185 11.1167 7.12798
226 2 9.25871 8.64926 2.55383
298 1 0.727973 10.8503 7.93598
293 2 2.9893 7.71789 2.05222
248 3 6.05695 11.3987 5.99837
205 4 8.40112 8.50477 4.66122
208 4 5.03666 12.2063 7.33669
209 4 3.40443 10.9638 4.06018
247 3 5.1511 8.81871 7.03408
211 4 5.6876 9.87995 5.5519
243 3 1.9396 10.3179 3.73764
216 1 3.87131 12.006 2.59508
111 2 9.13528 7.01596 8.64514
219 2 8.14065 6.81791 4.36967
245 3 7.05496 9.17564 5.02218
223 2 3.36541 12.1545 5.39424
325 2 10.4373 7.07001 0.896731
272 2 1.14241 10.751 0.862942
210 4 5.71413 8.75452 8.53226
297 2 1.67596 12.3417 2.33331
233 2 0.349087 12.1057 4.42863
295 1 0.818357 12.3919 1.68392
236 2 4.55056 11.1579 2.07666
246 3 4.50145 9.90837 4.46695
238 2 3.20081 12.4568 1.79943
292 2 2.84762 8.96766 0.63107
161 2 7.70936 11.5946 6.03014
323 2 -0.139312 12.2714 2.23738
244 3 7.07846 9.61888 8.74669
43 4 5.35693 5.43633 15.8592
73 2 5.71671 7.05352 15.395
255 2 8.88894 5.41796 11.8606
142 3 3.78444 5.4644 16.1126
74 2 6.14129 5.30112 17.3254
160 1 3.7481 8.46479 12.5897
173 2 1.01836 11.5381 11.9987
185 2 4.27115 6.6538 10.383
276 2 5.52802 8.78711 17.3383
282 2 9.20166 7.24198 15.7399
189 2 3.71188 9.54513 12.1403
190 2 4.28947 7.68214 11.9126
191 2 4.1329 8.43702 13.776
217 1 4.26756 9.51679 9.6467
239 2 4.09879 8.44121 10.1823
301 1 10.3526 4.59082 17.4666
241 2 4.99211 10.1611 10.28