ITEM: TIMESTEP
0
ITEM: NUMBER OF ATOMS
331
ITEM: BOX BOUNDS xy xz yz pp pp pp
-8.3499999999999996e+00 1.5708700000000000e+01 -8.2042000000000002e+00
-2.0055999999999998e+00 1.3086800000000000e+01 -1.4580000000000001e-01
0.0000000000000000e+00 1.7349551999999999e+01 -2.0055999999999998e+00
ITEM: ATOMS id type x y z
1 4 -0.763128 1.99368 4.44507
2 4 -0.153796 4.31342 2.1749
3 1 0.12461 2.91861 5.863
174 2 -2.48394 5.39509 7.39593
5 1 1.74532 4.7642 3.43005
6 1 -1.59543 5.81438 1.77268
8 2 0.708832 3.88594 5.55811
9 2 0.838029 1.98769 6.06431
10 2 -0.772661 3.04275 6.62329
11 2 1.2914 0.296851 4.03659
12 2 1.57531 4.01545 1.74379
13 2 1.09158 4.33945 4.34649
14 2 2.83561 4.86005 3.79157
263 4 4.33274 4.32465 1.42039
16 2 -2.5027 5.41594 2.34185
17 2 -1.27555 4.66731 0.605304
18 3 -0.735962 3.17429 3.05667
24 4 5.00612 1.23599 4.29799
45 1 3.23563 2.12027 4.64479
47 1 3.59558 0.576372 8.34602
176 2 -1.84291 3.89913 6.6073
7 2 1.34445 5.79922 3.17336
78 2 2.72213 3.08592 4.14965
79 2 3.82401 2.38332 5.74225
80 2 2.4825 1.30878 4.73335
46 1 6.25773 0.252946 0.359334
82 2 4.09238 1.00963 7.50792
51 1 2.59304 5.51129 6.93771
163 2 -3.21657 5.10925 5.3021
154 1 -2.07126 4.98607 6.45646
93 2 2.614 4.56883 7.57749
285 2 2.52967 1.76344 0.6038
265 2 3.11509 3.72115 2.48493
117 3 5.85718 0.624282 5.49202
284 2 0.600022 2.13214 0.949511
321 2 5.52529 0.460204 1.27824
94 2 2.16563 5.20035 5.84335
267 3 3.71706 5.615 0.740976
266 3 5.0264 3.17527 0.665801
96 2 4.14774 3.93127 4.57644
4 1 0.173592 0.379422 3.93617
312 2 3.52528 0.392468 3.80604
162 2 2.61265 -0.105337 6.81958
170 2 -0.681358 5.33904 7.82606
316 2 -0.142825 0.471038 2.84204
87 2 5.6107 2.42188 2.16923
175 2 -0.43651 5.64278 6.01722
283 1 1.40333 1.79033 0.143437
15 2 -0.496326 6.1749 2.55041
83 2 2.49467 0.786212 8.43777
49 1 6.15876 2.07492 3.15378
19 4 1.60013 1.01411 16.1993
21 4 2.45657 -1.15975 12.8921
22 4 1.22472 1.25983 11.4419
23 4 -0.954482 2.49783 13.446
25 4 6.13177 -0.0123232 17.0963
27 4 4.10945 1.50773 9.90655
29 4 4.37834 0.481165 14.5109
150 4 2.67895 5.21624 10.904
81 2 4.01068 -0.423088 8.74584
127 3 1.27539 4.27888 16.4397
48 1 5.40258 0.532793 10.9011
58 2 0.162406 0.615647 15.3329
44 1 -1.50727 0.896334 14.2512
34 4 -0.312682 4.35423 15.923
75 2 -0.76033 0.0835349 13.9807
198 3 1.53848 5.35045 9.62227
311 2 1.40096 2.74118 16.4162
84 2 5.84259 -0.35179 10.1604
85 2 4.8502 0.0758409 11.9197
171 2 2.4963 3.53798 11.1699
112 3 0.545296 0.274178 9.92773
113 3 1.60154 0.112125 12.4243
114 3 0.150323 2.28434 12.2384
116 3 2.59386 1.93474 11.136
119 3 4.14837 -0.593834 13.3191
120 3 5.55588 -0.0315289 15.5582
121 3 2.99733 0.72974 15.4021
122 3 5.01 2.69855 9.38117
125 3 4.91793 1.86194 13.8721
126 3 -0.684559 3.33451 14.786
286 2 0.976682 -1.14287 16.8912
59 2 -0.784915 2.47142 9.39468
60 2 -2.51819 3.06331 12.7496
20 4 -0.951141 0.787891 9.51363
77 2 -1.74806 1.05463 15.3349
326 2 7.45885 -1.09015 12.2806
62 2 -1.36649 4.26826 17.2438
95 2 1.93503 6.38381 7.47304
143 4 -6.3811 11.4709 6.43024
144 4 -1.93019 6.50939 5.24128
146 4 -2.50636 9.23681 6.84724
294 2 1.66242 8.29148 0.964077
300 2 0.316171 10.0444 7.89772
231 2 1.97826 8.20943 4.71252
322 2 -0.772863 12.9725 0.781297
317 2 -5.46239 9.72109 3.78851
235 2 -1.24957 11.5265 5.07929
166 2 -4.12283 9.75713 7.09051
167 2 -1.80397 10.5436 5.91659
169 2 -6.16478 11.2087 4.74244
164 2 -1.99777 6.58686 3.47944
230 2 0.32688 8.69126 5.80213
234 2 0.196106 10.9889 6.23448
183 2 -0.242138 7.38433 7.49375
192 3 -2.33875 7.86299 5.99367
193 3 -5.725 10.2495 7.22003
199 3 -1.82269 9.09776 8.20813
206 4 -1.78665 9.12384 1.32206
207 4 0.396673 9.8188 3.87803
213 1 -3.12955 10.262 1.03312
214 1 0.847868 8.25705 4.73571
215 1 -0.147405 11.2001 5.11348
184 2 1.50993 7.87719 8.09067
221 2 -2.30473 7.26381 1.1733
227 2 -3.96769 9.38843 1.59586
242 3 -0.773621 9.57043 2.48381
229 2 -2.86377 11.2264 1.67336
157 1 0.511416 7.58658 8.39435
232 2 0.288389 7.26063 4.37093
328 2 -5.82954 8.48882 7.29789
261 2 -6.92843 10.1312 16.2299
64 2 -0.650256 5.94627 15.3556
115 3 -6.69187 11.0807 14.1842
145 4 -1.86615 6.29042 12.1021
148 4 -4.94543 9.65463 10.8049
151 4 -1.94275 10.1709 9.60665
200 3 -1.73064 11.685 9.04803
153 4 0.0446523 9.79823 11.935
155 1 -1.1055 7.03658 13.7378
156 1 -4.76353 7.97856 11.8023
274 2 -0.740035 10.8451 16.3247
182 2 -0.0699613 8.24854 9.17016
165 2 -1.97691 8.08518 12.5306
149 4 0.0930433 5.9417 9.25606
258 4 -7.07602 9.55837 14.0132
177 2 -0.362798 7.64371 14.2373
178 2 -0.535054 5.60259 13.4067
179 2 -2.00722 6.87281 14.4276
180 2 -3.96261 7.56194 11.1203
181 2 -4.40383 8.03345 12.8443
220 2 -1.20644 7.39146 17.1433
188 2 -1.20516 10.3078 13.1024
194 3 -3.1737 5.57016 12.3653
195 3 -6.1249 9.41826 9.77285
196 3 -5.45065 10.7892 11.7476
197 3 -0.936718 6.06542 10.4727
147 4 -7.0537 10.3251 8.76603
201 3 -3.40239 9.96086 10.2069
202 3 2.34981 6.1452 12.2034
203 3 -0.757759 9.70181 10.5397
168 2 -7.26922 11.8358 9.53367
275 2 -0.111954 9.07121 15.6334
204 3 1.06174 8.70033 12.4998
260 2 -5.74317 8.73524 13.3228
303 2 -4.80154 6.21335 16.9184
320 2 -2.55958 10.7499 16.8526
30 4 3.04861 4.89526 17.2747
172 2 1.62137 7.35502 14.5981
270 1 0.0127325 10.2384 15.6102
228 2 -3.48874 8.43888 17.2798
28 4 7.30173 1.16415 6.31501
31 4 6.03439 3.45986 8.31211
35 4 9.5521 1.94107 4.12893
37 4 12.082 1.43135 5.8793
40 4 10.9196 4.06609 2.47028
330 2 13.0481 1.42341 0.470801
105 2 12.1314 3.35943 0.630098
55 1 12.0402 2.80011 1.56365
56 1 7.93284 5.02675 5.43825
65 2 9.32816 0.711973 2.96744
69 2 11.7436 5.05718 3.61177
70 2 10.2598 5.46306 1.46706
313 2 10.444 2.27212 0.504227
89 2 6.34818 2.96169 3.80874
296 2 9.07436 0.693221 0.526758
32 4 4.3218 5.61076 6.38391
106 2 11.5142 1.75737 1.60217
107 2 12.9666 2.9898 2.37072
108 2 7.99402 3.91262 5.41706
118 3 8.05584 -0.0425608 7.05929
123 3 6.79474 2.43116 7.33217
124 3 5.14039 4.72336 7.41986
128 3 8.3121 1.91101 5.17967
129 3 14.2997 0.242145 8.04269
131 3 13.4923 1.63113 5.06388
132 3 10.8745 1.58623 4.94118
133 3 11.998 -0.406375 6.42394
137 3 9.77237 3.31215 3.33765
139 3 12.0193 2.40953 7.19583
140 3 10.2939 4.3328 7.29718
42 4 9.63017 5.54291 6.50328
264 2 5.34963 4.83288 2.71956
26 4 8.10797 -0.588073 8.54273
97 2 5.86267 4.78769 4.25519
109 2 7.03033 5.36241 4.79475
41 4 11.0588 3.20224 8.15383
110 2 7.67265 5.42955 6.65279
88 2 7.08295 1.42703 3.02613
52 1 4.7308 5.03432 4.52738
98 2 4.26094 5.81156 3.90648
72 2 9.62077 5.58997 4.7377
237 2 12.7866 -0.326467 3.43364
315 2 15.3613 -0.48581 4.44474
309 2 13.6703 -1.46567 14.0025
68 2 12.4475 -0.742982 12.5845
33 4 5.89386 3.19777 13.7724
36 4 9.76441 1.36309 10.2705
38 4 9.18321 1.06494 16.8095
39 4 12.2648 -0.213034 10.9875
50 1 7.32505 4.25614 9.40426
53 1 7.41959 3.11348 12.3485
54 1 9.41862 0.18174 15.2348
306 2 14.4507 -0.819309 16.6035
63 2 5.82056 3.92421 12.1772
66 2 9.00088 2.30936 11.5107
67 2 9.39064 2.83916 17.1096
71 2 12.0388 4.26687 9.03931
281 2 8.60424 4.47026 16.3581
327 2 8.76106 -0.81188 13.6047
90 2 6.97119 5.35834 9.37574
92 2 7.4669 3.8564 10.4899
99 2 8.255 3.87941 12.0898
100 2 7.27036 2.18116 11.5988
101 2 7.81725 2.58037 13.7695
102 2 10.6165 0.313217 15.1832
103 2 8.74313 0.913027 14.5943
104 2 8.95552 -0.956369 15.383
130 3 8.65436 0.350245 9.62907
134 3 7.71628 0.512415 17.2803
135 3 13.6015 0.530087 10.6066
136 3 10.9965 0.601809 10.8237
138 3 10.2911 2.42446 9.19944
141 3 5.94736 4.41884 14.8751
249 4 10.9631 4.69093 12.8103
250 1 11.2391 2.78032 12.9304
187 2 4.84741 4.78337 10.498
252 2 11.8479 2.5148 13.7962
253 2 11.6913 2.42271 12.0048
254 2 10.1689 2.33152 13.005
304 1 13.6272 -1.38243 17.1802
256 2 9.37093 4.23774 10.7237
76 2 13.1526 0.888209 13.545
302 2 11.2872 4.34729 16.8746
91 2 8.24762 4.15579 8.73505
310 2 11.7795 -1.1636 14.1025
251 1 9.76428 5.09104 11.4136
301 1 10.2155 4.46178 17.2379
86 2 6.25921 1.3526 11.2383
222 2 4.77488 11.0531 8.36515
218 2 9.8795 8.0854 5.58224
57 1 9.68117 7.32611 7.34276
61 2 4.65045 7.3229 6.6219
299 2 1.57762 11.3046 7.33207
226 2 8.92596 8.87471 2.43312
298 1 0.977725 10.9161 8.12054
244 3 7.32031 9.60141 8.51447
248 3 6.04935 11.4493 6.08409
205 4 8.48709 8.4451 4.56138
212 1 9.13468 9.73847 3.41919
209 4 3.65598 10.6593 3.74679
247 3 4.93454 8.88048 6.92137
211 4 5.76079 9.65395 5.54105
243 3 2.10055 10.3585 3.44899
216 1 4.33641 11.9751 2.59129
111 2 8.57438 7.14305 7.62514
219 2 8.17199 6.69077 4.45037
245 3 7.1956 9.03302 5.19643
223 2 3.54655 11.7567 5.08717
325 2 10.2594 6.95753 0.777039
208 4 5.24866 12.2381 7.19534
210 4 6.01061 8.80897 8.47221
297 2 2.04719 12.4222 2.01193
233 2 0.471054 11.984 4.49695
295 1 1.02323 12.3926 1.4902
236 2 5.28902 11.5903 2.08864
246 3 4.68113 9.53076 4.19512
238 2 3.46218 12.3077 1.86817
292 2 3.43821 9.02736 1.02223
161 2 7.60098 11.6576 6.50696
272 2 1.30833 10.7665 0.804364
305 2 5.99241 12.861 0.501286
225 2 8.62714 10.7126 3.33025
323 2 0.224141 12.3191 2.30013
329 2 10.4246 6.86279 8.11251
291 1 2.75904 8.1352 1.27815
293 2 2.94454 7.59959 2.25689
43 4 5.54967 5.55929 15.8054
73 2 5.78018 7.05094 15.0928
255 2 8.914 5.6579 11.9764
142 3 4.01887 5.55172 16.228
74 2 6.62162 5.59457 17.099
160 1 3.87749 8.27098 12.8564
159 1 0.187313 11.5777 12.7189
185 2 4.58932 6.58564 11.2221
276 2 5.83634 8.54996 16.8669
282 2 8.81715 7.16729 15.5447
189 2 3.59071 9.21847 12.3529
190 2 4.46917 7.51204 12.1913
191 2 4.11089 8.27015 13.9345
217 1 4.80694 9.67102 9.74795
239 2 4.79315 8.53389 10.3194
262 2 8.99944 8.38517 16.749
241 2 5.47423 10.4747 10.297
240 2 3.7626 9.98868 9.4003
257 2 10.3428 5.82471 10.7365
307 1 4.442 11.1791 14.132
259 1 8.46918 9.03661 15.9967
269 4 4.50752 10.5317 16.1113
271 1 5.27271 8.66259 15.9811
158 1 4.35312 5.82718 10.4311
318 2 7.2765 8.90704 15.9949
277 2 5.97074 8.8114 14.9223
278 2 4.3977 7.92061 15.8077
279 3 2.97051 10.3254 16.5239
280 4 9.77638 5.69366 15.6606
186 2 4.27051 6.21128 9.39443
268 4 1.42251 10.1631 16.9188
287 1 6.95721 9.21393 13.2112
288 2 6.65459 8.15654 13.3765
289 2 7.35266 9.42476 12.1476
290 2 6.00608 10.0585 13.6287
152 4 2.14576 7.55646 13.028
308 2 4.23445 10.1327 13.5727
314 2 3.78098 11.3638 10.2329
331 3 10.3923 5.20982 14.2419
273 2 0.160127 10.7497 14.5277
324 2 1.5683 10.8227 9.13217
319 2 9.98551 7.34938 11.6615
224 2 6.4572 7.2166 8.698
173 2 1.1556 11.5806 11.7233
ITEM: TIMESTEP
100
ITEM: NUMBER OF ATOMS
331
ITEM: BOX BOUNDS xy xz yz pp pp pp
-8.3499999999999996e+00 1.5708700000000000e+01 -8.2042000000000002e+00
-2.0055999999999998e+00 1.3086800000000000e+01 -1.4580000000000001e-01
0.0000000000000000e+00 1.7349551999999999e+01 -2.0055999999999998e+00
ITEM: ATOMS id type x y z
1 4 -0.807729 2.14189 4.45665
2 4 -0.183772 4.29267 2.18418
3 1 0.140128 3.03373 5.88809
322 2 7.31006 0.0352895 0.995524
5 1 1.67139 4.61304 3.46578
6 1 -1.22007 5.93584 1.703
8 2 0.768389 4.03573 6.02019
9 2 0.707279 1.98268 6.11982
10 2 -0.765466 3.12993 6.60749
11 2 1.38363 0.722176 4.31375
12 2 1.58066 3.67829 1.98796
13 2 1.1128 4.09214 4.43717
14 2 2.81858 4.74209 3.85254
263 4 4.41919 4.40725 1.46107
16 2 -2.21472 5.74355 2.12782
17 2 -0.840168 4.60133 0.523447
18 3 -0.905924 3.1868 3.09601
24 4 5.02326 1.2838 4.31804
45 1 3.22014 2.10534 4.90391
47 1 3.37273 0.603418 8.43138
176 2 -1.78417 4.03867 6.66144
7 2 1.21535 5.76963 3.13227
78 2 2.73004 3.03649 4.35925
79 2 3.83297 2.40279 5.87896
80 2 2.50047 1.2037 5.06111
46 1 6.2961 0.385645 0.519664
82 2 3.94918 1.09214 7.47373
51 1 2.6489 5.37225 6.81458
163 2 -3.54895 5.27413 5.66691
154 1 -2.04329 5.17464 6.60708
93 2 2.53189 4.33807 7.32159
285 2 2.1839 2.2615 0.95858
265 2 3.27235 3.82708 2.5427
117 3 5.84266 0.501367 5.36977
284 2 0.314972 1.8222 0.570552
321 2 5.41945 0.417105 1.21451
94 2 2.19342 5.37068 5.71884
267 3 3.70044 5.50292 0.59095
266 3 5.12418 3.26992 0.784711
96 2 4.16651 3.84508 4.6189
4 1 0.372078 0.731132 3.88374
312 2 3.49513 0.644156 3.66276
162 2 2.68086 -0.186369 6.79265
170 2 -0.483852 5.25317 7.82116
316 2 0.42206 0.579754 2.7692
87 2 5.70745 2.57826 2.28683
83 2 2.21458 0.662362 8.45125
283 1 1.32829 1.76046 0.225269
49 1 6.2363 2.1077 3.24772
174 2 -2.24193 5.59018 7.56277
175 2 -0.547564 5.85025 5.9667
19 4 1.59096 0.923629 16.1798
21 4 2.40323 -1.13179 13.0561
22 4 1.09804 1.13428 11.4522
23 4 -0.908714 2.37719 13.4243
25 4 6.09503 0.0836094 17.0822
27 4 4.07962 1.5617 9.90684
29 4 4.40954 0.54828 14.6363
150 4 2.63096 5.1776 10.9034
81 2 3.82559 -0.452618 8.84787
127 3 1.05654 4.26508 16.5594
48 1 5.24921 0.478514 11.0455
58 2 0.437394 0.249859 15.0721
44 1 -1.322 0.664375 14.2853
34 4 -0.276308 4.34767 15.8479
75 2 -0.60516 -0.0402572 13.7987
198 3 1.46986 5.14204 9.76111
311 2 1.26035 2.59255 16.5302
84 2 5.71261 -0.357921 10.3064
85 2 4.75008 0.0112316 12.0131
171 2 2.56767 3.54299 11.5441
112 3 0.477284 0.451634 9.90225
113 3 1.46217 -0.0707238 12.4195
114 3 0.100323 2.02623 12.3074
116 3 2.57899 2.08256 10.8897
119 3 4.11832 -0.511563 13.5508
120 3 5.61389 -0.204769 15.5668
121 3 3.00889 0.739727 15.5201
122 3 5.00835 2.68888 9.2368
125 3 4.9856 1.94667 13.9321
126 3 -0.484956 3.315 14.6631
286 2 1.44526 -1.25683 17.1495
59 2 -1.1363 2.53048 9.21585
60 2 -2.31407 3.06451 12.6247
20 4 -0.962342 0.875612 9.35573
77 2 -1.28385 0.70809 15.4241
62 2 -1.43395 4.113 17.1082
86 2 6.08868 1.20167 11.3405
95 2 2.16367 6.23567 7.39505
143 4 -6.2968 11.3773 6.39202
144 4 -2.18934 6.52785 5.28318
146 4 -2.51678 9.24275 6.78808
294 2 1.66575 7.98247 1.21982
300 2 0.399418 10.0155 7.64919
231 2 1.87302 8.36355 5.44822
323 2 -0.00812055 12.2464 2.12999
317 2 -5.38676 9.94791 3.43997
235 2 -1.24156 11.5242 4.95838
166 2 -4.14557 9.76772 7.01434
167 2 -1.75461 10.4286 5.80719
169 2 -5.90288 11.0647 4.74595
164 2 -1.58979 6.22452 3.5702
230 2 0.0322074 8.52217 5.64308
234 2 0.229356 11.0684 6.1195
183 2 0.232637 7.45905 7.5327
192 3 -2.35302 7.93994 5.89303
193 3 -5.80101 10.2337 7.29928
199 3 -1.83235 9.21004 8.16695
206 4 -1.77247 9.16904 1.44074
207 4 0.574308 9.8246 3.81377
213 1 -3.01296 10.4719 0.868367
214 1 0.839972 8.31127 4.94521
215 1 -0.161737 11.1848 4.96713
184 2 1.90227 7.69288 8.49435
221 2 -1.51111 7.56571 0.717176
227 2 -3.29887 8.98016 2.17378
242 3 -0.646614 9.46287 2.52282
229 2 -2.99269 11.2558 1.66033
157 1 0.753264 7.54308 8.53532
232 2 0.709756 7.42314 4.30125
15 2 -0.358567 6.57612 2.27411
328 2 -5.87717 8.43332 7.44173
228 2 -4.00668 10.3601 0.392114
261 2 -6.71163 9.98882 16.5358
64 2 -0.60752 5.88014 15.2362
115 3 -6.69214 11.1784 14.3848
145 4 -1.80238 5.91981 12.0429
148 4 -4.98794 9.68206 10.9478
151 4 -2.07898 10.0632 9.48464
200 3 -1.78399 11.6412 9.08706
153 4 0.0451132 9.82319 12.0109
155 1 -1.22325 6.93319 13.6487
156 1 -4.93458 8.03646 11.9594
274 2 -0.417939 11.0892 16.2649
182 2 0.331792 8.23283 9.36698
165 2 -1.9791 7.88965 12.5865
149 4 0.159212 5.9226 9.31505
258 4 -7.02191 9.62284 14.2685
177 2 -0.40805 7.5973 14.1278
178 2 -0.446546 5.41944 13.2202
179 2 -2.03254 6.65249 14.3957
180 2 -4.12311 7.5171 11.3061
181 2 -4.55303 8.04569 13.0899
172 2 1.98593 6.95862 14.5477
188 2 -1.06902 10.3526 13.2981
194 3 -3.17011 5.26018 12.3779
195 3 -6.36902 9.49753 9.88866
196 3 -5.33969 10.7886 12.0284
197 3 -1.06636 5.99555 10.5364
147 4 -7.13786 10.3754 8.76887
201 3 -3.61577 9.94097 10.2652
202 3 2.28979 6.23133 12.085
203 3 -0.859602 9.65386 10.7961
168 2 -7.25495 11.9111 9.3394
275 2 -0.122668 9.18607 15.5014
204 3 1.10303 8.75022 12.6335
260 2 -5.63953 8.65179 13.6383
303 2 -4.53155 6.20002 16.762
320 2 -2.34645 10.8492 16.8794
30 4 2.91932 4.71139 17.1597
220 2 -2.07422 8.43074 17.1015
28 4 7.28767 1.26144 6.20025
31 4 6.11725 3.46804 8.18845
35 4 9.56505 2.06776 4.11353
37 4 12.0591 1.46298 5.87286
40 4 10.9964 4.12662 2.532
330 2 13.1489 1.47524 0.607766
105 2 11.974 3.47825 0.517412
55 1 11.9854 2.83541 1.55538
56 1 8.04837 5.12459 5.13519
65 2 9.24141 0.849586 2.94591
69 2 11.9691 5.07558 3.55428
70 2 10.3151 5.37486 1.45928
313 2 10.4082 2.41567 0.410532
89 2 6.57266 3.02519 3.88231
296 2 9.00755 0.580271 0.855507
32 4 4.40753 5.64811 6.28107
106 2 11.3772 1.87533 1.53142
107 2 12.9382 2.92822 2.25016
108 2 8.10863 4.00632 4.99935
118 3 7.92701 0.0798359 7.00729
123 3 6.81027 2.46023 7.26646
124 3 5.2914 4.77732 7.26909
128 3 8.22788 2.00331 5.05548
129 3 14.4153 0.246118 7.91949
131 3 13.4413 1.61866 5.01776
132 3 10.812 1.58797 4.86018
133 3 11.9979 -0.306469 6.65866
137 3 9.79462 3.33721 3.19976
139 3 12.0007 2.33608 7.21661
140 3 10.378 4.38125 7.33718
42 4 9.47809 5.6329 6.66352
264 2 5.36794 5.09599 2.65745
26 4 7.99357 -0.737804 8.37197
97 2 5.86117 4.88404 4.315
109 2 7.1865 5.44008 4.38813
41 4 11.1898 3.3066 8.26007
110 2 7.51406 5.35823 6.56114
88 2 7.11019 1.48137 2.94936
52 1 4.68549 4.94748 4.46278
98 2 4.13684 5.6699 3.79561
72 2 9.66255 5.74538 4.81687
315 2 15.3916 -0.0636304 4.37037
309 2 13.689 -1.38877 13.8526
68 2 12.4452 -0.872379 12.47
33 4 6.07671 3.11114 13.8323
36 4 9.80755 1.33087 10.0582
38 4 9.13194 1.15591 16.695
39 4 12.2189 -0.243337 10.8949
50 1 7.35245 4.16901 9.44918
53 1 7.4886 2.88476 12.3731
54 1 9.59048 0.223612 15.1363
306 2 14.2864 -0.788214 16.4501
63 2 6.10556 3.86069 12.1058
66 2 8.93225 2.1331 11.3281
67 2 9.44456 2.90668 16.9511
326 2 7.55094 -0.915559 12.2262
281 2 8.69329 4.47531 16.4321
327 2 8.91282 -0.867438 13.5362
90 2 7.01956 5.22464 9.46189
92 2 7.40105 3.66208 10.4758
99 2 8.33919 3.59932 12.0334
100 2 7.31742 1.93615 11.7577
101 2 7.90644 2.43314 13.9395
102 2 10.7778 0.321172 15.2424
103 2 9.00361 0.973836 14.4136
104 2 9.07219 -0.879278 15.2633
130 3 8.72886 0.206553 9.4126
134 3 7.65796 0.768144 17.0769
135 3 13.565 0.294091 10.3478
136 3 10.9596 0.575175 10.7526
138 3 10.2052 2.52572 9.1907
141 3 5.87189 4.28574 14.8329
249 4 11.0916 4.65794 12.7534
250 1 11.4742 2.80365 12.8419
187 2 4.8027 4.73806 10.4496
252 2 12.1606 2.61407 13.7799
253 2 11.9352 2.42688 11.8318
254 2 10.4344 2.29472 13.0401
304 1 13.5899 -1.28217 17.2329
256 2 9.62758 4.09811 10.8314
76 2 13.3288 0.590868 13.8026
302 2 11.3223 4.05792 16.9463
91 2 8.33483 3.93796 8.85279
310 2 11.8125 -1.28269 14.2611
251 1 9.74527 5.04214 11.3788
71 2 12.3006 4.06678 9.30724
222 2 4.75915 11.0779 8.31697
218 2 9.73701 8.10629 5.75865
57 1 9.76933 7.29721 7.53843
61 2 4.7955 7.30881 6.37
299 2 1.74946 11.3228 7.13985
226 2 8.83986 8.95726 2.38187
298 1 0.990598 10.886 7.98611
244 3 7.19818 9.56483 8.60248
248 3 6.06536 11.5383 5.95203
205 4 8.51105 8.43642 4.54684
212 1 9.22111 9.73744 3.39671
209 4 3.59148 10.8584 4.02027
247 3 5.08998 8.84395 7.06919
211 4 5.8367 9.72081 5.529
243 3 2.07449 10.2811 3.52004
216 1 4.13277 11.9548 2.59497
111 2 8.66001 7.09503 8.15084
219 2 8.20683 6.7254 4.04889
245 3 7.21521 9.04397 5.16044
223 2 3.27775 11.8105 5.43037
325 2 10.6292 7.29909 0.815493
225 2 8.55754 10.6878 3.50945
210 4 5.79304 8.7368 8.46282
297 2 1.86791 12.518 2.29919
233 2 0.57233 11.9888 4.46269
295 1 0.94982 12.5126 1.59262
236 2 4.72458 11.1724 1.90026
246 3 4.69484 9.69983 4.40708
238 2 3.28618 12.4808 2.06851
292 2 3.36271 8.96153 0.664709
161 2 7.69252 11.4558 6.37725
272 2 1.37874 10.7673 0.922998
293 2 3.38632 7.65816 2.14662
291 1 2.8396 7.9914 1.16043
305 2 6.09594 12.76 0.482737
329 2 10.6772 6.91518 8.14474
237 2 4.79944 12.6946 3.23065
208 4 5.21762 12.24 7.13124
43 4 5.44979 5.41246 15.761
73 2 5.96979 7.02453 15.1487
255 2 8.75951 5.38612 11.7916
142 3 3.88695 5.47098 16.0736
74 2 6.44308 5.51853 17.1135
160 1 3.88042 8.38102 12.5897
173 2 1.32079 11.5583 11.7111
185 2 4.61797 6.70816 10.9773
276 2 6.0905 8.59427 16.9872
282 2 8.91204 7.14786 15.5074
189 2 3.42471 9.4148 12.2604
190 2 4.59568 7.94587 11.8168
191 2 4.27184 8.32035 13.6461
217 1 4.46538 9.60238 9.61925
239 2 4.29409 8.50327 10.1137
262 2 9.19194 8.17661 16.7946
241 2 5.09876 10.2941 10.3149
240 2 3.49875 10.1005 9.24752
257 2 10.2548 5.81402 10.7483
307 1 4.51791 11.1489 14.1732
259 1 8.66741 8.9648 16.1668
269 4 4.50724 10.625 16.1321
271 1 5.42202 8.71714 15.979
158 1 4.26349 5.79737 10.2547
318 2 7.40407 8.89735 16.2295
277 2 6.04383 8.84874 14.9759
278 2 4.51657 8.04672 16.0178
279 3 2.93262 10.3763 16.5786
280 4 9.90632 5.70577 15.653
186 2 4.15781 6.15673 9.15515
268 4 1.39324 9.96582 16.9791
287 1 7.07391 9.30291 13.2991
288 2 6.72002 8.17083 13.3617
289 2 7.58688 9.50915 12.2899
290 2 6.07389 10.0573 13.5908
152 4 2.17808 7.63103 12.9774
308 2 4.28298 10.1217 13.5571
314 2 3.76795 11.368 10.1215
331 3 10.4852 5.16455 14.2559
273 2 0.23613 10.7643 14.4471
324 2 1.48116 10.7482 9.01786
319 2 9.7197 7.61138 11.8506
224 2 6.11408 7.10495 8.69697
270 1 0.227855 10.3233 15.563
159 1 0.257159 11.6143 12.6474
301 1 10.3345 4.55216 17.2881
ITEM: TIMESTEP
200
ITEM: NUMBER OF ATOMS
331
ITEM: BOX BOUNDS xy xz yz pp pp pp
-8.3499999999999996e+00 1.5708700000000000e+01 -8.2042000000000002e+00
-2.0055999999999998e+00 1.3086800000000000e+01 -1.4580000000000001e-01
0.0000000000000000e+00 1.7349551999999999e+01 -2.0055999999999998e+00
ITEM: ATOMS id type x y z
1 4 -0.854001 2.20975 4.5426
2 4 -0.129478 4.48442 2.27618
3 1 0.146821 3.26919 5.8865
322 2 7.38032 0.0915239 1.17511
5 1 1.78443 4.80176 3.4348
6 1 -1.29851 5.94882 1.5781
8 2 0.590389 4.21319 5.78974
9 2 0.938223 2.3469 5.89593
10 2 -0.68133 3.1496 6.77765
11 2 1.22597 0.732292 4.71791
12 2 1.66534 3.93785 1.87212
13 2 1.15724 4.18515 4.42719
14 2 2.85746 4.98324 3.82311
263 4 4.30558 4.37984 1.37353
16 2 -2.32793 5.74842 2.00779
17 2 -0.630308 4.46472 0.595549
18 3 -0.945219 3.42946 3.11164
24 4 5.12118 1.37197 4.28446
45 1 3.27074 2.1548 4.69695
47 1 3.24148 0.441239 8.46797
176 2 -1.80011 3.99039 6.84145
7 2 1.22865 5.89961 3.31866
78 2 2.77285 3.14447 4.21395
79 2 3.60729 2.33592 5.77975
80 2 2.4783 1.32536 4.78726
46 1 6.34106 0.607962 0.751067
82 2 3.45556 1.02976 7.50891
51 1 2.60662 5.53895 6.84961
163 2 -3.38334 5.00666 5.60297
154 1 -2.18291 5.02823 6.62734
93 2 2.77308 4.54999 7.50426
285 2 2.17511 2.1865 1.03301
265 2 3.27738 3.8124 2.59826
117 3 5.78312 0.581319 5.51896
284 2 0.259019 1.818 0.510136
321 2 5.56129 0.724762 1.52528
94 2 2.24008 5.35385 5.77402
267 3 3.62361 5.4961 0.596399
266 3 5.11185 3.38324 0.613369
96 2 4.18543 3.93657 4.60239
4 1 0.296257 0.840243 3.97817
312 2 3.71202 0.660957 3.49351
162 2 2.6107 -0.318797 6.70214
170 2 -0.678589 5.07263 7.92841
316 2 0.596397 0.94201 2.90376
87 2 5.78748 2.60499 2.15223
83 2 2.16639 0.151348 8.54834
283 1 1.41467 1.74409 0.175027
174 2 -2.55068 5.45779 7.57137
19 4 1.68419 1.0142 16.2892
21 4 2.50883 -1.16777 13.0508
22 4 1.1343 1.18557 11.4055
23 4 -0.865813 2.34994 13.3584
25 4 6.13859 0.160892 17.0546
27 4 3.97763 1.48901 9.84921
29 4 4.41559 0.505375 14.6589
150 4 2.61645 5.03732 11.036
81 2 4.0836 -0.459222 8.70067
127 3 1.095 4.23069 16.3324
48 1 5.18941 0.535451 10.9036
58 2 0.248961 0.817158 15.3117
44 1 -1.3988 0.710929 14.2906
34 4 -0.357951 4.23257 15.754
86 2 6.0422 1.2409 11.2552
198 3 1.37968 5.05566 9.77977
311 2 1.40046 2.67398 16.4262
84 2 5.63848 -0.274858 10.1808
85 2 4.70866 0.0869344 11.794
171 2 2.67974 3.45311 11.6257
112 3 0.41192 0.452024 9.78728
113 3 1.51343 -0.0638446 12.3157
114 3 0.0658242 2.13098 12.1152
116 3 2.46416 1.96787 11.0853
119 3 3.95666 -0.548732 13.3487
120 3 5.49885 -0.31841 15.6374
121 3 3.03256 0.862911 15.5142
122 3 4.83562 2.69366 9.23089
125 3 5.1685 1.8581 14.0013
126 3 -0.620051 3.2764 14.5945
286 2 1.5959 -1.19896 17.0069
59 2 -1.08074 2.55686 9.2998
60 2 -2.40598 2.7931 12.6161
20 4 -1.04642 0.86231 9.35595
77 2 -1.65339 0.793764 15.4177
62 2 -1.4717 3.97398 17.0778
75 2 -0.699074 -0.170362 14.0079
95 2 1.99252 6.36 7.47952
143 4 -6.25969 11.3337 6.3266
144 4 -2.14693 6.4054 5.21251
146 4 -2.55344 9.24125 6.66017
294 2 1.40527 7.99143 1.16891
300 2 0.142381 9.96499 7.42363
231 2 1.65266 7.77426 5.12496
323 2 -0.0290951 12.2251 2.21589
317 2 -5.10979 9.55643 3.67912
235 2 -1.25952 11.6232 4.73808
166 2 -4.12034 9.93551 6.742
167 2 -1.66376 10.3613 5.74059
169 2 -5.70089 10.7772 4.78643
329 2 -4.78674 7.02444 7.89411
230 2 0.00288834 8.60368 5.77327
234 2 0.211888 11.0765 6.04006
183 2 0.886404 7.72476 7.63496
192 3 -2.5036 7.86523 5.80849
193 3 -5.95724 10.2671 7.43569
199 3 -1.92114 9.12739 8.09969
206 4 -1.6162 9.16115 1.59969
207 4 0.510678 9.79009 3.88627
213 1 -2.78639 10.5547 1.17232
214 1 0.600897 8.14055 4.89765
215 1 -0.160479 11.2963 4.87801
164 2 -1.83084 6.30726 3.4284
221 2 -1.4964 7.68164 0.745614
227 2 -3.39772 9.24141 2.18288
242 3 -0.447563 9.44968 2.66296
229 2 -2.32431 11.3344 1.9274
225 2 -6.73577 10.4498 3.18166
232 2 -0.0369053 7.33145 4.35212
15 2 -0.631721 6.67412 2.14992
291 1 2.53943 8.00385 1.10487
228 2 -3.69724 10.9796 0.685681
212 1 -6.17961 9.48884 3.34547
328 2 -5.85502 8.52273 7.56893
175 2 -0.639935 5.87452 6.15074
220 2 -1.60601 10.5192 0.0712997
261 2 -6.92649 9.87645 16.7684
64 2 -0.752264 5.81059 15.3496
115 3 -6.5457 11.1144 14.5255
145 4 -1.71902 5.88291 11.9831
148 4 -4.9672 9.63086 11.0472
151 4 -2.04816 10.0282 9.43942
200 3 -1.7922 11.6605 9.04785
153 4 -0.0202883 9.92891 11.9298
155 1 -1.16761 6.84252 13.6702
156 1 -4.87428 7.98071 11.9962
274 2 -0.534278 10.8966 16.2644
182 2 0.107144 8.25978 9.24511
165 2 -1.79202 7.71702 12.4121
149 4 0.0932846 5.89363 9.29205
258 4 -6.88153 9.57073 14.5232
177 2 -0.395253 7.47558 14.1425
178 2 -0.482279 5.34819 13.3051
179 2 -2.00072 6.69246 14.4137
180 2 -4.26817 7.40305 11.1674
181 2 -4.24706 8.22176 12.9152
157 1 0.848668 7.51966 8.72984
188 2 -1.01103 10.578 13.2856
194 3 -3.17053 5.15929 12.1548
195 3 -6.39388 9.62534 10.0301
196 3 -5.35353 10.7079 12.169
197 3 -0.838223 5.85579 10.5471
147 4 -7.14811 10.3639 8.89418
201 3 -3.57203 9.80594 10.0856
202 3 2.42382 6.15724 12.2254
203 3 -0.933753 9.78182 10.6852
184 2 1.88117 7.28372 9.24903
275 2 -0.0142533 9.20306 15.4866
204 3 1.03376 8.73901 12.3774
260 2 -5.66997 8.65415 13.6293
303 2 -4.39007 6.21874 16.687
320 2 -2.40734 10.9619 17.2049
30 4 2.80749 4.76395 17.1481
168 2 -7.29427 11.9633 9.353
172 2 1.85415 7.52167 14.5805
28 4 7.28904 1.2735 6.26714
31 4 6.03961 3.53435 8.20818
35 4 9.59026 1.99098 4.09873
37 4 12.0101 1.44142 5.96857
40 4 10.9517 4.17036 2.52016
330 2 12.8782 1.54098 0.408346
105 2 11.8168 3.61422 0.457061
55 1 11.8991 2.90381 1.49755
56 1 8.08169 5.0762 5.26788
65 2 9.23614 0.841833 2.87029
69 2 11.8182 5.19589 3.49738
70 2 10.3177 5.25977 1.23274
313 2 10.3969 2.55427 0.219656
89 2 6.38729 3.24599 3.86427
296 2 9.22536 0.607556 0.788951
32 4 4.38415 5.7203 6.36506
106 2 11.6243 1.77101 1.347
107 2 12.8974 3.05568 2.11432
108 2 8.20886 3.89789 5.29275
118 3 7.88395 0.0341802 7.03436
123 3 6.71586 2.47558 7.27302
124 3 5.2975 4.8849 7.39467
128 3 8.30368 2.02052 5.11238
129 3 14.4618 0.198281 7.79845
131 3 13.3598 1.64858 5.14426
132 3 10.8159 1.50298 4.99971
133 3 12.0356 -0.375699 6.76476
137 3 9.87843 3.36468 3.3615
139 3 12.0619 2.66637 7.07209
140 3 10.1891 4.47048 7.34918
42 4 9.39508 5.67584 6.75689
264 2 5.28096 5.03294 2.66379
26 4 8.05854 -0.757902 8.37953
97 2 5.9455 4.9493 4.4648
109 2 7.23708 5.39142 4.54852
41 4 11.041 3.32217 8.06895
110 2 7.54315 5.39683 6.77742
88 2 7.3174 1.80539 3.07954
52 1 4.78187 5.03116 4.54007
98 2 4.34901 5.86128 3.85947
72 2 9.59747 5.72995 4.78235
49 1 6.29697 2.31766 3.19656
315 2 15.2359 -0.0184869 4.23364
237 2 12.7816 -0.306615 3.21398
309 2 13.9187 -1.42227 13.8873
68 2 12.5121 -1.08027 12.3234
33 4 6.08897 3.16382 13.7833
36 4 9.84188 1.32689 10.1084
38 4 9.15902 1.29478 16.5238
39 4 12.2 -0.367213 10.8152
50 1 7.40371 4.0826 9.36269
53 1 7.45065 2.95056 12.2976
54 1 9.9817 0.15019 15.2961
306 2 14.0788 -0.788083 16.2432
63 2 6.02423 3.80909 11.915
66 2 8.9821 2.17877 11.2924
67 2 9.39245 3.02627 16.9871
326 2 7.76997 -0.557948 12.1712
281 2 8.78761 4.64451 16.3495
327 2 9.0278 -0.731875 13.5819
90 2 7.27188 5.25029 9.17116
92 2 7.27489 3.65421 10.4088
99 2 8.32081 3.71794 11.9264
100 2 7.38051 2.02002 11.6533
101 2 7.93044 2.48442 13.8784
102 2 11.0498 0.187683 15.7483
103 2 9.79751 0.922413 14.3624
104 2 9.36226 -0.901724 15.2981
130 3 8.92052 0.192209 9.5102
134 3 7.76785 0.779718 16.8884
135 3 13.5388 0.262801 10.282
136 3 10.9113 0.511535 10.8832
138 3 10.3339 2.28929 8.95896
141 3 5.97452 4.3955 14.7403
249 4 11.1288 4.50103 12.6934
250 1 11.368 2.58823 12.9433
187 2 4.75671 4.62733 10.5441
252 2 11.7173 2.45431 14.0028
253 2 11.8878 1.96023 12.1918
254 2 10.1553 2.407 12.8053
304 1 13.4275 -1.25425 17.1831
256 2 9.56277 3.84433 10.7532
76 2 13.2388 0.776579 13.5893
159 1 8.52438 -1.28025 12.697
71 2 11.9853 4.27329 9.10516
310 2 12.0895 -1.14624 14.19
251 1 9.85617 4.8281 11.2792
91 2 8.27109 3.65187 8.81963
186 2 3.80053 5.42615 8.90808
302 2 11.5092 4.43853 17.0319
222 2 4.76842 11.2122 8.59712
218 2 9.54448 8.28002 5.96323
57 1 9.87708 7.38024 7.65699
61 2 4.75208 7.39887 6.31549
299 2 1.64186 11.1835 7.09045
226 2 9.35744 8.68949 2.43999
298 1 0.879093 10.8278 7.89171
244 3 7.19255 9.62289 8.61837
248 3 6.17728 11.3608 5.92685
205 4 8.52997 8.48153 4.57927
208 4 5.17187 12.1876 7.27792
209 4 3.50683 10.9431 4.00739
247 3 5.21661 8.82918 6.94972
211 4 5.80252 9.86614 5.46556
243 3 2.05894 10.2782 3.69324
216 1 3.9755 12.0355 2.5481
111 2 9.18399 7.07222 8.53715
219 2 8.27118 6.78226 4.2712
245 3 7.18095 9.15185 4.95035
223 2 3.43958 12.0869 5.34275
325 2 10.4732 7.15871 0.830619
293 2 3.06046 7.68535 2.12031
210 4 5.84756 8.75366 8.41355
297 2 1.79862 12.415 2.38619
233 2 0.535486 12.0565 4.4004
295 1 0.922276 12.3383 1.70224
236 2 4.64614 11.2042 2.05777
246 3 4.63574 9.91159 4.40003
238 2 3.28371 12.4981 1.786
292 2 2.91304 9.01162 0.643427
161 2 7.82057 11.5729 6.01031
272 2 1.06043 10.7451 0.921871
305 2 5.97616 13.0187 0.57161
224 2 6.24572 7.15639 8.65633
43 4 5.38594 5.4414 15.7503
73 2 5.78037 7.02557 15.2336
255 2 8.95137 5.42153 11.6845
142 3 3.81071 5.52394 15.964
74 2 6.139 5.36222 17.2461
160 1 3.84661 8.48262 12.5477
173 2 1.19014 11.4416 11.8557
185 2 4.35184 6.60033 10.3407
276 2 5.67459 8.58315 17.2493
282 2 9.20129 7.20719 15.5586
189 2 3.87164 9.57721 12.1364
190 2 4.39611 7.70273 11.8748
191 2 4.25163 8.43764 13.7087
217 1 4.41671 9.50736 9.53909
239 2 4.2914 8.37961 10.0325
262 2 8.90465 8.06647 17.048