ITEM: TIMESTEP
0
ITEM: NUMBER OF ATOMS
331
ITEM: BOX BOUNDS xy xz yz pp pp pp
-8.2042000000000002e+00 1.5738148000000001e+01 -8.2042000000000002e+00
-2.0055999999999998e+00 1.3086800000000000e+01 2.9447999999999974e-02
0.0000000000000000e+00 1.7524799999999999e+01 -2.0055999999999998e+00
ITEM: ATOMS id type x y z
1 4 -0.725175 1.90928 4.83627
2 4 0.327535 4.59873 3.2212
3 1 0.817811 1.34081 5.85309
174 2 -1.35003 5.24568 5.26762
5 1 2.18897 4.42332 3.13675
6 1 -0.420005 5.03673 1.31146
8 2 1.73303 2.15776 5.95125
9 2 1.03603 0.461303 5.20909
10 2 0.478862 0.981491 6.81379
312 2 5.6545 0.3706 3.00615
12 2 2.15643 3.24429 3.36276
13 2 3.01611 5.13035 3.8246
14 2 2.1455 4.63215 1.92881
182 2 -0.812992 4.86394 7.67697
16 2 -1.00447 4.38801 0.612445
17 2 0.362564 5.74793 0.821676
18 3 -0.231651 3.41335 3.95277
24 4 5.93464 1.82683 3.98996
45 1 4.08069 1.32461 3.48391
47 1 3.68755 0.46846 8.46076
263 4 4.31287 3.81746 1.15391
51 1 3.26703 3.53345 6.31771
78 2 3.87419 1.45172 2.39081
79 2 3.72065 2.33499 4.02296
80 2 3.63471 0.402434 3.94397
83 2 2.54803 0.500895 8.31736
82 2 4.35262 0.616934 7.5264
265 2 2.80112 3.17601 1.76355
154 1 -2.46525 5.35365 5.16374
15 2 -1.1469 5.75741 1.95344
93 2 3.93191 2.66873 6.01983
94 2 2.43115 3.69031 5.53992
95 2 2.91545 3.48199 7.40737
117 3 6.45883 1.50913 5.5523
321 2 5.17396 0.196138 0.950786
162 2 3.04319 -0.250929 6.75193
266 3 5.14917 2.81314 0.390367
267 3 3.91537 5.19779 0.619498
283 1 1.45516 1.31102 0.411893
175 2 -2.89672 4.66441 4.35532
311 2 1.01881 4.11407 0.393488
286 2 1.61325 1.88595 1.41514
284 2 2.33073 0.693367 0.0091235
32 4 4.12166 5.19137 6.52518
46 1 6.05619 0.0510738 0.136299
285 2 0.3094 0.88873 0.188058
176 2 -2.98536 5.40476 6.14451
11 2 -0.691445 1.2894 2.61563
264 2 4.84016 4.01848 2.75264
7 2 0.528462 6.02466 4.23404
19 4 1.30306 0.755653 16.8542
21 4 2.54069 -1.05608 12.4286
22 4 1.34417 1.4758 11.3119
23 4 -0.444336 2.40686 13.7154
25 4 5.9129 -0.153398 16.8139
27 4 4.3164 1.61297 9.85199
29 4 3.88595 0.553046 14.7636
149 4 -0.0573051 5.07601 9.97003
34 4 0.398104 4.33981 16.0839
44 1 -1.35843 0.839198 14.4158
48 1 5.4316 0.547058 10.9466
58 2 -0.316507 0.706455 16.0232
60 2 -1.89977 3.07376 13.0127
81 2 4.07567 -0.525722 9.22677
62 2 -0.774701 4.30621 17.2151
170 2 -0.163432 3.37598 9.99996
76 2 -0.403065 0.139505 14.1553
84 2 5.91058 -0.323617 10.3181
85 2 4.76665 0.194774 11.7794
171 2 2.73435 3.54158 11.9096
112 3 0.0953701 1.70076 9.96967
113 3 1.58036 -0.0843722 11.4606
114 3 0.639075 2.12088 12.6023
116 3 2.71583 2.26579 10.862
119 3 3.32231 -0.0718794 13.3909
120 3 4.9386 -0.432597 15.419
121 3 2.57592 0.70143 15.8994
122 3 5.37132 2.67395 9.12599
125 3 4.73211 1.99997 14.307
126 3 0.00178582 3.33399 14.9124
127 3 1.8022 4.5276 16.7714
20 4 -1.19113 0.849925 9.43496
86 2 6.14226 1.44402 11.2904
161 2 -7.7202 11.7932 6.2259
143 4 -6.05172 11.4527 6.31639
144 4 -2.45652 7.11538 4.4442
146 4 -2.54572 9.29253 6.61381
219 2 -5.71828 10.0033 3.21251
57 1 -4.86067 7.25552 8.49575
184 2 -0.888007 6.73287 8.45487
230 2 0.179399 8.66671 5.90564
163 2 -3.27005 7.5491 3.03262
164 2 -0.763658 7.42746 3.85592
166 2 -4.02226 9.72897 7.22602
167 2 -2.06632 10.6996 5.74173
169 2 -5.44442 11.2651 4.7996
328 2 -4.87312 8.11431 7.75287
234 2 -0.404287 11.2763 6.38299
183 2 0.757502 6.07313 7.82444
218 2 -7.35775 12.0962 1.86831
192 3 -2.79291 8.07723 5.6417
193 3 -5.66896 10.2455 7.24245
199 3 -1.43072 9.04893 7.77014
206 4 -2.21592 10.0545 2.22038
207 4 0.320528 9.79908 4.17389
213 1 -3.74969 10.1076 3.30344
214 1 0.527489 7.8078 5.14688
215 1 -0.262223 11.2639 5.24689
220 2 -1.97374 11.4694 1.18279
221 2 -2.58352 8.91841 0.91374
227 2 -3.5753 9.89698 4.39118
228 2 -4.30222 9.28142 2.59701
229 2 -4.00572 11.2835 2.98475
231 2 1.54535 8.03152 4.77866
232 2 0.6396 6.90701 5.80659
235 2 -1.15272 11.6779 4.66639
242 3 -0.920729 9.62627 3.18914
291 1 2.91376 7.4327 1.70317
322 2 -1.05636 12.9494 0.550578
157 1 -0.25361 5.78749 8.25325
294 2 1.75039 7.43033 1.63919
303 2 -4.30104 9.39854 0.737903
299 2 0.788419 10.3353 8.12092
293 2 3.18824 6.79653 2.60457
30 4 3.22476 6.625 0.00430328
326 2 -1.40558 11.5532 11.9701
64 2 -0.166867 5.85237 15.5216
115 3 -6.62723 10.9125 13.2159
145 4 -2.03976 6.52748 12.3056
148 4 -4.54575 9.79532 10.6673
151 4 -1.64972 9.82859 9.34996
274 2 -0.682423 8.24204 17.1394
301 1 -4.09502 6.82763 17.2806
155 1 -0.947854 6.60516 13.882
156 1 -4.54538 8.51523 12.14
275 2 -0.19023 7.69309 15.4377
320 2 -2.37419 10.5067 16.7036
165 2 -2.69383 8.01857 11.81
319 2 -5.54636 8.70474 12.5553
188 2 -1.36482 10.1587 13.2673
177 2 -1.06548 7.86142 13.9074
178 2 0.060217 6.12186 13.6318
179 2 -1.73351 5.90381 14.5116
180 2 -4.41641 7.44305 11.9107
181 2 -3.8002 8.87882 12.9773
153 4 0.254905 9.65078 11.7436
194 3 -3.23822 5.6024 12.7658
198 3 1.64716 5.50531 10.4166
195 3 -5.90067 9.70496 9.88356
196 3 -4.52091 11.2457 11.4307
197 3 -1.06072 5.82507 11.0432
200 3 -1.56889 11.4799 9.20508
201 3 -3.21841 9.50276 9.90503
202 3 2.24736 6.13022 12.9339
203 3 -0.379563 9.34363 10.3338
302 2 -3.73324 7.4968 16.4553
150 4 2.63635 5.21445 11.6392
159 1 -0.715481 10.9858 12.6618
272 2 1.44237 7.74628 17.1957
262 2 -5.6688 9.73873 15.9989
270 1 0.142582 8.34287 16.3474
204 3 1.09085 8.62641 12.6251
172 2 1.58232 7.81033 15.0886
259 1 -6.75462 9.52555 15.7884
273 2 0.0618491 9.93372 15.7041
329 2 -3.79631 7.00121 8.85899
325 2 -2.79783 5.60602 17.3705
28 4 7.77854 1.81548 6.54842
31 4 6.51167 3.76092 8.41011
35 4 9.98384 1.68166 4.27496
37 4 12.1856 1.26747 6.32524
40 4 10.525 4.40098 2.7601
296 2 9.8847 0.495826 0.993384
304 1 13.1203 0.741464 0.0984304
55 1 11.1534 3.93163 0.937473
315 2 15.1395 -0.174536 3.98426
65 2 9.40464 0.802134 2.95401
69 2 10.2418 5.79731 3.6635
70 2 9.54057 4.36479 0.992728
49 1 6.65813 3.44589 3.22188
89 2 6.62181 4.18606 4.06619
87 2 6.46237 3.90118 2.11859
88 2 7.78871 2.97689 3.2188
106 2 11.2675 2.79322 0.939384
107 2 12.2633 4.49199 2.24534
108 2 9.86766 4.74787 5.24684
118 3 7.99534 0.448871 7.57668
123 3 7.59219 3.16432 7.42987
124 3 5.37857 5.24336 7.55142
128 3 8.94738 1.85071 5.37534
129 3 14.9982 -0.475449 8.70178
131 3 13.4957 2.04344 5.97913
132 3 11.3202 0.92906 4.71916
133 3 12.3623 -0.33609 7.07157
137 3 10.1848 3.09095 3.65268
139 3 11.399 2.15318 7.39049
140 3 10.451 4.44111 8.21358
316 2 13.3525 0.540562 3.40063
96 2 4.75696 5.08792 4.4669
330 2 12.4208 0.957934 0.990595
4 1 14.5124 0.686362 3.45334
281 2 10.8211 5.79004 0.373331
41 4 11.0507 2.93215 8.65459
59 2 13.8951 1.92271 8.34894
56 1 9.87335 5.84075 5.61995
323 2 8.13357 0.152036 1.74397
305 2 14.077 0.193558 0.444691
187 2 4.72927 4.34217 10.5351
251 1 9.55048 4.95549 12.6963
33 4 5.56144 3.26183 13.8565
36 4 9.63161 1.1944 10.887
38 4 8.72297 0.829125 15.9149
39 4 12.2342 -0.239995 11.1779
50 1 7.47302 4.48949 9.78303
53 1 7.53097 2.6644 13.3311
54 1 9.36782 -0.454145 14.7149
327 2 8.15631 -1.44929 13.3904
63 2 5.13267 3.69454 12.2583
66 2 8.92981 1.96007 12.2067
67 2 8.54358 2.24064 15.0107
68 2 12.8518 -1.11373 12.5959
310 2 12.2097 -0.384806 14.5648
77 2 13.5242 0.841571 13.6182
91 2 8.57988 4.12656 9.65241
92 2 7.10313 4.27164 10.8177
99 2 7.11649 2.97485 12.2245
100 2 7.05267 1.59128 13.9546
101 2 7.86088 3.6013 14.0032
102 2 10.4782 -0.812427 14.635
103 2 9.09289 0.16166 13.7654
104 2 8.59888 -1.32242 14.9699
130 3 8.61066 0.185219 10.1952
134 3 7.49385 0.203024 16.5708
135 3 13.3341 0.582603 10.5047
136 3 10.8824 0.414157 11.5903
138 3 10.2271 2.27323 9.79217
141 3 5.81745 4.61489 14.8301
249 4 11.2785 4.58226 13.4247
250 1 11.8653 2.71275 13.1268
331 3 11.2432 4.77593 15.0882
71 2 12.5201 3.27467 9.36077
253 2 12.3049 2.47351 12.1459
254 2 10.7701 2.30646 13.1336
313 2 9.98289 1.20687 17.0011
256 2 9.27264 3.94064 12.3948
306 2 13.3383 -0.409342 16.9647
252 2 12.4462 2.33818 13.9685
307 1 12.4129 -1.48054 14.4448
26 4 8.14545 -0.544594 8.80375
75 2 13.9501 0.663743 15.4893
158 1 4.46962 5.22267 11.2312
105 2 11.6493 2.35132 17.4906
109 2 9.06283 6.48061 5.20757
42 4 9.90868 5.83809 7.7039
147 4 8.83098 9.94986 8.65035
61 2 3.21277 6.6954 6.39334
97 2 5.09296 7.04339 4.85151
297 2 1.23752 11.8299 1.9318
224 2 6.2809 6.55317 7.63136
110 2 8.36636 5.86565 6.64082
72 2 10.9916 6.41642 5.79913
205 4 8.35748 10.3976 2.7093
208 4 5.49299 11.9626 7.34853
209 4 3.45144 10.7359 3.61056
210 4 6.50248 8.28366 7.54345
211 4 6.13394 10.1699 5.12298
212 1 7.61033 10.7075 1.00786
216 1 3.82966 10.5599 1.77271
324 2 1.80848 11.9144 7.48412
295 1 0.832957 12.793 1.27011
222 2 4.88473 10.4938 8.00289
223 2 3.4096 12.4355 4.00282
317 2 6.53515 10.8559 1.01857
225 2 7.95771 9.04226 1.41293
244 3 7.72847 8.79411 8.40068
298 1 1.3091 11.3134 8.39429
233 2 0.716148 11.8616 4.92925
292 2 3.28053 8.52906 1.8327
236 2 4.83862 10.0723 1.60239
237 2 3.85997 11.7913 1.63415
238 2 2.94308 10.0417 1.20089
243 3 1.93063 10.1626 3.73874
245 3 7.22897 10.2719 3.92672
246 3 4.6514 10.1272 4.43968
247 3 6.3553 8.9043 6.1029
248 3 6.36891 11.7629 6.04151
240 2 3.91272 8.92073 7.92186
52 1 4.22326 6.33485 4.86301
217 1 4.88008 8.58115 8.52012
98 2 3.50416 6.65904 3.96658
226 2 8.12819 10.9544 0.0200856
43 4 5.72231 5.59467 16.0899
73 2 6.21845 7.22002 15.7044
309 2 5.3114 11.4322 14.3314
142 3 4.32125 5.67601 16.7701
282 2 9.89873 6.2278 16.9083
160 1 3.85006 8.32756 13.3343
173 2 1.03071 11.172 11.7533
185 2 5.14486 5.32087 12.1283
152 4 2.11581 7.69533 13.4642
268 4 1.3518 9.71803 17.182
189 2 3.57036 9.32618 12.7126
190 2 4.34321 7.46917 12.7436
191 2 4.44097 8.54929 14.4263
289 2 7.08206 8.35751 12.2431
308 2 3.51397 11.0507 13.7503
260 2 8.57482 8.07125 13.7913
241 2 5.12208 9.29331 9.45354
186 2 4.44429 6.28203 10.7274
258 4 8.23931 9.90833 14.1379
74 2 6.79411 5.1905 17.2758
314 2 3.73798 11.4108 10.1981
269 4 4.33513 10.6351 16.2712
271 1 5.48782 8.97944 16.1351
111 2 10.0287 7.28558 9.42233
290 2 6.22689 9.83022 13.4587
277 2 5.9712 8.78902 15.0704
278 2 4.65816 8.26316 16.3573
279 3 2.78813 10.1741 16.7189
280 4 11.2076 5.0532 16.7076
276 2 6.26132 8.92462 17.0727
255 2 8.87417 5.39547 13.5121
287 1 6.90838 8.51553 13.313
288 2 6.32529 7.64664 13.6972
318 2 8.62074 8.47273 15.9352
257 2 9.6568 5.75193 11.8552
90 2 7.26463 5.6333 9.47565
300 2 2.02908 11.2499 9.29891
239 2 4.85326 7.46268 8.902
261 2 8.06504 10.3429 16.2994
168 2 7.94204 11.3749 8.97615
ITEM: TIMESTEP
100
ITEM: NUMBER OF ATOMS
331
ITEM: BOX BOUNDS xy xz yz pp pp pp
-8.2042000000000002e+00 1.5738148000000001e+01 -8.2042000000000002e+00
-2.0055999999999998e+00 1.3086800000000000e+01 2.9447999999999974e-02
0.0000000000000000e+00 1.7524799999999999e+01 -2.0055999999999998e+00
ITEM: ATOMS id type x y z
1 4 -0.69703 1.89874 4.81043
2 4 0.168135 4.57265 3.26778
3 1 0.849231 1.34161 5.77664
174 2 -1.49798 4.88135 5.44727
5 1 2.074 4.42917 3.27502
6 1 -0.26756 4.89604 1.36819
8 2 1.66951 2.11913 5.96828
9 2 1.17325 0.54774 4.95218
10 2 0.492461 0.898362 6.79524
312 2 5.92126 0.378958 2.97695
12 2 2.05695 3.30373 3.48673
13 2 2.83287 5.07929 3.88614
14 2 2.07437 4.76242 2.09485
182 2 -0.707539 5.11847 7.70861
16 2 -0.749771 4.02964 0.708255
17 2 0.531483 5.51188 0.810678
18 3 -0.332307 3.25614 3.97797
24 4 5.93372 1.87319 3.97923
45 1 4.2383 1.22875 3.34109
47 1 3.66436 0.754227 8.50397
263 4 4.41018 3.96078 1.19642
51 1 3.23679 3.50264 6.3277
78 2 4.10481 0.971415 2.25916
79 2 3.77629 2.37716 3.64379
80 2 3.69755 0.473806 3.97587
83 2 2.54047 0.86114 8.59665
82 2 4.11133 1.17438 7.57069
265 2 2.98787 3.32184 1.85004
154 1 -2.53573 5.35318 5.27126
15 2 -1.16527 5.6403 1.80827
93 2 4.11215 2.79164 6.50907
94 2 2.70214 3.51593 5.28362
95 2 2.51787 3.8467 7.29458
117 3 6.28358 1.59605 5.50821
321 2 5.22994 0.1202 1.05088
162 2 2.77821 -0.186184 6.96437
266 3 5.16032 2.91251 0.483934
267 3 3.88698 5.32718 0.580025
283 1 1.47312 1.13216 0.392478
175 2 -3.20235 4.88125 4.43123
311 2 1.2669 3.94558 0.539274
286 2 1.52048 1.48557 1.504
46 1 5.94774 0.0269775 0.230069
7 2 0.2768 6.03624 4.27671
176 2 -3.13599 5.48842 6.21984
322 2 7.1691 -0.0660323 0.587434
59 2 -1.74168 1.98279 8.28829
264 2 5.03014 4.09124 2.83058
32 4 4.19092 5.0836 6.55783
284 2 2.39942 0.573722 0.0295779
19 4 1.40071 0.63586 16.9039
21 4 2.53998 -0.956915 12.3642
22 4 1.37935 1.46934 11.3993
23 4 -0.544479 2.50457 13.7859
25 4 5.8695 -0.30478 16.8457
27 4 4.47169 1.65091 10.0429
29 4 3.9437 0.628681 14.8296
149 4 0.00298293 5.05964 10.006
34 4 0.122121 4.47891 16.142
44 1 -1.27944 0.889232 14.5466
48 1 5.60758 0.428228 10.9182
58 2 -0.202139 0.676726 16.1767
60 2 -1.97572 3.06442 13.0713
81 2 4.15781 -0.305668 8.86998
326 2 6.8033 -1.18284 12.1858
170 2 -0.0557179 3.30792 9.99528
76 2 -0.368484 0.209038 14.4629
84 2 5.99425 -0.409905 10.1246
85 2 5.00783 0.025064 11.7939
171 2 2.90921 3.53023 12.0388
112 3 0.12102 1.72225 9.99118
113 3 1.55025 -0.118263 11.3349
114 3 0.53952 2.07967 12.689
116 3 2.88159 2.18057 11.1229
119 3 3.43221 -0.0346137 13.5239
120 3 4.85828 -0.489835 15.6097
121 3 2.55619 0.780818 15.8453
122 3 5.43784 2.72812 9.40344
125 3 4.82481 2.00602 14.3374
126 3 -0.232292 3.50255 15.0408
127 3 1.52821 4.46182 16.7601
198 3 1.4775 5.27492 10.4909
150 4 2.51547 5.2012 11.6791
62 2 -0.952512 4.11638 17.4113
20 4 -1.22138 0.905724 9.40972
285 2 0.446384 -1.34336 17.5007
161 2 -7.57919 11.6011 5.706
143 4 -5.96438 11.4411 6.2057
144 4 -2.34028 6.99383 4.41129
146 4 -2.53588 9.27162 6.50051
219 2 -5.709 9.94012 2.90981
57 1 -4.90697 7.18601 8.48261
184 2 -0.690892 6.82878 8.54169
230 2 0.152988 8.72758 5.76289
163 2 -3.12964 6.98778 2.89258
164 2 -0.703125 7.35791 3.69237
166 2 -3.99394 9.8499 6.85836
167 2 -1.82263 10.5665 5.66228
169 2 -5.01291 11.4939 4.73245
328 2 -4.89695 8.04987 7.72506
234 2 -0.131693 11.1076 6.42745
183 2 0.940737 6.09418 7.89034
218 2 -7.33071 11.828 1.867
192 3 -2.73786 8.07715 5.49402
193 3 -5.74349 10.1626 7.0942
199 3 -1.71304 9.01851 7.76564
206 4 -2.32873 10.0894 2.23407
207 4 0.361043 9.8977 4.21481
213 1 -3.79964 9.9156 3.29433
214 1 0.50327 7.81017 5.04673
215 1 -0.0918431 11.3926 5.33007
220 2 -2.4476 11.6644 1.5147
221 2 -2.39211 9.25401 0.723283
227 2 -3.91024 9.79327 4.42985
228 2 -4.26067 8.99068 2.62143
229 2 -4.28962 11.053 2.86609
231 2 1.58933 7.88856 4.62109
232 2 0.428253 6.8984 5.66841
235 2 -1.12383 11.659 4.88864
242 3 -0.958227 9.83048 3.12732
291 1 2.86518 7.72295 1.65676
325 2 -2.96584 7.52092 0.120965
157 1 -0.0869815 5.92051 8.33745
294 2 1.72333 7.84551 1.53793
303 2 -4.3926 9.14852 0.803252
30 4 3.21222 6.6465 0.125214
293 2 3.14395 7.06989 2.65098
152 4 2.00717 7.7183 13.5604
64 2 -0.328219 6.0861 15.7163
115 3 -6.81759 10.9752 13.2181
145 4 -2.07153 6.42391 12.2437
148 4 -4.59103 9.8139 10.6996
151 4 -1.72646 9.84471 9.28203
274 2 -0.777866 8.70561 17.0306
301 1 -4.06976 6.69463 17.4157
155 1 -1.02086 6.63308 13.9559
156 1 -4.63257 8.37641 12.0082
275 2 -0.280926 7.85507 15.4534
320 2 -2.59363 10.4835 16.8963
165 2 -2.69428 7.95812 11.6543
319 2 -5.74061 8.45588 12.2642
188 2 -1.42229 10.1852 13.1732
177 2 -1.08602 7.81646 13.7792
178 2 -0.0438252 5.99528 13.7388
179 2 -1.82258 6.17015 14.6094
180 2 -4.44931 7.33111 11.6795
181 2 -3.99502 8.63142 12.829
153 4 0.19008 9.78036 11.6391
194 3 -3.21576 5.56835 12.7744
318 2 -6.35001 8.70329 16.3467
195 3 -5.92339 9.79745 9.83316
196 3 -4.54199 11.3563 11.4924
197 3 -1.10252 5.68111 11.0719
200 3 -1.59879 11.4795 9.05837
201 3 -3.20705 9.4587 10.021
202 3 2.21242 6.16741 12.9972
203 3 -0.48806 9.26193 10.279
302 2 -3.64251 7.43124 16.6642
329 2 -3.94884 7.02777 9.01679
159 1 -0.725809 11.1123 12.6202
272 2 1.48318 8.02226 17.2824
262 2 -5.84437 10.4723 15.9869
270 1 0.0859642 8.63869 16.3069
204 3 1.14399 8.84412 12.5896
172 2 1.48019 7.66552 15.2849
259 1 -6.67528 9.73235 15.9243
273 2 0.150998 9.87351 15.7698
28 4 7.66763 1.68913 6.52714
31 4 6.5315 3.6891 8.48946
35 4 9.94427 1.53377 4.31538
37 4 12.1724 1.24908 6.3729
40 4 10.5015 4.25792 2.57785
296 2 10.0456 0.270345 1.59672
304 1 13.3689 0.658032 0.0221719
55 1 11.2454 3.91795 0.770042
315 2 15.3909 -0.305367 3.36584
65 2 9.20373 0.419983 3.2456
69 2 10.2456 5.69712 3.60482
70 2 9.44513 4.32059 1.01648
49 1 6.83414 3.44738 3.09756
89 2 7.13005 4.16272 3.8523
87 2 6.53315 3.99958 2.14758
88 2 7.76772 2.7001 2.85786
106 2 11.5286 2.87231 0.78675
107 2 12.2216 4.54414 2.03124
108 2 10.1828 4.93089 5.22365
118 3 8.04084 0.374446 7.48964
123 3 7.44721 3.07028 7.36068
124 3 5.47316 5.11928 7.50897
128 3 8.89129 1.71682 5.54485
129 3 14.8504 -0.569501 8.59501
131 3 13.8324 1.89594 5.82761
132 3 11.3181 0.93414 4.69006
133 3 12.6044 -0.105729 7.04689
137 3 10.2206 2.97725 3.4179
139 3 11.3776 2.08586 7.3501
140 3 10.5433 4.39828 8.16643
316 2 13.6686 0.268403 3.91871
96 2 4.68941 5.11806 4.3846
330 2 12.7672 0.788025 0.954117
4 1 14.6376 0.538514 3.414
281 2 10.4613 5.65455 0.188774
41 4 11.0837 2.98438 8.59047
305 2 14.351 0.0249635 0.133697
56 1 9.70029 5.89533 5.47479
323 2 8.20813 0.619193 1.41822
110 2 8.4505 5.7276 6.73673
11 2 14.5385 1.13377 2.47804
187 2 4.64216 4.55833 10.5917
309 2 13.6936 -1.5551 13.9618
33 4 5.62325 3.3146 13.8706
36 4 9.62382 1.27302 10.8791
38 4 8.88868 0.593823 15.8677
39 4 12.2451 -0.219894 11.1017
50 1 7.5894 4.50894 9.78126
53 1 7.35552 2.70711 13.323
54 1 9.57812 -0.651936 14.6936
327 2 8.23789 -1.50356 13.3913
63 2 4.96758 4.24559 12.4737
66 2 8.83414 2.04004 12.2271
67 2 8.59091 1.9713 14.7614
68 2 12.8465 -0.882839 12.5628
310 2 12.2849 -0.393106 14.6042
77 2 13.7038 0.681072 13.6995
91 2 8.59456 4.03398 9.57236
92 2 7.23499 4.44561 10.8147
99 2 7.24279 3.1933 12.2167
100 2 7.49182 1.56076 13.4651
101 2 8.00944 3.35155 14.0842
102 2 10.7317 -0.982865 14.5826
103 2 9.13525 -0.0804493 13.7087
104 2 8.86167 -1.57434 15.08
130 3 8.52429 0.214328 10.3015
134 3 7.445 0.18708 16.3846
135 3 13.2781 0.664836 10.3551
136 3 10.9072 0.418547 11.4405
138 3 10.148 2.36707 9.79773
141 3 5.72212 4.4558 14.9061
249 4 11.3413 4.77932 13.4651
250 1 11.76 2.84139 13.0653
86 2 6.42342 1.27291 11.2543
71 2 12.645 3.23009 9.2117
253 2 12.3336 2.79131 12.0548
254 2 10.6492 2.58218 13.1044
313 2 10.0117 0.992168 17.1618
256 2 9.59379 4.41818 12.0406
306 2 13.5578 -0.394252 16.9497
252 2 12.3898 2.39022 14.0013
307 1 12.6774 -1.47755 14.4672
26 4 8.24785 -0.590036 8.91457
75 2 14.0088 0.917521 15.6118
105 2 11.6291 2.20522 17.2604
109 2 8.93362 6.27672 4.73036
42 4 9.94713 5.73353 7.72712
147 4 8.84059 9.92967 8.53885
299 2 0.94743 10.2996 8.38774
97 2 5.01895 7.0397 4.85692
297 2 0.56979 11.8626 1.9271
224 2 6.11378 6.67376 7.44928
98 2 3.47561 6.6183 3.94204
72 2 10.4723 6.72796 5.71555
205 4 8.2938 10.2159 2.62185
208 4 5.54217 11.9586 7.22532
209 4 3.4749 10.8596 3.5167
210 4 6.48625 8.34803 7.54798
211 4 6.14408 10.1344 5.01217
212 1 7.5255 10.4313 0.945766
216 1 4.07734 10.7506 1.71529
324 2 1.99408 11.8139 7.90008
61 2 3.2914 6.66262 6.35159
222 2 4.70909 10.5672 7.79947
223 2 3.34135 12.5387 3.92338
317 2 6.35591 10.554 1.03337
225 2 7.92873 8.93614 1.04816
244 3 7.86234 8.64739 8.29671
298 1 1.43767 11.241 8.75925
233 2 0.634858 12.2761 5.17851
292 2 3.40536 8.82038 1.70984
236 2 4.98047 10.0215 1.83741
237 2 4.46394 11.8284 1.62444
238 2 3.48536 10.4883 0.854708
243 3 1.96649 10.1655 3.65045
245 3 7.26248 10.1506 3.89664
246 3 4.61984 10.2947 4.40892
247 3 6.2109 8.95999 6.14552
248 3 6.46447 11.6988 5.9333
240 2 3.96573 9.16205 8.26612
52 1 4.20952 6.25479 4.79436
217 1 4.93769 8.8124 8.62316
295 1 0.792863 12.9056 1.34857
43 4 5.65549 5.4157 16.0729
73 2 6.11601 7.00092 15.526
282 2 9.85371 6.42475 17.1318
142 3 4.36418 5.53224 16.8964
158 1 4.30146 5.50223 11.1725
160 1 3.65988 8.43192 13.4282
173 2 0.851249 11.3838 11.507
185 2 5.05553 5.82467 11.9361
239 2 4.8291 7.67105 8.98229
268 4 1.40925 9.85685 17.336
189 2 3.3931 9.44737 12.9844
190 2 4.04991 7.5102 12.6182
191 2 4.25786 8.4169 14.4738
289 2 7.2797 8.82173 12.2611
308 2 3.70136 10.9179 13.9499
260 2 8.17519 7.79153 13.6915
241 2 5.42317 9.50412 9.40735
186 2 3.995 6.32336 10.3513
258 4 8.22744 9.93821 14.2112
74 2 6.99255 5.07596 16.9995
314 2 3.75165 11.4559 10.2458
269 4 4.48177 10.6714 16.2511
271 1 5.48967 8.76804 16.0526
111 2 9.76408 7.28103 9.27461
290 2 6.43581 10.0599 14.2341
277 2 5.95168 8.58527 15.0122
278 2 4.62503 8.05073 16.2641
279 3 2.97184 10.2902 16.7713
280 4 11.0363 5.02905 16.7839
276 2 6.23595 8.72951 16.9967
255 2 8.80218 5.32163 13.5545
287 1 7.1047 8.50919 13.3115
288 2 6.21694 7.8239 13.3075
261 2 8.0473 10.2642 16.4201
257 2 9.76928 6.27716 12.1664
90 2 7.46568 5.629 9.24169
300 2 2.06273 11.0865 9.72346
331 3 11.1399 4.80204 15.2673
251 1 9.62904 5.31469 12.7716
226 2 8.05253 8.94501 17.5084
168 2 7.82643 11.295 8.78321
ITEM: TIMESTEP
200
ITEM: NUMBER OF ATOMS
331
ITEM: BOX BOUNDS xy xz yz pp pp pp
-8.2042000000000002e+00 1.5738148000000001e+01 -8.2042000000000002e+00
-2.0055999999999998e+00 1.3086800000000000e+01 2.9447999999999974e-02
0.0000000000000000e+00 1.7524799999999999e+01 -2.0055999999999998e+00
ITEM: ATOMS id type x y z
1 4 -0.840471 1.85575 4.73626
2 4 0.171445 4.68488 3.26025
3 1 0.897818 1.24133 5.78513
174 2 -1.34721 5.11573 5.67731
5 1 2.11578 4.59772 3.34179
6 1 -0.457569 4.82155 1.43398
8 2 1.66447 2.05033 5.96578
9 2 1.25722 0.329065 5.2798
10 2 0.376935 0.987447 6.75969
312 2 6.00418 0.392186 2.87516
12 2 1.98685 3.45065 3.72598
13 2 2.94101 5.27622 3.92937
14 2 2.09781 4.77673 2.16288
182 2 -0.398585 4.84944 7.7907
16 2 -0.904274 3.9314 0.93774
17 2 0.301254 5.4584 0.760858
18 3 -0.300803 3.2792 3.98019
24 4 6.00255 1.80145 4.02467
45 1 4.37712 1.08831 3.26549
47 1 3.57592 0.902737 8.63658
263 4 4.4263 3.95218 1.35348
51 1 3.24599 3.43492 6.34008
78 2 4.04904 1.15616 2.16166
79 2 4.03702 2.4273 4.03699
80 2 3.93688 0.223584 3.84154
285 2 0.711764 0.751635 0.306493
82 2 3.94093 1.41628 7.61559
265 2 3.18036 3.25617 2.19812
154 1 -2.56656 5.25669 5.47156
15 2 -1.33219 5.62554 1.91162
93 2 3.8202 2.45973 6.71196
94 2 2.7876 3.36867 5.37392
95 2 2.47514 3.86066 7.3133
117 3 6.32257 1.4857 5.48875
321 2 5.26028 0.266205 1.17578
162 2 3.21644 -0.462869 7.25328
266 3 5.19666 2.93044 0.487179
267 3 3.83443 5.24359 0.777605
283 1 1.71984 1.26533 0.433823
175 2 -2.86872 4.40897 4.82484
311 2 1.1043 3.94289 0.584574
286 2 1.98493 1.35296 1.46525
46 1 6.03742 0.137338 0.293061
59 2 -1.65432 1.93144 8.22624
176 2 -3.07667 5.3309 6.42029
32 4 4.1603 5.09987 6.50075
322 2 7.19139 -0.0722119 0.778369
7 2 0.520675 5.95943 4.47056
19 4 1.46734 0.729599 16.9515
21 4 2.52531 -0.951097 12.5106
22 4 1.32619 1.56866 11.4229
23 4 -0.494377 2.63854 13.7056
25 4 5.87669 -0.260471 16.904
27 4 4.4032 1.65776 10.1861
29 4 3.87341 0.605053 14.8296
149 4 -0.0011878 5.05181 10.0627
34 4 0.0705569 4.47265 16.1928
44 1 -1.28451 1.09246 14.5342
48 1 5.46998 0.342866 11.0539
58 2 0.0593924 0.725767 15.959
60 2 -2.04445 3.00928 12.9111
75 2 -1.6716 1.28268 15.5952
326 2 6.96899 -0.965542 11.8908
170 2 -0.247038 3.27133 9.90874
76 2 -0.430636 0.306154 14.3609
84 2 5.8561 -0.473606 10.3712
85 2 4.9853 -0.073253 11.9664
171 2 2.92122 3.56893 12.2435
112 3 0.131034 1.75354 9.9658
113 3 1.52256 -0.062394 11.5489
114 3 0.597237 2.20062 12.6586
116 3 2.79783 2.29024 11.2124
119 3 3.27029 0.00596536 13.5376
120 3 5.0588 -0.448831 15.492
121 3 2.67843 0.941874 15.9693
122 3 5.26839 2.88375 9.67257
125 3 4.73524 1.88062 14.2613
126 3 -0.148892 3.53073 14.9722
20 4 -1.07549 0.888707 9.39111
198 3 1.53344 5.18685 10.5161
150 4 2.52608 5.1837 11.78
62 2 -0.98754 3.99208 17.4793
83 2 2.47347 0.912332 8.82994
81 2 4.00915 -0.148413 8.86666
284 2 2.62251 -1.18227 17.2698
86 2 6.35008 1.06093 11.2897
127 3 1.4915 4.58753 16.8566
161 2 -7.58071 11.9653 6.29235
143 4 -5.90156 11.4835 6.37728
144 4 -2.25968 6.86278 4.5909
146 4 -2.49505 9.24672 6.49872
219 2 -5.81729 9.67502 3.18323
57 1 -5.03737 7.22442 8.48617
184 2 -1.14444 6.61663 8.43516
230 2 0.251866 8.83182 5.50265
163 2 -3.37935 6.86639 3.42079
164 2 -0.595641 7.17056 3.80901
166 2 -4.17481 9.65958 6.77031
167 2 -1.8872 10.6747 5.70669
169 2 -5.44027 11.657 4.81893
328 2 -4.48068 8.08623 8.10667
234 2 -0.316202 10.5601 6.47343
183 2 0.706843 6.5191 8.1382
218 2 -7.12729 11.6064 1.88069
192 3 -2.53908 8.03252 5.53589
193 3 -5.70198 10.0043 6.71508
199 3 -1.78177 8.92046 7.78671
206 4 -2.31041 10.0785 2.16037
207 4 0.366494 10.0137 4.01874
213 1 -3.83635 10.1634 3.23852
214 1 0.729421 7.90571 4.79693
215 1 0.051085 11.1095 5.57601
220 2 -2.22766 11.3904 1.02248
221 2 -2.41684 8.84738 0.877217
227 2 -3.70854 10.4204 4.31866
228 2 -4.01298 8.90237 3.0264
229 2 -4.40832 10.9392 2.6083
231 2 1.71827 8.22506 4.23988
232 2 0.968117 7.06924 5.52912
235 2 -0.697657 11.8646 5.10149
242 3 -1.08005 10.0185 3.03812
291 1 2.83007 7.53907 1.78234
325 2 -3.07503 7.26205 0.14143
157 1 -0.223866 5.9518 8.44806
294 2 1.5926 7.58916 1.71553
303 2 -4.81065 9.20836 0.905909
30 4 3.11793 6.81077 0.139936
293 2 3.17071 6.96872 2.72851
301 1 -4.1067 8.77828 0.0680466
259 1 -6.73663 9.85187 15.8987
64 2 -0.439158 6.05726 15.7654
115 3 -6.40994 11.0329 13.3841
145 4 -2.01861 6.45032 12.3478
148 4 -4.63472 9.84245 10.6554
151 4 -1.83178 9.8696 9.31222
274 2 -0.824506 8.83927 17.0088
152 4 1.91621 7.89888 13.4523
155 1 -1.02322 6.78623 13.9882
156 1 -4.68472 8.24918 11.8053
275 2 -0.359559 8.09664 15.4105
320 2 -2.38545 10.4646 17.0266
165 2 -2.73865 7.92292 11.7997
319 2 -5.84713 8.26939 12.025
188 2 -1.46592 10.5523 13.0882
177 2 -0.874505 7.90378 13.6991
178 2 -0.191291 6.03114 13.8528
179 2 -1.82967 6.5645 14.7541
180 2 -4.36953 7.28556 11.1945
181 2 -4.08018 8.3949 12.8425
153 4 0.113622 9.72518 11.6977
194 3 -3.17663 5.5691 12.9087
273 2 -0.0219713 10.1245 15.6695
195 3 -5.86469 9.75292 9.61703
196 3 -4.51693 11.1403 11.6224
197 3 -1.09476 5.7936 11.2222
200 3 -1.58549 11.4423 9.11491
201 3 -3.2832 9.63602 9.95303
202 3 2.13597 6.14947 13.0472
203 3 -0.613993 9.35333 10.3228
302 2 -3.71757 7.42132 16.8095
329 2 -4.44883 6.55135 9.25153
159 1 -0.654183 11.3086 12.4654
272 2 1.47874 8.06358 17.0764
262 2 -5.76114 10.3679 16.1749
270 1 -0.01351 8.86294 16.2455
204 3 1.04431 8.78738 12.5673
172 2 1.34725 8.02468 15.0937
28 4 7.68609 1.5342 6.53052
31 4 6.49407 3.75965 8.49141
35 4 9.95549 1.46127 4.28363
37 4 12.1764 1.23131 6.29423
40 4 10.3932 4.03113 2.5735
296 2 10.2683 0.0240879 1.60021
264 2 5.40362 4.3668 2.70585
55 1 11.1117 3.91326 0.658546
315 2 15.3571 -0.266281 3.88138
65 2 9.38256 0.25767 3.23476
69 2 10.0639 5.49894 3.56106
70 2 9.4423 4.05799 1.03697
49 1 7.0075 3.26851 2.99622
89 2 6.92125 4.31524 3.45231
87 2 6.70128 3.2156 1.89587
88 2 8.09582 2.8037 3.10323
106 2 11.2101 2.77788 0.479999
107 2 12.1805 4.31307 2.09991
108 2 9.42243 4.75378 5.05248
118 3 7.87684 0.238697 7.37838
123 3 7.45372 2.76224 7.63339
124 3 5.43721 5.06273 7.39341
128 3 8.88331 1.73985 5.43054
129 3 15.0247 -0.491496 8.63537
131 3 13.6392 2.03298 5.77538
132 3 11.2922 0.746526 4.65943
133 3 12.6183 -0.243743 6.89444
137 3 10.1801 2.71582 3.43293
139 3 11.583 2.08252 7.46346
140 3 10.5336 4.43867 8.04952
316 2 13.4263 0.191482 3.74307
96 2 4.68009 4.81249 4.49996
330 2 13.0609 1.02052 0.713405
4 1 14.5471 0.487919 3.52757
281 2 10.2685 5.58336 0.16528
41 4 11.1902 3.02607 8.64662
11 2 14.7037 0.896559 2.51099
56 1 9.54132 5.8472 5.40556
323 2 8.37002 0.666031 1.48101
110 2 8.33879 5.72508 6.8226
187 2 4.66527 4.19245 10.7196
309 2 13.8367 -1.2836 14.2628
33 4 5.6597 3.10182 13.8911
36 4 9.63064 1.29324 10.6734
38 4 8.85433 0.572177 15.7327
39 4 12.3465 -0.0810779 11.1967
50 1 7.52418 4.7594 9.6028
53 1 7.43925 2.46914 13.3698
54 1 9.59733 -0.536095 14.5577
327 2 8.32384 -1.23354 13.155
63 2 4.98873 3.85289 12.4167
66 2 8.65662 2.05258 11.8837
67 2 8.56626 2.08777 14.9826
68 2 12.8667 -0.769897 12.6944
310 2 12.2494 -0.460171 14.7882
77 2 13.5117 1.05762 13.7274
91 2 8.61243 4.34031 9.29195
92 2 7.13626 4.42865 10.6328
99 2 7.04058 2.72582 12.1556
100 2 7.05391 1.35307 13.917
101 2 7.87445 3.45693 14.0893
102 2 10.7511 -0.929784 14.5646
103 2 9.34793 0.283468 13.5767
104 2 8.83094 -1.43023 14.7075
130 3 8.48753 0.416634 10.0495
134 3 7.38319 0.16235 16.3357
135 3 13.4384 0.685253 10.4142
136 3 10.8638 0.542666 11.3279
138 3 10.1405 2.39858 9.71685
141 3 5.7379 4.36311 14.9839
249 4 11.2354 4.64167 13.6235
250 1 11.7332 2.74638 13.2428
304 1 13.693 -1.62932 17.4727
71 2 12.5299 3.54449 9.54521
253 2 12.0974 2.69236 12.1721
254 2 10.6675 2.3067 13.2565
313 2 10.0813 0.701974 17.0392
256 2 9.51526 4.62462 12.0391
306 2 14.3992 -0.970147 16.7772
252 2 12.3349 2.44629 14.0601
307 1 12.7484 -1.40323 14.5977
26 4 8.0672 -0.585313 8.79491
105 2 11.5942 2.44409 17.3406
158 1 4.34468 5.223 11.2106
109 2 8.92659 6.49815 4.75497
42 4 10.0724 5.83051 7.42087
147 4 8.87735 9.94262 8.38164
299 2 1.05545 10.2301 8.69565
97 2 5.37229 6.83759 5.04977
297 2 0.595752 11.8097 1.82528
224 2 6.1282 6.5057 7.63741
98 2 3.79844 6.7798 3.94051
72 2 10.785 6.25718 5.36606
205 4 8.24124 9.94644 2.59218
208 4 5.67606 12.0382 7.18475
209 4 3.52589 10.8723 3.48374
210 4 6.45969 8.2285 7.5573
211 4 6.03416 10.142 5.04343
212 1 7.56868 10.5044 0.927109
216 1 4.03944 10.5035 1.70492
324 2 1.66503 11.6425 7.54115
61 2 3.45537 6.85787 6.17103
222 2 5.09739 10.5262 7.82244
223 2 3.66888 12.5163 3.88572
317 2 6.53126 10.6651 1.12074
225 2 7.9821 8.84256 0.981312
244 3 7.83372 8.71919 8.10263
305 2 6.01481 12.5501 0.434945
233 2 1.04165 11.6352 5.80478
292 2 3.30808 8.63931 1.81054
236 2 4.93206 9.75684 1.69161
237 2 4.36884 11.6464 1.53329
238 2 3.13268 10.1755 1.04126
243 3 1.93119 10.438 3.57276
245 3 7.1036 9.92827 3.80286
246 3 4.53008 10.1182 4.40586
247 3 6.09756 8.85474 6.11914
248 3 6.55384 11.8077 5.88282
240 2 4.14589 9.21769 8.42156
52 1 4.39291 6.32257 4.82708
168 2 7.95333 11.3862 8.52005
295 1 0.904944 12.8351 1.32362
298 1 1.37628 11.3399 8.60325
282 2 9.81895 8.42027 0.0273583
43 4 5.6378 5.46931 16.093
73 2 6.32863 6.88611 15.5429
226 2 8.02958 8.97745 17.4938
142 3 4.26284 5.71794 16.7651
261 2 7.98132 10.3902 16.4752
160 1 3.65206 8.4851 13.2468
173 2 0.98937 11.2819 11.4549
185 2 5.03362 5.62014 12.0252
239 2 5.02556 7.99004 9.52575
268 4 1.47177 9.88644 17.2282
189 2 3.52516 9.49224 12.8273
190 2 4.00836 7.7066 12.4872