ITEM: TIMESTEP
0
ITEM: NUMBER OF ATOMS
331
ITEM: BOX BOUNDS xy xz yz pp pp pp
-8.3499999999999996e+00 1.5708700000000000e+01 -8.2042000000000002e+00
-1.8303519999999998e+00 1.3086800000000000e+01 -1.4580000000000001e-01
0.0000000000000000e+00 1.7524799999999999e+01 -1.8303519999999998e+00
ITEM: ATOMS id type x y z
1 4 -0.763128 2.03858 4.48997
2 4 -0.153796 4.33538 2.19687
3 1 0.12461 2.97783 5.92223
174 2 -2.48394 5.4698 7.47064
5 1 1.74532 4.79885 3.4647
6 1 -1.59543 5.83228 1.79059
8 2 0.708832 3.94208 5.61426
9 2 0.838029 2.04894 6.12556
10 2 -0.772661 3.10965 6.69019
11 2 1.2914 0.337625 4.07736
12 2 1.57531 4.03307 1.76141
13 2 1.09158 4.38335 4.39039
14 2 2.83561 4.89835 3.82987
263 4 4.33274 4.339 1.43474
16 2 -2.5027 5.43959 2.36551
17 2 -1.27555 4.67343 0.611418
18 3 -0.735962 3.20517 3.08754
24 4 5.00612 1.2794 4.34141
45 1 3.23563 2.16719 4.6917
47 1 3.59558 0.660675 8.43032
176 2 -1.84291 3.96587 6.67404
7 2 1.34445 5.83127 3.20542
78 2 2.72213 3.12783 4.19156
79 2 3.82401 2.44132 5.80025
80 2 2.4825 1.35659 4.78116
46 1 6.25773 0.256576 0.362963
82 2 4.09238 1.08547 7.58375
51 1 2.59304 5.58137 7.00779
163 2 -3.21657 5.1628 5.35565
154 1 -2.07126 5.05129 6.52168
93 2 2.614 4.64537 7.65403
285 2 2.52967 1.76954 0.609899
265 2 3.11509 3.74625 2.51003
117 3 5.85718 0.679757 5.54749
284 2 0.600022 2.14173 0.959102
321 2 5.52529 0.473116 1.29115
94 2 2.16563 5.25937 5.90237
267 3 3.71706 5.62248 0.74846
266 3 5.0264 3.18199 0.672527
96 2 4.14774 3.9775 4.62267
4 1 0.173592 0.419182 3.97592
312 2 3.52528 0.430912 3.84448
162 2 2.61265 -0.0364522 6.88846
170 2 -0.681358 5.41809 7.90511
316 2 -0.142825 0.499745 2.87074
87 2 5.6107 2.44379 2.19114
175 2 -0.43651 5.70356 6.078
283 1 1.40333 1.79178 0.144886
15 2 -0.496326 6.20066 2.57617
83 2 2.49467 0.871442 8.523
49 1 6.15876 2.10678 3.18564
19 4 1.60013 1.17774 16.363
21 4 2.45657 -1.02953 13.0224
22 4 1.22472 1.37541 11.5574
23 4 -0.954482 2.63365 13.5818
25 4 6.13177 0.160366 17.269
27 4 4.10945 1.6078 10.0066
29 4 4.37834 0.627739 14.6575
150 4 2.67895 5.32638 11.0141
81 2 4.01068 -0.334746 8.83419
127 3 1.27539 4.44493 16.6058
48 1 5.40258 0.642905 11.0113
58 2 0.162406 0.770525 15.4878
44 1 -1.50727 1.04028 14.3951
34 4 -0.312682 4.51507 16.0838
75 2 -0.76033 0.224754 14.122
198 3 1.53848 5.44765 9.71946
311 2 1.40096 2.907 16.582
84 2 5.84259 -0.24916 10.263
85 2 4.8502 0.196242 12.0401
171 2 2.4963 3.6508 11.2827
112 3 0.545296 0.374458 10.028
113 3 1.60154 0.237623 12.5498
114 3 0.150323 2.40796 12.362
116 3 2.59386 2.04723 11.2485
119 3 4.14837 -0.459297 13.4537
120 3 5.55588 0.125625 15.7154
121 3 2.99733 0.885317 15.5576
122 3 5.01 2.79331 9.47593
125 3 4.91793 2.00206 14.0122
126 3 -0.684559 3.48387 14.9353
286 2 0.976682 -0.972249 17.0618
59 2 -0.784915 2.56631 9.48957
60 2 -2.51819 3.19209 12.8784
20 4 -0.951141 0.883988 9.60973
77 2 -1.74806 1.20953 15.4898
326 2 7.45885 -0.966105 12.4046
62 2 -1.36649 4.44244 17.418
95 2 1.93503 6.45929 7.54853
143 4 -6.3811 11.5358 6.49519
144 4 -1.93019 6.56234 5.29422
146 4 -2.50636 9.30597 6.9164
294 2 1.66242 8.30122 0.973815
300 2 0.316171 10.1241 7.9775
231 2 1.97826 8.25703 4.76012
322 2 -0.772863 12.9804 0.789189
317 2 -5.46239 9.75935 3.82678
235 2 -1.24957 11.5778 5.1306
166 2 -4.12283 9.82876 7.16214
167 2 -1.80397 10.6034 5.97635
169 2 -6.16478 11.2566 4.79035
164 2 -1.99777 6.62201 3.51459
230 2 0.32688 8.74987 5.86074
234 2 0.196106 11.0519 6.29745
183 2 -0.242138 7.46002 7.56945
192 3 -2.33875 7.92353 6.05421
193 3 -5.725 10.3224 7.29296
199 3 -1.82269 9.18067 8.29104
206 4 -1.78665 9.1372 1.33541
207 4 0.396673 9.85797 3.91721
213 1 -3.12955 10.2725 1.04355
214 1 0.847868 8.30489 4.78355
215 1 -0.147405 11.2517 5.16513
184 2 1.50993 7.95891 8.17239
221 2 -2.30473 7.27567 1.18515
227 2 -3.96769 9.40455 1.61198
242 3 -0.773621 9.59552 2.5089
229 2 -2.86377 11.2433 1.69026
157 1 0.511416 7.67137 8.47915
232 2 0.288389 7.30478 4.41508
328 2 -5.82954 8.56254 7.3716
261 2 -6.92843 10.2951 16.3939
64 2 -0.650256 6.10138 15.5107
115 3 -6.69187 11.224 14.3275
145 4 -1.86615 6.41267 12.2243
148 4 -4.94543 9.76377 10.914
151 4 -1.94275 10.2679 9.70369
200 3 -1.73064 11.7764 9.13942
153 4 0.0446523 9.91879 12.0555
155 1 -1.1055 7.17535 13.8765
156 1 -4.76353 8.09777 11.9215
274 2 -0.740035 11.01 16.4896
182 2 -0.0699613 8.34116 9.26279
165 2 -1.97691 8.21175 12.6572
149 4 0.0930433 6.0352 9.34955
258 4 -7.07602 9.69992 14.1548
177 2 -0.362798 7.78752 14.3811
178 2 -0.535054 5.73801 13.5422
179 2 -2.00722 7.01854 14.5733
180 2 -3.96261 7.67427 11.2326
181 2 -4.40383 8.16319 12.9741
220 2 -1.20644 7.56463 17.3165
188 2 -1.20516 10.4401 13.2348
194 3 -3.1737 5.69506 12.4902
195 3 -6.1249 9.51697 9.87157
196 3 -5.45065 10.9079 11.8663
197 3 -0.936718 6.1712 10.5785
147 4 -7.0537 10.4137 8.85458
201 3 -3.40239 10.064 10.31
202 3 2.34981 6.26847 12.3267
203 3 -0.757759 9.80827 10.6462
168 2 -7.26922 11.9321 9.62997
275 2 -0.111954 9.22912 15.7913
204 3 1.06174 8.82659 12.626
260 2 -5.74317 8.86981 13.4574
303 2 -4.80154 6.38424 17.0893
320 2 -2.55958 10.9201 17.0228
30 4 3.04861 5.06975 17.4492
172 2 1.62137 7.50247 14.7456
270 1 0.0127325 10.3961 15.7679
228 2 -3.48874 8.61343 17.4543
28 4 7.30173 1.22794 6.3788
31 4 6.03439 3.54382 8.39607
35 4 9.5521 1.98278 4.17063
37 4 12.082 1.49074 5.93869
40 4 10.9196 4.09104 2.49523
330 2 13.0481 1.42817 0.475557
105 2 12.1314 3.3658 0.636463
55 1 12.0402 2.81591 1.57944
56 1 7.93284 5.08168 5.49318
65 2 9.32816 0.741947 2.99742
69 2 11.7436 5.09366 3.64825
70 2 10.2598 5.47788 1.48188
313 2 10.444 2.27722 0.50932
89 2 6.34818 3.00016 3.84722
296 2 9.07436 0.698542 0.532078
32 4 4.3218 5.67524 6.4484
106 2 11.5142 1.77355 1.61835
107 2 12.9666 3.01375 2.39466
108 2 7.99402 3.96734 5.47177
118 3 8.05584 0.0287451 7.13059
123 3 6.79474 2.50523 7.40623
124 3 5.14039 4.7983 7.4948
128 3 8.3121 1.96333 5.23199
129 3 14.2997 0.323384 8.12393
131 3 13.4923 1.68228 5.11503
132 3 10.8745 1.63614 4.99109
133 3 11.998 -0.341487 6.48883
137 3 9.77237 3.34587 3.37136
139 3 12.0193 2.48222 7.26851
140 3 10.2939 4.40651 7.37088
42 4 9.63017 5.6086 6.56896
264 2 5.34963 4.86035 2.74703
26 4 8.10797 -0.501783 8.62902
97 2 5.86267 4.83067 4.29817
109 2 7.03033 5.41085 4.84318
41 4 11.0588 3.28461 8.23619
110 2 7.67265 5.49675 6.71999
88 2 7.08295 1.4576 3.05669
52 1 4.7308 5.08005 4.57311
98 2 4.26094 5.85102 3.94594
72 2 9.62077 5.63783 4.78555
237 2 12.7866 -0.291784 3.46832
315 2 15.3613 -0.440914 4.48963
309 2 13.6703 -1.32423 14.144
68 2 12.4475 -0.615866 12.7116
33 4 5.89386 3.33689 13.9115
36 4 9.76441 1.46684 10.3742
38 4 9.18321 1.23474 16.9793
39 4 12.2648 -0.102049 11.0985
50 1 7.32505 4.35114 9.49925
53 1 7.41959 3.23821 12.4732
54 1 9.41862 0.335627 15.3887
306 2 14.4507 -0.651597 16.7712
63 2 5.82056 4.04722 12.3002
66 2 9.00088 2.42563 11.6269
67 2 9.39064 3.01199 17.2824
71 2 12.0388 4.35818 9.13062
281 2 8.60424 4.6355 16.5234
327 2 8.76106 -0.674458 13.7422
90 2 6.97119 5.45305 9.47045
92 2 7.4669 3.96236 10.5959
99 2 8.255 4.00153 12.2119
100 2 7.27036 2.29832 11.7159
101 2 7.81725 2.71945 13.9086
102 2 10.6165 0.466583 15.3366
103 2 8.74313 1.06044 14.7417
104 2 8.95552 -0.800985 15.5384
130 3 8.65436 0.447509 9.72633
134 3 7.71628 0.686963 17.4548
135 3 13.6015 0.637224 10.7137
136 3 10.9965 0.71114 10.933
138 3 10.2911 2.51738 9.29236
141 3 5.94736 4.56909 15.0253
249 4 10.9631 4.82033 12.9397
250 1 11.2391 2.91093 13.061
187 2 4.84741 4.88941 10.604
252 2 11.8479 2.65416 13.9356
253 2 11.6913 2.54398 12.1261
254 2 10.1689 2.46289 13.1363
304 1 13.6272 -1.20889 17.3537
256 2 9.37093 4.34606 10.832
76 2 13.1526 1.02503 13.6818
302 2 11.2872 4.51774 17.045
91 2 8.24762 4.24402 8.82328
310 2 11.7795 -1.02115 14.2449
251 1 9.76428 5.20632 11.5289
301 1 10.2155 4.6359 17.412
86 2 6.25921 1.46611 11.3518
222 2 4.77488 11.1376 8.44964
218 2 9.8795 8.14179 5.63862
57 1 9.68117 7.40028 7.41692
61 2 4.65045 7.38979 6.68879
299 2 1.57762 11.3786 7.40613
226 2 8.92596 8.89929 2.4577
298 1 0.977725 10.9982 8.20256
244 3 7.32031 9.68742 8.60048
248 3 6.04935 11.5108 6.14554
205 4 8.48709 8.49118 4.60746
212 1 9.13468 9.77301 3.45372
209 4 3.65598 10.6971 3.78463
247 3 4.93454 8.95039 6.99129
211 4 5.76079 9.70992 5.59702
243 3 2.10055 10.3934 3.48383
216 1 4.33641 12.0013 2.61747
111 2 8.57438 7.22007 7.70216
219 2 8.17199 6.73573 4.49533
245 3 7.1956 9.08551 5.24892
223 2 3.54655 11.8081 5.13855
325 2 10.2594 6.96538 0.784887
208 4 5.24866 12.3108 7.26802
210 4 6.01061 8.89454 8.55779
297 2 2.04719 12.4425 2.03225
233 2 0.471054 12.0295 4.54237
295 1 1.02323 12.4077 1.50525
236 2 5.28902 11.6114 2.10973
246 3 4.68113 9.57313 4.23749
238 2 3.46218 12.3265 1.88704
292 2 3.43821 9.03768 1.03256
161 2 7.60098 11.7234 6.57269
272 2 1.30833 10.7747 0.812489
305 2 5.99241 12.8661 0.50635
225 2 8.62714 10.7463 3.36389
323 2 0.224141 12.3424 2.32337
329 2 10.4246 6.94474 8.19445
291 1 2.75904 8.14811 1.29106
293 2 2.94454 7.62239 2.27969
43 4 5.54967 5.71894 15.9651
73 2 5.78018 7.20339 15.2453
255 2 8.914 5.77887 12.0974
142 3 4.01887 5.71564 16.3919
74 2 6.62162 5.76728 17.2717
160 1 3.87749 8.40084 12.9862
159 1 0.187313 11.7061 12.8474
185 2 4.58932 6.69899 11.3354
276 2 5.83634 8.72033 17.0373
282 2 8.81715 7.32431 15.7017
189 2 3.59071 9.34325 12.4777
190 2 4.46917 7.63519 12.3145
191 2 4.11089 8.4109 14.0753
217 1 4.80694 9.76948 9.84642
239 2 4.79315 8.63813 10.4237
262 2 8.99944 8.55435 16.9182
241 2 5.47423 10.5787 10.401
240 2 3.7626 10.0836 9.49525
257 2 10.3428 5.93316 10.8449
307 1 4.442 11.3218 14.2748
259 1 8.46918 9.19819 16.1583
269 4 4.50752 10.6944 16.2741
271 1 5.27271 8.82402 16.1425
158 1 4.35312 5.93254 10.5364
318 2 7.2765 9.06861 16.1565
277 2 5.97074 8.96213 15.073
278 2 4.3977 8.08028 15.9674
279 3 2.97051 10.4923 16.6908
280 4 9.77638 5.85184 15.8187
186 2 4.27051 6.30617 9.48933
268 4 1.42251 10.334 17.0897
287 1 6.95721 9.34738 13.3447
288 2 6.65459 8.29165 13.5116
289 2 7.35266 9.54746 12.2703
290 2 6.00608 10.1962 13.7663
152 4 2.14576 7.68806 13.1596
308 2 4.23445 10.2698 13.7098
314 2 3.78098 11.4672 10.3363
331 3 10.3923 5.35367 14.3858
273 2 0.160127 10.8965 14.6744
324 2 1.5683 10.9149 9.22441
319 2 9.98551 7.46717 11.7793
224 2 6.4572 7.30446 8.78586
173 2 1.1556 11.699 11.8417
ITEM: TIMESTEP
100
ITEM: NUMBER OF ATOMS
331
ITEM: BOX BOUNDS xy xz yz pp pp pp
-8.3499999999999996e+00 1.5708700000000000e+01 -8.2042000000000002e+00
-1.8303519999999998e+00 1.3086800000000000e+01 -1.4580000000000001e-01
0.0000000000000000e+00 1.7524799999999999e+01 -1.8303519999999998e+00
ITEM: ATOMS id type x y z
1 4 -0.824571 2.18244 4.50622
2 4 -0.19809 4.34278 2.21766
3 1 0.131284 3.08875 5.9211
322 2 7.34042 0.112448 1.01041
5 1 1.68487 4.64894 3.4798
6 1 -1.19 5.95589 1.74792
8 2 0.725105 4.13663 5.98639
9 2 0.734407 2.10285 6.10815
10 2 -0.756006 3.17019 6.66774
11 2 1.37561 0.795282 4.41632
12 2 1.59692 3.66343 2.01644
13 2 1.10405 4.11179 4.49127
14 2 2.82376 4.74637 3.87095
263 4 4.41542 4.39598 1.48742
16 2 -2.19947 5.94435 2.16676
17 2 -0.825817 4.63792 0.534316
18 3 -0.931779 3.2334 3.11879
24 4 5.01129 1.31777 4.37342
45 1 3.23373 2.15261 4.93735
47 1 3.33235 0.695726 8.55024
176 2 -1.74127 4.1045 6.80838
7 2 1.28288 5.78608 3.15412
78 2 2.72334 3.08212 4.38263
79 2 3.85973 2.49388 5.92336
80 2 2.48084 1.25229 5.11834
46 1 6.2653 0.424358 0.557126
82 2 3.94409 1.18983 7.61356
51 1 2.65662 5.4556 6.87182
163 2 -3.50669 5.32295 5.70199
154 1 -2.00617 5.24656 6.65651
93 2 2.66731 4.44929 7.40371
285 2 2.20889 2.26066 0.947077
265 2 3.26343 3.82128 2.59531
117 3 5.86621 0.589307 5.41839
284 2 0.327323 1.82396 0.578462
321 2 5.40057 0.513803 1.27837
94 2 2.21376 5.43832 5.79933
267 3 3.69736 5.49233 0.599573
266 3 5.12258 3.28303 0.795667
96 2 4.17066 3.90589 4.64862
4 1 0.363247 0.780483 3.95109
312 2 3.49511 0.629919 3.76026
162 2 2.67622 -0.11935 6.87575
170 2 -0.485583 5.31694 7.96224
316 2 0.438284 0.583243 2.83834
87 2 5.70498 2.52501 2.32963
83 2 2.15571 0.666098 8.46559
283 1 1.33413 1.76909 0.213738
49 1 6.24514 2.13766 3.29509
174 2 -2.26563 5.73407 7.58554
175 2 -0.488148 5.87698 5.99164
19 4 1.5985 1.09559 16.3369
21 4 2.4332 -0.989115 13.1606
22 4 1.087 1.24549 11.563
23 4 -0.894093 2.50995 13.5664
25 4 6.0739 0.269239 17.258
27 4 4.06718 1.6526 10.0012
29 4 4.40677 0.694422 14.791
150 4 2.62054 5.2834 11.0134
81 2 3.7833 -0.353929 8.93978
127 3 1.06034 4.42648 16.6891
48 1 5.21306 0.595706 11.1465
58 2 0.425072 0.387889 15.2737
44 1 -1.31447 0.811593 14.4303
34 4 -0.278588 4.49417 16.0204
75 2 -0.556325 0.135664 13.9391
198 3 1.46653 5.2582 9.89006
311 2 1.28783 2.77405 16.6907
84 2 5.63916 -0.239348 10.4425
85 2 4.70011 0.158348 12.0975
171 2 2.53609 3.66531 11.655
112 3 0.468262 0.512849 10.0076
113 3 1.47122 0.0542323 12.5243
114 3 0.0936748 2.13267 12.432
116 3 2.5695 2.18648 10.9574
119 3 4.09849 -0.361685 13.6794
120 3 5.57144 -0.0317728 15.7285
121 3 3.01456 0.886522 15.6665
122 3 4.99436 2.77355 9.30675
125 3 4.9883 2.0954 14.0714
126 3 -0.492799 3.45035 14.8271
286 2 1.4405 -1.06227 17.3286
59 2 -1.10284 2.60467 9.27439
60 2 -2.33326 3.18517 12.8044
20 4 -0.961194 0.949289 9.44812
77 2 -1.28186 0.877031 15.5684
62 2 -1.43619 4.31504 17.3054
86 2 6.07929 1.34584 11.446
95 2 2.19954 6.31351 7.46032
143 4 -6.28008 11.4475 6.49035
144 4 -2.17696 6.59075 5.33501
146 4 -2.50297 9.32233 6.87889
294 2 1.70064 8.01698 1.22442
300 2 0.431087 10.0958 7.74801
231 2 1.87864 8.38804 5.48598
15 2 -0.227172 6.54104 2.38188
317 2 -5.39963 9.98008 3.60586
235 2 -1.27959 11.5471 4.98581
166 2 -4.12103 9.83875 7.12125
167 2 -1.7402 10.5109 5.9117
169 2 -5.89705 11.1588 4.84938
164 2 -1.55438 6.28792 3.60625
230 2 0.0294614 8.55651 5.68958
234 2 0.219576 11.1597 6.21281
183 2 0.11743 7.57401 7.69035
192 3 -2.33304 7.98639 5.99283
193 3 -5.80451 10.3091 7.39331
199 3 -1.82236 9.28579 8.24816
206 4 -1.74554 9.19972 1.47375
207 4 0.572471 9.87347 3.87046
213 1 -3.01945 10.4801 0.879233
214 1 0.833735 8.35637 4.99142
215 1 -0.176809 11.2598 5.01076
184 2 1.87391 7.75004 8.50842
221 2 -1.44382 7.55086 0.761473
227 2 -3.3174 8.98947 2.16729
242 3 -0.640087 9.49617 2.58991
229 2 -3.06282 11.2699 1.66328
157 1 0.729379 7.6445 8.64989
232 2 0.684698 7.49102 4.31746
328 2 -5.86384 8.4882 7.53215
228 2 -4.00585 10.338 0.379278
261 2 -6.7191 10.1676 16.6663
64 2 -0.622279 6.01729 15.4335
115 3 -6.67334 11.313 14.508
145 4 -1.79316 6.03507 12.1583
148 4 -4.99198 9.81802 11.0688
151 4 -2.07193 10.1623 9.58632
200 3 -1.77377 11.73 9.18075
153 4 0.0516618 9.94216 12.1445
155 1 -1.20416 7.0311 13.7802
156 1 -4.9502 8.16693 12.0908
274 2 -0.427405 11.2513 16.393
182 2 0.400239 8.33439 9.49108
165 2 -1.98238 7.98439 12.6631
149 4 0.156686 6.02757 9.42299
258 4 -7.01718 9.77892 14.4167
177 2 -0.411965 7.69014 14.2953
178 2 -0.468609 5.51632 13.3295
179 2 -2.04043 6.73952 14.4981
180 2 -4.1357 7.65728 11.4099
181 2 -4.66049 7.96909 13.2027
172 2 2.0123 7.07052 14.6414
188 2 -1.05524 10.4189 13.4313
194 3 -3.1712 5.37801 12.5132
195 3 -6.38022 9.63961 10.0034
196 3 -5.31302 10.9307 12.1417
197 3 -1.04603 6.10845 10.6446
147 4 -7.13477 10.4591 8.84896
201 3 -3.62664 10.036 10.3738
202 3 2.28145 6.34608 12.1954
203 3 -0.858225 9.80982 10.9101
168 2 -7.26545 12.0206 9.40043
275 2 -0.112435 9.33368 15.6836
204 3 1.11731 8.87351 12.7442
260 2 -5.64499 8.75032 13.7995
303 2 -4.49913 6.32799 16.872
320 2 -2.42183 11.0344 17.1154
30 4 2.92723 4.88406 17.3129
220 2 -2.07969 8.66259 17.3457
28 4 7.3152 1.32969 6.26318
31 4 6.10102 3.5398 8.27231
35 4 9.56308 2.11099 4.18652
37 4 12.0618 1.52989 5.92015
40 4 10.9936 4.11707 2.53372
330 2 13.1212 1.51764 0.53982
105 2 11.9528 3.4605 0.570983
55 1 11.9915 2.83583 1.581
56 1 8.06716 5.18023 5.21815
65 2 9.26212 0.868788 3.02464
69 2 11.9275 5.09825 3.56495
70 2 10.3068 5.39497 1.46341
313 2 10.4363 2.46486 0.340036
89 2 6.61826 3.06495 3.83522
296 2 9.07418 0.640865 0.915126
32 4 4.41128 5.71112 6.35089
106 2 11.3947 1.86433 1.58207
107 2 12.9484 2.94783 2.28102
108 2 8.14201 4.05833 5.10156
118 3 7.91925 0.150385 7.09142
123 3 6.82378 2.52818 7.33224
124 3 5.28655 4.84158 7.34316
128 3 8.22375 2.04386 5.12317
129 3 14.4098 0.301276 8.02286
131 3 13.4418 1.693 5.09174
132 3 10.8158 1.6356 4.92249
133 3 12.0073 -0.237977 6.7215
137 3 9.79932 3.32574 3.20325
139 3 11.9656 2.37777 7.27882
140 3 10.3796 4.44199 7.39638
42 4 9.46982 5.69583 6.72652
264 2 5.36472 5.1119 2.69898
26 4 7.99352 -0.647028 8.45162
97 2 5.88419 4.94827 4.36486
109 2 7.18947 5.47628 4.44207
41 4 11.188 3.37231 8.32837
110 2 7.49145 5.42997 6.72621
88 2 7.1167 1.41755 3.00408
52 1 4.68284 5.00346 4.5038
98 2 4.1313 5.70275 3.80807
72 2 9.65202 5.81504 4.82416
315 2 15.3794 -0.015702 4.44387
237 2 13.0028 -0.338915 3.2494
309 2 13.6197 -1.20797 13.9577
68 2 12.4615 -0.765929 12.5728
33 4 6.08387 3.24801 13.9767
36 4 9.82633 1.42771 10.1625
38 4 9.13933 1.31585 16.8315
39 4 12.2149 -0.140559 11.0041
50 1 7.3502 4.24289 9.53182
53 1 7.47238 2.97849 12.4838
54 1 9.54038 0.355801 15.2773
306 2 14.2948 -0.668817 16.5731
63 2 6.09296 4.03512 12.1997
66 2 8.886 2.24844 11.3691
67 2 9.43855 3.07332 16.9683
71 2 12.3251 4.14287 9.34884
281 2 8.69988 4.60575 16.5874
327 2 8.88833 -0.758444 13.705
90 2 7.01296 5.32929 9.51813
92 2 7.40274 3.75706 10.5763
99 2 8.36228 3.69675 12.1694
100 2 7.23868 2.02297 11.8955
101 2 7.86939 2.60146 14.068
102 2 10.722 0.497061 15.3536
103 2 8.93484 1.07348 14.5615
104 2 9.06241 -0.731045 15.4105
130 3 8.75969 0.294868 9.47385
134 3 7.67176 0.941174 17.2109
135 3 13.5637 0.407193 10.4486
136 3 10.9497 0.683266 10.887
138 3 10.2201 2.60832 9.28276
141 3 5.85212 4.43672 14.9656
249 4 11.0857 4.78439 12.8827
250 1 11.4497 2.89908 12.9288
187 2 4.79298 4.8485 10.5319
252 2 12.0374 2.65946 13.9031
253 2 11.9583 2.51568 11.9641
254 2 10.3954 2.48929 13.0361
304 1 13.5507 -1.09948 17.3437
256 2 9.61685 4.24443 10.8876
76 2 13.3313 0.746685 13.9294
302 2 11.3435 4.30327 17.0122
91 2 8.30961 3.99343 8.9157
310 2 11.7772 -1.20083 14.4557
251 1 9.72549 5.11715 11.5281
301 1 10.3291 4.67424 17.4541
326 2 7.52852 -0.777796 12.3945
222 2 4.71781 11.1353 8.34776
218 2 9.72897 8.18536 5.83767
57 1 9.74235 7.3596 7.58904
61 2 4.80782 7.37285 6.41583
299 2 1.71846 11.3822 7.2529
226 2 8.88167 9.0524 2.47864
298 1 0.996938 10.9644 8.04553
244 3 7.20222 9.64577 8.68824
248 3 6.10263 11.6148 6.04669
205 4 8.50547 8.5014 4.61326
212 1 9.2189 9.8189 3.48928
209 4 3.58342 10.9097 4.06902
247 3 5.11415 8.91672 7.1461
211 4 5.84469 9.78881 5.60229
243 3 2.07588 10.342 3.59854
216 1 4.15711 11.9697 2.63887
111 2 8.64493 7.1668 8.14984
219 2 8.19281 6.78566 4.12692
245 3 7.21373 9.10886 5.22708
223 2 3.27326 11.9015 5.47187
325 2 10.6383 7.30102 0.710735
225 2 8.53074 10.7645 3.58544
210 4 5.79242 8.83549 8.55575
297 2 1.90603 12.5781 2.26622
233 2 0.52869 12.0629 4.48562
295 1 0.959893 12.6188 1.58231
236 2 4.79598 11.1795 2.00338
246 3 4.6817 9.77746 4.5098
238 2 3.31263 12.4665 2.04197
292 2 3.36238 8.94915 0.627768
161 2 7.71127 11.5291 6.48594
272 2 1.41043 10.8283 0.99539
293 2 3.39172 7.62835 2.08353
291 1 2.83164 8.0041 1.13807
323 2 -0.0238307 12.3755 2.1084
329 2 10.64 6.93747 8.22734
305 2 6.01387 12.7602 0.482653
208 4 5.22374 12.3224 7.1915
43 4 5.45484 5.55132 15.9012
73 2 5.97945 7.16994 15.2943
255 2 8.71773 5.53349 11.8
142 3 3.88932 5.63094 16.2391
74 2 6.46723 5.65723 17.2341
160 1 3.88046 8.51984 12.7051
173 2 1.30419 11.7064 11.8948
185 2 4.59316 6.78041 11.105
276 2 6.10073 8.75846 17.1238
282 2 8.938 7.3171 15.633
189 2 3.39198 9.55648 12.3597
190 2 4.5915 8.09212 11.9738
191 2 4.25056 8.46975 13.7712
217 1 4.44385 9.70562 9.69559
239 2 4.28654 8.61726 10.2256
270 1 0.254588 10.4498 15.7095
241 2 5.09958 10.4378 10.3199
240 2 3.4773 10.2108 9.32642
257 2 10.4057 5.9451 10.9967
307 1 4.50675 11.2817 14.3108
259 1 8.67456 9.1264 16.2824
269 4 4.49518 10.7895 16.2644
271 1 5.4275 8.86356 16.1233
158 1 4.26652 5.92125 10.3879
318 2 7.4032 9.00933 16.3546
277 2 6.04881 8.97514 15.1184
278 2 4.53167 8.17576 16.1893
279 3 2.89059 10.5467 16.7497
280 4 9.91874 5.84952 15.795
186 2 4.10001 6.32132 9.2872
268 4 1.39004 10.1379 17.1562
287 1 7.09296 9.45009 13.4414
288 2 6.77475 8.31513 13.5384
289 2 7.47704 9.61434 12.4297
290 2 6.07569 10.1635 13.733
152 4 2.17954 7.74525 13.0703
308 2 4.2786 10.2635 13.6663
314 2 3.72798 11.465 10.2226
331 3 10.4839 5.29846 14.392
273 2 0.271279 10.8636 14.602
324 2 1.48725 10.8473 9.07826
319 2 9.70521 7.77144 11.8987
224 2 6.11476 7.18918 8.82697
262 2 9.20492 8.32966 16.9007
159 1 0.249219 11.7498 12.7969
ITEM: TIMESTEP
200
ITEM: NUMBER OF ATOMS
331
ITEM: BOX BOUNDS xy xz yz pp pp pp
-8.3499999999999996e+00 1.5708700000000000e+01 -8.2042000000000002e+00
-1.8303519999999998e+00 1.3086800000000000e+01 -1.4580000000000001e-01
0.0000000000000000e+00 1.7524799999999999e+01 -1.8303519999999998e+00
ITEM: ATOMS id type x y z
1 4 -0.853987 2.30848 4.61244
2 4 -0.146449 4.51082 2.30421
3 1 0.129393 3.36576 5.92511
322 2 7.37757 0.138664 1.14634
5 1 1.81876 4.79856 3.48404
6 1 -1.30776 6.09636 1.62912
8 2 0.418072 4.38819 5.76396
9 2 1.0253 2.59607 5.94072
10 2 -0.52767 3.15576 6.87661
11 2 1.25355 0.754893 4.76451
12 2 1.63042 3.97563 1.92235
13 2 1.29407 4.28542 4.42111
14 2 2.91478 4.93539 3.90766
263 4 4.30109 4.38985 1.38367
16 2 -2.23456 5.59758 2.02883
17 2 -0.7645 4.59338 0.604932
18 3 -0.964823 3.48056 3.18143
24 4 5.15733 1.39673 4.31851
45 1 3.29924 2.18189 4.77532
47 1 3.21552 0.496447 8.62073
176 2 -1.88771 4.04555 6.82031
7 2 1.31025 5.88122 3.3236
78 2 2.76584 3.17543 4.28242
79 2 3.56167 2.34585 5.82918
80 2 2.54707 1.29192 4.8165
46 1 6.33452 0.640505 0.759179
82 2 3.34935 1.0323 7.65186
51 1 2.62575 5.54923 6.88421
163 2 -3.27074 5.09317 5.51367
154 1 -2.13472 5.06651 6.62303
93 2 2.55442 4.55565 7.37127
285 2 2.03104 2.25499 1.07453
265 2 3.27798 3.78722 2.62601
117 3 5.76089 0.690686 5.61368
284 2 0.245069 1.67659 0.382905
321 2 5.60824 0.837362 1.5907
94 2 2.21065 5.48217 5.81197
267 3 3.61648 5.50211 0.607611
266 3 5.10403 3.39912 0.630214
96 2 4.23443 3.9335 4.68935
4 1 0.294247 0.901627 4.07669
312 2 3.72039 0.600211 3.70382
162 2 2.69766 -0.245183 6.8479
170 2 -0.701422 5.15709 8.01813
316 2 0.609867 1.01215 3.01448
87 2 5.84558 2.8272 2.28825
174 2 -2.57477 5.44601 7.53991
283 1 1.42645 1.71811 0.171415
19 4 1.68272 1.1725 16.4497
21 4 2.55732 -1.01835 13.1744
22 4 1.1153 1.31037 11.5106
23 4 -0.872285 2.50082 13.5114
25 4 6.12368 0.363098 17.2601
27 4 3.97362 1.57618 9.9702
29 4 4.4015 0.650899 14.8095
150 4 2.62062 5.15182 11.1222
81 2 3.96503 -0.365227 8.86799
127 3 1.09555 4.36916 16.4794
48 1 5.28686 0.726977 10.9911
58 2 0.26799 0.93213 15.4777
44 1 -1.38062 0.836226 14.4367
34 4 -0.347224 4.39376 15.8871
83 2 2.17555 0.393275 8.93082
198 3 1.38472 5.19737 9.8425
311 2 1.37991 2.85147 16.5549
84 2 5.6926 -0.070448 10.2416
85 2 4.83352 0.257054 11.9037
171 2 2.77543 3.57669 11.7157
112 3 0.391135 0.546316 9.91962
113 3 1.53284 0.0625636 12.4165
114 3 0.0707434 2.2544 12.2718
116 3 2.4437 2.09319 11.1547
119 3 3.9634 -0.369957 13.4731
120 3 5.46484 -0.164654 15.8186
121 3 3.01839 1.02231 15.6675
122 3 4.78995 2.72778 9.29876
125 3 5.14306 1.9768 14.1474
126 3 -0.63429 3.40517 14.7556
286 2 1.76165 -1.03538 17.235
59 2 -1.17024 2.61442 9.43204
60 2 -2.38708 3.08387 12.8355
20 4 -1.1 0.931864 9.48139
186 2 3.72134 5.38595 9.08042
62 2 -1.43729 4.19307 17.2126
75 2 -0.527889 0.142625 14.2216
194 3 -3.19292 5.22186 12.2631
95 2 2.16062 6.33467 7.53963
143 4 -6.23823 11.3802 6.45151
144 4 -2.09047 6.50893 5.26159
146 4 -2.5195 9.28633 6.7977
294 2 1.40027 7.98483 1.08926
300 2 0.154946 10.0196 7.52161
231 2 1.64732 7.86553 5.18707
15 2 -0.449568 6.62478 2.57572
317 2 -5.08292 9.66016 3.84935
235 2 -1.2963 11.5766 4.72024
166 2 -4.07687 10.0033 6.85516
167 2 -1.6504 10.4865 5.94735
169 2 -5.62546 10.8378 4.94845
164 2 -1.77171 6.39518 3.50808
230 2 -0.0204151 8.66213 5.85326
234 2 0.219976 11.1607 6.06867
183 2 0.44643 7.77758 7.92336
192 3 -2.45422 7.92985 5.9393
193 3 -5.97004 10.3217 7.56124
199 3 -1.90174 9.20775 8.2248
206 4 -1.58191 9.24359 1.64236
207 4 0.518514 9.87368 3.96344
213 1 -2.76435 10.54 1.27561
214 1 0.593845 8.24151 4.94716
215 1 -0.176505 11.3883 4.98631
291 1 2.52907 8.01611 1.04812
221 2 -1.67627 7.44955 0.739421
227 2 -3.48651 9.33546 2.21794
242 3 -0.416825 9.52472 2.7151
229 2 -2.34922 11.4384 1.98522
329 2 -4.83162 7.07696 8.01929
232 2 -0.0232799 7.43612 4.34185
212 1 -6.15931 9.57731 3.45681
228 2 -3.4711 10.9103 0.472523
225 2 -6.7059 10.5658 3.36873
175 2 -0.619463 5.96311 6.21659
328 2 -5.87662 8.57481 7.65236
220 2 -1.45532 10.2178 0.0332915
261 2 -6.94392 10.0784 16.9685
64 2 -0.6979 5.96385 15.4615
115 3 -6.53361 11.2574 14.6379
145 4 -1.71554 5.98362 12.0899
148 4 -4.95407 9.76134 11.141
151 4 -2.04395 10.1473 9.55059
200 3 -1.81111 11.8565 9.15149
153 4 -0.0208414 10.0267 12.0411
155 1 -1.13871 6.95393 13.7634
156 1 -4.83097 8.09227 12.0918
274 2 -0.577909 11.0548 16.5096
182 2 -0.0371612 8.38791 9.6144
165 2 -1.84873 7.88317 12.484
149 4 0.0556732 6.0285 9.36082
258 4 -6.86446 9.72957 14.6483
177 2 -0.383111 7.62694 14.2324
178 2 -0.427186 5.42129 13.3539
179 2 -1.975 6.73394 14.4641
180 2 -4.39824 7.50318 11.1857
181 2 -4.0573 8.29498 12.9186
172 2 1.86838 7.65698 14.6856
188 2 -1.01104 10.6723 13.4389
184 2 1.8251 7.77665 9.28201
195 3 -6.37082 9.74117 10.1406
196 3 -5.30001 10.8313 12.2776
197 3 -0.854233 5.95275 10.6615
147 4 -7.13064 10.4576 9.01967
201 3 -3.56596 9.91685 10.1636
202 3 2.47138 6.24307 12.3213
203 3 -0.947045 9.89714 10.7897
157 1 0.68654 7.71862 9.03483
275 2 -0.0330863 9.36731 15.6551
204 3 1.00912 8.80869 12.4505
260 2 -5.57922 8.7648 13.8286
303 2 -4.29833 6.31781 16.7511
168 2 -7.28906 12.0774 9.40716
30 4 2.83298 4.92007 17.29
320 2 -2.4649 11.1478 17.4751
28 4 7.27735 1.33036 6.32115
31 4 6.00859 3.57063 8.26351
35 4 9.5706 1.98746 4.14291
37 4 11.9983 1.52583 6.04536
40 4 10.9335 4.15134 2.50433
330 2 12.9359 1.5514 0.264114
105 2 11.8079 3.58662 0.464816
55 1 11.8339 2.84757 1.47917
56 1 8.13041 5.16396 5.28994
65 2 9.21013 0.761112 3.04603
69 2 11.8102 5.19555 3.43967
70 2 10.2587 5.22571 1.21076
313 2 10.466 2.50017 0.0820339
89 2 6.57623 3.28267 3.9831
296 2 9.24148 0.641782 0.758265
32 4 4.43395 5.78182 6.40022
106 2 11.4324 1.75199 1.28616
107 2 12.8352 2.92665 2.06454
108 2 8.2481 3.96238 5.34482
118 3 7.89508 0.108652 7.10987
123 3 6.7147 2.54503 7.36073
124 3 5.30825 4.93538 7.43568
128 3 8.31643 2.10455 5.17933
129 3 14.4739 0.272742 7.91829
131 3 13.3833 1.7156 5.23102
132 3 10.8027 1.56324 5.03281
133 3 12.0597 -0.284424 6.86424
137 3 9.83977 3.36554 3.34865
139 3 12.0624 2.75468 7.15426
140 3 10.1763 4.52997 7.42814
42 4 9.3885 5.72841 6.80299
264 2 5.20196 5.04018 2.67061
26 4 8.05952 -0.681921 8.4369
97 2 5.97035 4.99415 4.45947
109 2 7.36 5.42274 4.53303
41 4 11.0438 3.3935 8.15388
110 2 7.49328 5.52677 6.81542
88 2 7.12139 1.70123 3.16844
52 1 4.82884 5.06346 4.62667
98 2 4.39806 5.88109 3.93552
72 2 9.64603 5.85688 4.87035
49 1 6.27483 2.44724 3.28121
315 2 15.2889 0.0142451 4.26711
305 2 14.0975 -0.0120925 0.522408
237 2 12.6928 -0.192841 3.22073
309 2 13.8744 -1.36649 13.8814
68 2 12.4263 -0.90816 12.4858
33 4 6.06416 3.27878 13.8499
36 4 9.82929 1.41529 10.209
38 4 9.14081 1.44662 16.6615
39 4 12.1582 -0.269747 10.9279
50 1 7.39046 4.19983 9.38862
53 1 7.40291 3.06882 12.3661
54 1 9.96808 0.277519 15.4338
306 2 14.1266 -0.642752 16.4133
63 2 5.88261 3.95234 12.0836
66 2 8.84999 2.21358 11.4208
67 2 9.42508 3.1522 17.1175
71 2 11.9931 4.36187 9.15568
281 2 8.75948 4.71313 16.5806
327 2 9.04559 -0.630495 13.7488
90 2 7.20902 5.33019 9.1633
92 2 7.24039 3.75475 10.4392
99 2 8.26153 3.791 12.0729
100 2 7.28705 2.11708 11.8104
101 2 7.90085 2.46606 13.8499
102 2 11.0545 0.309988 15.8645
103 2 9.7392 1.08428 14.4969
104 2 9.33939 -0.821136 15.4485
130 3 8.96438 0.252363 9.54545
134 3 7.75796 0.922698 17.0028
135 3 13.4941 0.344365 10.3935
136 3 10.8717 0.58877 11.0179
138 3 10.3659 2.39036 9.09976
141 3 6.03701 4.52449 14.8577
249 4 11.1097 4.58974 12.7943
250 1 11.4188 2.64884 13.0031
187 2 4.87363 4.89982 10.517
252 2 11.536 2.55845 14.1164
253 2 12.0995 1.98518 12.4631
254 2 10.3219 2.42007 12.6494
304 1 13.3996 -1.06885 17.2858
256 2 9.48718 4.00682 10.8376
76 2 13.405 0.755696 13.6278
159 1 8.48433 -1.18124 12.8627
326 2 7.77268 -0.426234 12.3282
310 2 12.1192 -0.988992 14.2423
251 1 9.8039 4.95164 11.4161
302 2 11.525 4.51446 17.0621
86 2 6.13499 1.481 11.2772
91 2 8.26164 3.7108 8.84337
77 2 13.9321 0.883018 15.5431
301 1 10.41 4.72235 17.4085
222 2 4.69308 11.2631 8.61905
218 2 9.58386 8.36524 6.04834
57 1 9.84928 7.45277 7.74377
61 2 4.8455 7.44905 6.42006
299 2 1.64015 11.1615 7.14422
226 2 9.37762 8.78349 2.55243
298 1 0.848956 10.8799 7.94262
293 2 2.99503 7.76303 2.02559
248 3 6.20524 11.4694 6.0034
205 4 8.52609 8.57833 4.66415
208 4 5.18229 12.2514 7.349
209 4 3.51124 11.0409 4.09803
247 3 5.26097 8.88728 7.06512
211 4 5.79895 9.9532 5.57168
243 3 2.04082 10.3788 3.74618
216 1 4.00743 12.0257 2.58146
111 2 9.0974 7.10929 8.56425
219 2 8.2386 6.88477 4.32
245 3 7.1761 9.23834 5.04497
223 2 3.41072 12.1836 5.41595
325 2 10.5985 7.22159 0.724776
272 2 1.09638 10.7311 0.924012
210 4 5.83794 8.82153 8.55083
297 2 1.8235 12.4298 2.36046
233 2 0.435942 12.2197 4.54645
295 1 0.958855 12.4183 1.66871
236 2 4.72501 11.3469 2.14091
246 3 4.61201 9.97577 4.51335
238 2 3.31894 12.4201 1.79341
292 2 2.87543 8.99112 0.592936
161 2 7.84468 11.7027 6.1001
323 2 0.0195794 12.2919 2.24236
244 3 7.1961 9.69263 8.75283
43 4 5.42721 5.55176 15.8659
73 2 5.77657 7.14539 15.407
255 2 8.91955 5.54424 11.8407
142 3 3.85367 5.62928 16.0994
74 2 6.20896 5.50228 17.3494
160 1 3.83831 8.61717 12.6163
173 2 1.11725 11.5327 12.0334
185 2 4.33375 6.7377 10.3287
276 2 5.63591 8.89235 17.3467
282 2 9.25934 7.33425 15.6949
189 2 3.80698 9.6855 12.1433
190 2 4.32115 7.80585 11.9151
191 2 4.22136 8.62691 13.7758
217 1 4.39623 9.61337 9.67599
239 2 4.20684 8.50892 10.1787
270 1 0.234896 10.481 15.7206
241 2 5.08065 10.2464 10.3143
240 2 3.43223 10.1267 9.391