ITEM: TIMESTEP
0
ITEM: NUMBER OF ATOMS
331
ITEM: BOX BOUNDS xy xz yz pp pp pp
-8.3499999999999996e+00 1.5708700000000000e+01 -8.2042000000000002e+00
-2.0256559999999997e+00 1.3217668000000000e+01 -1.4580000000000001e-01
0.0000000000000000e+00 1.7524799999999999e+01 -2.0256559999999997e+00
ITEM: ATOMS id type x y z
1 4 -0.773538 1.92838 4.83627
2 4 0.295323 4.64472 3.2212
3 1 0.75928 1.35422 5.85309
174 2 -1.4027 5.29814 5.26762
5 1 2.1576 4.46756 3.13675
6 1 -0.433119 5.08709 1.31146
8 2 1.67352 2.17934 5.95125
9 2 0.983942 0.465916 5.20909
10 2 0.410724 0.991306 6.81379
312 2 5.62444 0.374306 3.00615
12 2 2.12281 3.27673 3.36276
13 2 2.97786 5.18166 3.8246
14 2 2.12621 4.67847 1.92881
182 2 -0.889762 4.91258 7.67697
16 2 -1.0106 4.43189 0.612445
17 2 0.354347 5.80541 0.821676
18 3 -0.271179 3.44749 3.95277
24 4 5.89474 1.8451 3.98996
45 1 4.04585 1.33785 3.48391
47 1 3.60294 0.473145 8.46076
263 4 4.30133 3.85564 1.15391
51 1 3.20386 3.56879 6.31771
78 2 3.85028 1.46624 2.39081
79 2 3.68042 2.35834 4.02296
80 2 3.59527 0.406458 3.94397
83 2 2.46486 0.505904 8.31736
82 2 4.27735 0.623104 7.5264
265 2 2.78349 3.20777 1.76355
154 1 -2.51689 5.40719 5.16374
15 2 -1.16644 5.81498 1.95344
93 2 3.87171 2.69541 6.01983
94 2 2.37575 3.72722 5.53992
95 2 2.84138 3.51681 7.40737
117 3 6.40331 1.52422 5.5523
321 2 5.16445 0.198099 0.950786
162 2 2.97567 -0.253439 6.75193
266 3 5.14527 2.84127 0.390367
267 3 3.90917 5.24977 0.619498
283 1 1.45104 1.32413 0.411893
175 2 -2.94027 4.71105 4.35532
311 2 1.01487 4.15522 0.393488
286 2 1.5991 1.90481 1.41514
284 2 2.33064 0.7003 0.0091235
32 4 4.05641 5.24328 6.52518
46 1 6.05483 0.0515846 0.136299
285 2 0.307519 0.897617 0.188058
176 2 -3.04681 5.4588 6.14451
11 2 -0.717601 1.3023 2.61563
264 2 4.81263 4.05867 2.75264
7 2 0.486122 6.0849 4.23404
19 4 1.13452 0.763209 16.8542
21 4 2.41641 -1.06664 12.4286
22 4 1.23105 1.49056 11.3119
23 4 -0.58149 2.43092 13.7154
25 4 5.74476 -0.154932 16.8139
27 4 4.21788 1.6291 9.85199
29 4 3.73831 0.558576 14.7636
149 4 -0.157005 5.12677 9.97003
34 4 0.237265 4.38321 16.0839
44 1 -1.50259 0.84759 14.4158
48 1 5.32213 0.552528 10.9466
58 2 -0.476739 0.71352 16.0232
60 2 -2.0299 3.1045 13.0127
81 2 3.9834 -0.53098 9.22677
62 2 -0.946852 4.34927 17.2151
170 2 -0.263432 3.40974 9.99996
76 2 -0.544618 0.1409 14.1553
84 2 5.8074 -0.326853 10.3181
85 2 4.64885 0.196722 11.7794
171 2 2.61526 3.57699 11.9096
112 3 -0.0043266 1.71777 9.96967
113 3 1.46576 -0.0852159 11.4606
114 3 0.513052 2.14209 12.6023
116 3 2.60721 2.28845 10.862
119 3 3.1884 -0.0725982 13.3909
120 3 4.78441 -0.436923 15.419
121 3 2.41693 0.708444 15.8994
122 3 5.28006 2.70069 9.12599
125 3 4.58904 2.01997 14.307
126 3 -0.147338 3.36733 14.9124
127 3 1.63448 4.57288 16.7714
20 4 -1.28548 0.858424 9.43496
86 2 6.02935 1.45846 11.2904
161 2 -7.78246 11.9111 6.2259
143 4 -6.11488 11.5672 6.31639
144 4 -2.50096 7.18653 4.4442
146 4 -2.61186 9.38545 6.61381
219 2 -5.7504 10.1033 3.21251
57 1 -4.94563 7.32807 8.49575
184 2 -0.972555 6.8002 8.45487
230 2 0.120343 8.75338 5.90564
163 2 -3.30038 7.62459 3.03262
164 2 -0.802218 7.50173 3.85592
166 2 -4.09452 9.82626 7.22602
167 2 -2.12374 10.8066 5.74173
169 2 -5.49242 11.3777 4.7996
328 2 -4.95065 8.19545 7.75287
234 2 -0.468117 11.3891 6.38299
183 2 0.679258 6.13386 7.82444
218 2 -7.37644 12.2172 1.86831
192 3 -2.84933 8.158 5.6417
193 3 -5.74138 10.348 7.24245
199 3 -1.50842 9.13942 7.77014
206 4 -2.23812 10.1551 2.22038
207 4 0.278789 9.89707 4.17389
213 1 -3.78272 10.2086 3.30344
214 1 0.476021 7.88588 5.14688
215 1 -0.314692 11.3766 5.24689
220 2 -1.98557 11.5841 1.18279
221 2 -2.59266 9.00759 0.91374
227 2 -3.61921 9.99595 4.39118
228 2 -4.32819 9.37424 2.59701
229 2 -4.03557 11.3963 2.98475
231 2 1.49756 8.11184 4.77866
232 2 0.581534 6.97608 5.80659
235 2 -1.19938 11.7946 4.66639
242 3 -0.95262 9.72253 3.18914
291 1 2.89673 7.50702 1.70317
322 2 -1.06187 13.0789 0.550578
157 1 -0.336143 5.84537 8.25325
294 2 1.734 7.50463 1.63919
303 2 -4.30842 9.49253 0.737903
299 2 0.70721 10.4387 8.12092
293 2 3.16219 6.8645 2.60457
30 4 3.22472 6.69125 0.00430328
326 2 -1.52528 11.6688 11.9701
64 2 -0.322083 5.91089 15.5216
115 3 -6.75938 11.0216 13.2159
145 4 -2.16281 6.59276 12.3056
148 4 -4.65242 9.89327 10.6673
151 4 -1.74322 9.92688 9.34996
274 2 -0.853817 8.32446 17.1394
301 1 -4.26782 6.89591 17.2806
155 1 -1.08667 6.67121 13.882
156 1 -4.66678 8.60038 12.14
275 2 -0.344607 7.77003 15.4377
320 2 -2.54122 10.6117 16.7036
165 2 -2.81193 8.09876 11.81
319 2 -5.67191 8.79179 12.5553
188 2 -1.4975 10.2603 13.2673
177 2 -1.20455 7.94003 13.9074
178 2 -0.0761015 6.18308 13.6318
179 2 -1.87862 5.96285 14.5116
180 2 -4.53552 7.51748 11.9107
181 2 -3.92997 8.96761 12.9773
153 4 0.13747 9.74729 11.7436
194 3 -3.36587 5.65842 12.7658
198 3 1.54299 5.56036 10.4166
195 3 -5.9995 9.80201 9.88356
196 3 -4.63521 11.3581 11.4307
197 3 -1.17115 5.88332 11.0432
200 3 -1.66094 11.5947 9.20508
201 3 -3.31746 9.59779 9.90503
202 3 2.11802 6.19152 12.9339
203 3 -0.482901 9.43706 10.3338
302 2 -3.89779 7.57177 16.4553
150 4 2.51996 5.2666 11.6392
159 1 -0.8421 11.0957 12.6618
272 2 1.27041 7.82374 17.1957
262 2 -5.82879 9.83612 15.9989
270 1 -0.0208919 8.42629 16.3474
204 3 0.964604 8.71267 12.6251
172 2 1.43143 7.88843 15.0886
259 1 -6.91251 9.62081 15.7884
273 2 -0.0951921 10.0331 15.7041
329 2 -3.8849 7.07122 8.85899
325 2 -2.97154 5.66208 17.3705
28 4 7.71306 1.83363 6.54842
31 4 6.42757 3.79853 8.41011
35 4 9.94109 1.69848 4.27496
37 4 12.1223 1.28015 6.32524
40 4 10.4974 4.44499 2.7601
296 2 9.87476 0.500784 0.993384
304 1 13.1193 0.748878 0.0984304
55 1 11.144 3.97094 0.937473
315 2 15.0997 -0.176282 3.98426
65 2 9.3751 0.810155 2.95401
69 2 10.2052 5.85529 3.6635
70 2 9.53064 4.40844 0.992728
49 1 6.62591 3.48035 3.22188
89 2 6.58114 4.22792 4.06619
87 2 6.44119 3.94019 2.11859
88 2 7.75653 3.00665 3.2188
106 2 11.2581 2.82115 0.939384
107 2 12.2409 4.53691 2.24534
108 2 9.81519 4.79535 5.24684
118 3 7.91957 0.45336 7.57668
123 3 7.51789 3.19597 7.42987
124 3 5.30306 5.29579 7.55142
128 3 8.89362 1.86922 5.37534
129 3 14.9112 -0.480203 8.70178
131 3 13.4359 2.06387 5.97913
132 3 11.273 0.93835 4.71916
133 3 12.2916 -0.339451 7.07157
137 3 10.1482 3.12186 3.65268
139 3 11.3251 2.17471 7.39049
140 3 10.3689 4.48552 8.21358
316 2 13.3185 0.545968 3.40063
96 2 4.71229 5.1388 4.4669
330 2 12.4109 0.967513 0.990595
4 1 14.4779 0.693226 3.45334
281 2 10.8173 5.84794 0.373331
41 4 10.9642 2.96147 8.65459
59 2 13.8116 1.94193 8.34894
56 1 9.81715 5.89915 5.61995
323 2 8.11613 0.153556 1.74397
305 2 14.0726 0.195494 0.444691
187 2 4.62392 4.38559 10.5351
251 1 9.42352 5.00504 12.6963
33 4 5.42287 3.29445 13.8565
36 4 9.52274 1.20634 10.887
38 4 8.56382 0.837416 15.9149
39 4 12.1224 -0.242395 11.1779
50 1 7.37519 4.53438 9.78303
53 1 7.39766 2.69105 13.3311
54 1 9.22067 -0.458686 14.7149
327 2 8.0224 -1.46378 13.3904
63 2 5.01009 3.73148 12.2583
66 2 8.80774 1.97967 12.2067
67 2 8.39348 2.26305 15.0107
68 2 12.7258 -1.12487 12.5959
310 2 12.0641 -0.388654 14.5648
77 2 13.388 0.849986 13.6182
91 2 8.48335 4.16783 9.65241
92 2 6.99495 4.31435 10.8177
99 2 6.99424 3.0046 12.2245
100 2 6.91313 1.60719 13.9546
101 2 7.72084 3.63731 14.0032
102 2 10.3319 -0.820551 14.635
103 2 8.95524 0.163277 13.7654
104 2 8.44918 -1.33564 14.9699
130 3 8.50871 0.187071 10.1952
134 3 7.32814 0.205055 16.5708
135 3 13.229 0.588429 10.5047
136 3 10.7665 0.418299 11.5903
138 3 10.1292 2.29597 9.79217
141 3 5.66914 4.66104 14.8301
249 4 11.1442 4.62808 13.4247
250 1 11.7341 2.73988 13.1268
331 3 11.0923 4.82369 15.0882
71 2 12.4265 3.30742 9.36077
253 2 12.1834 2.49825 12.1459
254 2 10.6387 2.32952 13.1336
313 2 9.81288 1.21894 17.0011
256 2 9.14869 3.98005 12.3948
306 2 13.1686 -0.413436 16.9647
252 2 12.3065 2.36156 13.9685
307 1 12.2685 -1.49534 14.4448
26 4 8.05741 -0.55004 8.80375
75 2 13.7953 0.67038 15.4893
158 1 4.35731 5.2749 11.2312
105 2 11.4744 2.37484 17.4906
109 2 9.01075 6.54541 5.20757
42 4 9.83164 5.89647 7.7039
147 4 8.74448 10.0494 8.65035
61 2 3.14884 6.76236 6.39334
97 2 5.04444 7.11383 4.85151
297 2 1.2182 11.9482 1.9318
224 2 6.20459 6.6187 7.63136
110 2 8.29995 5.92431 6.64082
72 2 10.9336 6.48058 5.79913
205 4 8.33039 10.5015 2.7093
208 4 5.41951 12.0823 7.34853
209 4 3.41533 10.8432 3.61056
210 4 6.42705 8.3665 7.54345
211 4 6.08271 10.2716 5.12298
212 1 7.60025 10.8145 1.00786
216 1 3.81194 10.6655 1.77271
324 2 1.73363 12.0335 7.48412
295 1 0.820255 12.921 1.27011
222 2 4.8047 10.5987 8.00289
223 2 3.36957 12.5598 4.00282
317 2 6.52497 10.9645 1.01857
225 2 7.94358 9.13269 1.41293
244 3 7.64446 8.88205 8.40068
298 1 1.22516 11.4265 8.39429
233 2 0.666856 11.9802 4.92925
292 2 3.26221 8.61435 1.8327
236 2 4.82259 10.173 1.60239
237 2 3.84362 11.9092 1.63415
238 2 2.93107 10.1421 1.20089
243 3 1.89324 10.2643 3.73874
245 3 7.1897 10.3746 3.92672
246 3 4.607 10.2285 4.43968
247 3 6.29428 8.99334 6.1029
248 3 6.30849 11.8805 6.04151
240 2 3.83351 9.00993 7.92186
52 1 4.17463 6.3982 4.86301
217 1 4.79488 8.66696 8.52012
98 2 3.46449 6.72563 3.96658
226 2 8.12799 11.0639 0.0200856
43 4 5.56141 5.65061 16.0899
73 2 6.0614 7.29222 15.7044
309 2 5.16809 11.5465 14.3314
142 3 4.15355 5.73277 16.7701
282 2 9.72965 6.29007 16.9083
160 1 3.71672 8.41083 13.3343
173 2 0.913174 11.2837 11.7533
185 2 5.02358 5.37408 12.1283
152 4 1.98117 7.77229 13.4642
268 4 1.17998 9.81521 17.182
189 2 3.44323 9.41944 12.7126
190 2 4.21577 7.54386 12.7436
191 2 4.2967 8.63478 14.4263
289 2 6.95963 8.44108 12.2431
308 2 3.37646 11.1612 13.7503
260 2 8.43691 8.15196 13.7913
241 2 5.02754 9.38625 9.45354
186 2 4.33701 6.34485 10.7274
258 4 8.09793 10.0074 14.1379
74 2 6.62135 5.24241 17.2758
314 2 3.636 11.5249 10.1981
269 4 4.17242 10.7414 16.2712
271 1 5.32647 9.06923 16.1351
111 2 9.93448 7.35844 9.42233
290 2 6.0923 9.92852 13.4587
277 2 5.8205 8.87691 15.0704
278 2 4.49458 8.34579 16.3573
279 3 2.62094 10.2758 16.7189
280 4 11.0405 5.10373 16.7076
276 2 6.09059 9.01387 17.0727
255 2 8.73905 5.44942 13.5121
287 1 6.77525 8.60068 13.313
288 2 6.18831 7.7231 13.6972
318 2 8.46139 8.55745 15.9352
257 2 9.53824 5.80945 11.8552
90 2 7.16987 5.68963 9.47565
300 2 1.9361 11.3624 9.29891
239 2 4.76424 7.5373 8.902
261 2 7.90205 10.4463 16.2994
168 2 7.85228 11.4887 8.97615
ITEM: TIMESTEP
100
ITEM: NUMBER OF ATOMS
331
ITEM: BOX BOUNDS xy xz yz pp pp pp
-8.3499999999999996e+00 1.5708700000000000e+01 -8.2042000000000002e+00
-2.0256559999999997e+00 1.3217668000000000e+01 -1.4580000000000001e-01
0.0000000000000000e+00 1.7524799999999999e+01 -2.0256559999999997e+00
ITEM: ATOMS id type x y z
1 4 -0.730051 1.93586 4.80932
2 4 0.143711 4.59815 3.26176
3 1 0.79517 1.37377 5.7877
174 2 -1.55654 4.93406 5.50711
5 1 2.04613 4.43307 3.27712
6 1 -0.259937 4.92061 1.36692
8 2 1.60222 2.16139 5.99547
9 2 1.10265 0.601789 4.97572
10 2 0.409142 0.94704 6.80852
312 2 5.90799 0.392063 3.0064
12 2 2.21225 3.32424 3.486
13 2 2.79917 5.14304 3.86898
14 2 1.99106 4.78904 2.04049
182 2 -0.819479 5.17626 7.70471
16 2 -0.693031 4.03265 0.698472
17 2 0.56469 5.54268 0.853285
18 3 -0.376778 3.3066 3.95249
24 4 5.88511 1.8993 3.97389
45 1 4.22931 1.26899 3.32464
47 1 3.56043 0.783644 8.50846
263 4 4.38601 4.00736 1.19847
51 1 3.17971 3.56229 6.32162
78 2 4.05246 1.03024 2.24057
79 2 3.76131 2.44231 3.68632
80 2 3.72877 0.491088 3.96867
83 2 2.43548 0.931848 8.63814
82 2 3.98421 1.18169 7.56113
265 2 2.93257 3.37362 1.81423
154 1 -2.57727 5.4341 5.28324
15 2 -1.185 5.66489 1.80184
93 2 4.13518 2.86853 6.48729
94 2 2.62171 3.575 5.28861
95 2 2.46005 3.88132 7.34686
117 3 6.22653 1.62247 5.50113
321 2 5.229 0.219798 1.10708
162 2 2.71061 -0.215382 6.98289
266 3 5.13743 2.96711 0.491287
267 3 3.88504 5.37749 0.609511
283 1 1.46665 1.15544 0.38144
175 2 -3.25794 4.93367 4.45978
311 2 1.28422 3.97947 0.536786
286 2 1.52539 1.52961 1.48873
59 2 -1.83678 1.99427 8.30657
7 2 0.338057 6.03362 4.23317
46 1 5.96786 0.0510838 0.232161
322 2 7.18957 -0.0148565 0.529281
176 2 -3.17636 5.66497 6.20154
264 2 4.96951 4.12652 2.83044
32 4 4.14266 5.12609 6.55616
284 2 2.38254 0.584704 0.0297867
19 4 1.2449 0.653432 16.8929
21 4 2.41457 -0.969276 12.3703
22 4 1.2633 1.47541 11.4069
23 4 -0.679097 2.52117 13.7772
25 4 5.70243 -0.315303 16.8562
27 4 4.36773 1.67348 10.0467
29 4 3.79356 0.630171 14.8344
149 4 -0.107408 5.08201 9.99774
34 4 -0.0332238 4.5094 16.1451
44 1 -1.44782 0.922906 14.5429
48 1 5.48979 0.43555 10.9093
58 2 -0.372576 0.678731 16.1604
60 2 -2.10585 3.10876 13.0441
81 2 4.05301 -0.294845 8.88796
62 2 -1.08983 4.13979 17.4343
170 2 -0.13382 3.33693 9.9864
76 2 -0.512792 0.261781 14.4972
84 2 5.88292 -0.399706 10.1174
85 2 4.90511 0.0088569 11.7933
171 2 2.78262 3.56701 11.987
112 3 0.00827757 1.73406 10.0024
113 3 1.43619 -0.118378 11.3265
114 3 0.421208 2.07594 12.6923
116 3 2.76998 2.19979 11.1438
119 3 3.30069 -0.0473469 13.5253
120 3 4.68953 -0.487953 15.6104
121 3 2.41397 0.790075 15.8413
122 3 5.35145 2.77297 9.39255
125 3 4.69411 2.02424 14.3336
126 3 -0.376081 3.5294 15.0299
127 3 1.3713 4.49633 16.7637
198 3 1.37053 5.32112 10.4846
326 2 6.69622 -1.24179 12.1834
150 4 2.3985 5.2435 11.6778
20 4 -1.31281 0.916952 9.42948
285 2 0.266949 -1.33302 17.5024
161 2 -7.64995 11.7167 5.7357
143 4 -6.03661 11.5495 6.22494
144 4 -2.40241 7.07155 4.40806
146 4 -2.60392 9.36249 6.50026
219 2 -5.75284 9.96049 3.01809
57 1 -5.019 7.24971 8.48439
184 2 -0.792531 6.8544 8.55636
230 2 0.0595801 8.64532 5.87659
163 2 -3.18318 7.03926 2.88312
164 2 -0.801192 7.48413 3.68685
166 2 -4.08384 9.92867 6.83609
167 2 -1.87205 10.6832 5.71954
169 2 -5.11047 11.6618 4.7475
328 2 -5.02321 8.12922 7.73144
234 2 -0.0295459 10.977 6.32482
183 2 0.83217 6.13092 7.88561
218 2 -7.32231 11.9468 1.88741
192 3 -2.762 8.17565 5.48509
193 3 -5.80195 10.2523 7.08707
199 3 -1.821 9.12314 7.78234
206 4 -2.35571 10.2302 2.20913
207 4 0.339386 10.0088 4.23685
213 1 -3.83036 10.0073 3.25035
214 1 0.480503 7.82125 4.99947
215 1 -0.170705 11.4846 5.27497
220 2 -2.42942 11.8221 1.53979
221 2 -2.41826 9.38761 0.710041
227 2 -3.94381 9.87639 4.38747
228 2 -4.32799 9.10791 2.60913
229 2 -4.32243 11.0973 2.84158
231 2 1.51862 8.04121 4.57295
232 2 0.515773 6.86243 5.53818
235 2 -1.30973 11.7386 5.03399
242 3 -1.01493 9.98698 3.09069
291 1 2.86125 7.78063 1.644
325 2 -2.9251 7.58658 0.142614
157 1 -0.190756 5.95711 8.33445
294 2 1.72178 7.87315 1.50161
303 2 -4.43279 9.25764 0.78688
30 4 3.22427 6.69611 0.132837
98 2 3.3895 6.63287 4.02082
293 2 3.17524 7.10613 2.63352
152 4 1.8695 7.76978 13.5592
64 2 -0.486829 6.13499 15.7639
115 3 -6.94653 11.1006 13.2117
145 4 -2.19911 6.48161 12.2199
148 4 -4.70601 9.91859 10.701
151 4 -1.82955 9.96814 9.28661
274 2 -0.899516 8.80387 17.0367
301 1 -4.28333 6.7585 17.407
155 1 -1.1067 6.71297 14.0025
156 1 -4.72803 8.48355 12.0058
275 2 -0.418458 7.91745 15.4576
320 2 -2.78431 10.5917 16.9238
165 2 -2.84666 7.97672 11.6013
319 2 -5.8123 8.58861 12.2934
188 2 -1.52595 10.2701 13.1991
177 2 -1.2848 7.9203 13.742
178 2 -0.321015 6.02357 13.4414
179 2 -1.98018 6.19195 14.5478
180 2 -4.57014 7.45258 11.6342
181 2 -4.04388 8.69819 12.8051
153 4 0.0819844 9.86918 11.6473
194 3 -3.35595 5.62123 12.7737
318 2 -6.52503 8.80912 16.3372
195 3 -6.02056 9.90909 9.82736
196 3 -4.67804 11.4904 11.5207
197 3 -1.2312 5.71533 11.0866
200 3 -1.69205 11.6151 9.05336
201 3 -3.30448 9.61862 10.041
202 3 2.06755 6.2307 13.0189
203 3 -0.586466 9.38146 10.2818
302 2 -3.82195 7.47811 16.6781
329 2 -4.05315 7.09985 9.03795
159 1 -0.834234 11.195 12.6282
272 2 1.35512 8.11357 17.2659
262 2 -5.98623 10.5729 16.0201
270 1 -0.0387791 8.72254 16.3034
204 3 0.993321 8.89818 12.6049
172 2 1.36228 7.75714 15.2671
259 1 -6.827 9.83775 15.9186
273 2 0.0246936 9.93045 15.729
28 4 7.61114 1.7025 6.52088
31 4 6.44215 3.71858 8.4825
35 4 9.8874 1.54535 4.31906
37 4 12.0934 1.25707 6.37802
40 4 10.4711 4.27345 2.59398
296 2 10.0787 0.236749 1.58623
304 1 13.3885 0.634143 0.00652666
55 1 11.2236 3.97284 0.78143
315 2 15.3524 -0.259793 3.3485
65 2 9.12492 0.426739 3.20058
69 2 10.2026 5.72572 3.64134
70 2 9.45051 4.43751 1.01438
49 1 6.775 3.46386 3.1169
89 2 7.05294 4.16289 3.9025
87 2 6.48698 4.03242 2.15425
88 2 7.70972 2.70981 2.87985
106 2 11.4263 2.90945 0.814703
107 2 12.2154 4.58384 2.0463
108 2 10.122 4.9933 5.22129
118 3 7.95611 0.396892 7.47754
123 3 7.3781 3.084 7.36599
124 3 5.43192 5.18518 7.49839
128 3 8.84163 1.74275 5.52847
129 3 14.789 -0.591895 8.59656
131 3 13.7887 1.89738 5.80885
132 3 11.2485 0.92191 4.71776
133 3 12.5447 -0.0905729 7.03427
137 3 10.1803 2.99832 3.425
139 3 11.329 2.10266 7.363
140 3 10.4593 4.42461 8.1774
316 2 13.657 0.287986 3.89472
96 2 4.65743 5.22879 4.38378
330 2 12.7673 0.766958 0.938092
4 1 14.6114 0.570729 3.41783
281 2 10.5509 5.69004 0.14543
41 4 10.9828 2.99144 8.59162
11 2 14.4963 1.16961 2.4832
56 1 9.64868 5.9427 5.48182
323 2 8.21462 0.624339 1.44573
110 2 8.39442 5.78678 6.73954
187 2 4.52852 4.59236 10.577
105 2 11.49 2.22679 17.279
33 4 5.49895 3.34512 13.8813
36 4 9.51188 1.30463 10.8654
38 4 8.71004 0.591133 15.8714
39 4 12.128 -0.195246 11.1132
50 1 7.51932 4.51887 9.76919
53 1 7.2191 2.72035 13.2866
54 1 9.42088 -0.671269 14.7137
75 2 13.8157 0.989494 15.5989
63 2 4.83794 4.27344 12.5056
66 2 8.7266 2.10498 12.1468
67 2 8.43646 1.92314 14.7001
68 2 12.7004 -0.873898 12.5771
310 2 12.1505 -0.41052 14.6113
77 2 13.5663 0.731265 13.6665
91 2 8.52267 4.05531 9.55681
92 2 7.14969 4.43158 10.806
99 2 7.08945 3.22549 12.2121
100 2 7.40353 1.5951 13.3945
101 2 7.82456 3.39083 14.0924
102 2 10.5439 -1.00562 14.5951
103 2 8.98499 -0.137457 13.7455
104 2 8.70414 -1.59088 15.0994
130 3 8.43233 0.213999 10.2919
134 3 7.28362 0.17545 16.3996
135 3 13.1854 0.640048 10.3606
136 3 10.809 0.490107 11.4446
138 3 10.0367 2.39261 9.77144
141 3 5.57665 4.46722 14.9338
249 4 11.1967 4.8283 13.4643
250 1 11.6307 2.89027 13.0521
86 2 6.31432 1.26116 11.2468
71 2 12.5204 3.2346 9.27096
253 2 12.2048 2.80577 12.0533
254 2 10.5269 2.62995 13.0924
313 2 9.81191 0.979114 17.1496
256 2 9.49412 4.37608 12.0096
306 2 13.4225 -0.435827 16.9305
252 2 12.2432 2.41062 13.9713
307 1 12.5272 -1.4951 14.4578
26 4 8.14582 -0.595416 8.9239
327 2 8.10523 -1.53418 13.4135
109 2 8.90052 6.33314 4.75094
42 4 9.88652 5.7676 7.72934
147 4 8.75585 10.0226 8.53599
299 2 0.881608 10.4462 8.3868
97 2 4.95579 7.10119 4.84684
297 2 0.580441 11.9635 1.90983
224 2 6.00613 6.72416 7.47917
295 1 0.807189 13.0207 1.35467
72 2 10.4425 6.79479 5.72378
205 4 8.27248 10.3209 2.65919
208 4 5.48274 12.0976 7.23627
209 4 3.42895 10.9967 3.52521
210 4 6.39296 8.43817 7.53579
211 4 6.09229 10.2429 5.02063
212 1 7.54017 10.554 0.950049
216 1 4.03952 10.8475 1.71332
324 2 1.92128 11.9433 7.94527
305 2 6.15779 13.1796 0.140098
222 2 4.70611 10.6717 7.79344
223 2 3.27759 12.6683 3.90431
317 2 6.37557 10.6743 1.05668
225 2 7.93709 9.04195 1.06078
244 3 7.77723 8.72736 8.2829
61 2 3.2191 6.6631 6.35437
233 2 0.533445 12.331 5.06558
292 2 3.34032 8.86602 1.67904
236 2 4.94223 10.1677 1.89832
237 2 4.37673 11.9414 1.58564
238 2 3.41935 10.5259 0.912687
243 3 1.9196 10.2949 3.67553
245 3 7.21526 10.2582 3.91157
246 3 4.56959 10.4265 4.41693
247 3 6.15145 9.07446 6.14512
248 3 6.39833 11.8077 5.94311
240 2 3.89028 9.26545 8.23772
52 1 4.16472 6.28036 4.79333
217 1 4.85185 8.92157 8.61493
43 4 5.47325 5.47414 16.049
73 2 5.82296 7.07432 15.4498
331 3 10.9955 4.84506 15.265
142 3 4.19862 5.54944 16.8899
251 1 9.49699 5.33938 12.7654
160 1 3.51248 8.50446 13.3999
173 2 0.757617 11.4747 11.5368
185 2 4.93696 5.85155 11.9661
239 2 4.72745 7.81837 9.02087
268 4 1.25771 9.96269 17.321
189 2 3.31113 9.57123 12.9126
190 2 3.93994 7.58806 12.6093
191 2 4.1032 8.51402 14.4532
289 2 7.10602 9.01936 12.2761
308 2 3.50776 11.0324 13.9804
260 2 7.96146 7.92183 13.5568
241 2 5.38542 9.65522 9.36062
186 2 3.89207 6.371 10.3774
258 4 8.09443 10.0558 14.211
74 2 6.82817 5.23263 16.9775
314 2 3.58526 11.6044 10.277
269 4 4.30739 10.7633 16.2311
271 1 5.3253 8.87214 16.0337
111 2 9.65375 7.32449 9.26151
290 2 6.3201 10.1738 14.2401
277 2 5.81038 8.64961 14.9944
278 2 4.43674 8.16237 16.2083
279 3 2.80564 10.3986 16.7659
280 4 10.8826 5.05715 16.7859
276 2 6.06538 8.8104 16.9821
255 2 8.6742 5.33997 13.5551
287 1 6.98953 8.61673 13.3171
288 2 6.07692 7.95212 13.3079
282 2 9.61802 6.40933 17.1232
257 2 9.68122 6.303 12.1758
90 2 7.38651 5.65584 9.24239
300 2 1.94115 11.2348 9.74829
158 1 4.18796 5.53572 11.1806
261 2 7.87876 10.38 16.4212
226 2 7.86762 9.02883 17.5045
309 2 5.32932 11.6075 13.9297
168 2 7.73441 11.3976 8.77817
298 1 1.34675 11.381 8.77013
ITEM: TIMESTEP
200
ITEM: NUMBER OF ATOMS
331
ITEM: BOX BOUNDS xy xz yz pp pp pp
-8.3499999999999996e+00 1.5708700000000000e+01 -8.2042000000000002e+00
-2.0256559999999997e+00 1.3217668000000000e+01 -1.4580000000000001e-01
0.0000000000000000e+00 1.7524799999999999e+01 -2.0256559999999997e+00
ITEM: ATOMS id type x y z
1 4 -0.864083 1.89084 4.73367
2 4 0.140487 4.73631 3.24014
3 1 0.814131 1.31407 5.78978
174 2 -1.41527 5.08724 5.53076
5 1 2.05849 4.59032 3.32816
6 1 -0.45674 4.792 1.3761
8 2 1.54543 2.16748 5.9146
9 2 1.20308 0.448778 5.24479
10 2 0.288258 1.04248 6.72945
312 2 6.06556 0.420399 2.84027
12 2 1.99757 3.44439 3.59459
13 2 2.79744 5.24157 3.9888
14 2 2.12423 4.89902 2.19264
182 2 -0.55991 4.82931 7.83828
16 2 -0.920227 3.94378 0.885858
17 2 0.323639 5.38602 0.709356
18 3 -0.328561 3.30512 3.96283
24 4 5.93437 1.81376 4.01688
45 1 4.34783 1.13649 3.23207
47 1 3.47099 1.03648 8.63506
263 4 4.41405 3.99293 1.37997
51 1 3.22864 3.53472 6.32613
78 2 4.00597 1.15493 2.13693
79 2 3.90526 2.36537 4.03218
80 2 4.03625 0.195465 3.77537
285 2 0.706901 0.774103 0.251021
82 2 3.84407 1.57265 7.6082
265 2 3.23885 3.2411 2.31038
154 1 -2.57427 5.38333 5.51753
15 2 -1.39191 5.63427 2.03507
93 2 3.77225 2.57384 6.54036
94 2 2.60867 3.52171 5.38288
95 2 2.5281 3.87169 7.41374
117 3 6.26502 1.50955 5.49212
321 2 5.42605 0.359094 1.16914
162 2 3.03001 -0.495794 7.47071
266 3 5.1739 2.93512 0.514172
267 3 3.82613 5.24453 0.796675
283 1 1.69962 1.29681 0.396157
175 2 -3.12335 4.60767 4.89679
311 2 1.16435 3.98089 0.588248
286 2 1.94802 1.35277 1.45482
59 2 -1.74403 1.91004 8.24532
32 4 4.13323 5.13216 6.57209
46 1 6.06249 0.150511 0.265158
176 2 -2.98497 5.57483 6.50942
7 2 0.556319 6.09058 4.33206
19 4 1.30352 0.765212 16.9225
21 4 2.38636 -0.955376 12.5228
22 4 1.20903 1.58568 11.4406
23 4 -0.63549 2.66048 13.7097
25 4 5.72695 -0.228109 16.9136
27 4 4.2918 1.68409 10.1975
29 4 3.7172 0.618777 14.8234
149 4 -0.153456 5.07907 10.0762
34 4 -0.0663248 4.49802 16.1736
44 1 -1.46066 1.11057 14.5191
48 1 5.38096 0.347205 11.0488
58 2 -0.135489 0.789723 15.9614
60 2 -2.16412 3.03581 12.9025
75 2 -1.87018 1.27972 15.5581
62 2 -1.1777 3.98629 17.3978
170 2 -0.428129 3.29144 9.93592
76 2 -0.626432 0.314948 14.3355
84 2 5.80182 -0.472431 10.3707
85 2 4.86185 -0.0983429 11.9454
171 2 2.76517 3.5884 12.2506
112 3 0.0303203 1.79681 9.98476
113 3 1.40413 -0.0613905 11.553
114 3 0.472392 2.18822 12.6851
116 3 2.68501 2.31189 11.2333
119 3 3.13324 0.0169096 13.5182
120 3 4.90905 -0.451448 15.5166
121 3 2.5293 0.953809 15.9384
122 3 5.16995 2.94722 9.67087
125 3 4.58604 1.89095 14.2731
126 3 -0.3142 3.53622 14.9704
20 4 -1.148 0.871343 9.41708
198 3 1.38901 5.20508 10.5341
326 2 6.77506 -1.03008 11.8188
150 4 2.40302 5.19765 11.7823
83 2 2.37935 1.05964 8.90472
284 2 2.43902 -1.2526 17.2883
81 2 4.00101 -0.10267 8.89637
86 2 6.22131 1.01806 11.3353
127 3 1.31566 4.58407 16.8258
161 2 -7.64519 12.0751 6.26903
143 4 -5.98205 11.5911 6.44771
144 4 -2.2576 6.9748 4.58677
146 4 -2.58858 9.34224 6.49959
219 2 -5.82058 9.84002 3.11814
293 2 3.02549 6.95542 2.62577
184 2 -1.26828 6.6378 8.41329
230 2 0.136602 8.76682 5.71033
163 2 -3.33607 7.09888 3.36789
164 2 -0.676325 7.34499 3.72072
166 2 -4.25258 9.66667 6.68563
167 2 -1.98215 10.7517 5.86282
169 2 -5.44017 11.8632 4.92888
328 2 -4.76896 8.21976 8.19058
234 2 -0.184039 10.8274 6.62681
183 2 0.551311 6.47559 8.12544
218 2 -7.05457 11.7904 1.92233
192 3 -2.48385 8.14572 5.53708
193 3 -5.79692 10.0756 6.67926
199 3 -1.92489 9.03912 7.83108
206 4 -2.36769 10.1929 2.0913
207 4 0.315342 10.1039 4.03448
213 1 -3.8909 10.2365 3.13875
214 1 0.644593 7.98495 4.76011
215 1 -0.0528611 11.1843 5.57478
220 2 -2.1786 11.4726 0.98885
221 2 -2.44157 8.95786 0.79755
227 2 -3.87068 10.3895 4.24936
228 2 -4.21818 9.05398 2.83081
229 2 -4.46838 11.0086 2.5638
231 2 1.68738 8.31141 4.19997
232 2 0.931206 7.10975 5.38806
235 2 -0.929177 11.7081 5.06795
242 3 -1.12559 10.1407 3.00837
291 1 2.74121 7.7065 1.71415
325 2 -3.07025 7.45116 0.206865
157 1 -0.368576 5.93517 8.44087
294 2 1.5423 7.80859 1.56167
303 2 -4.61368 9.28296 1.00559
30 4 3.0907 6.85588 0.139279
168 2 -7.8017 11.5345 8.55982
322 2 -0.99278 13.075 0.667965
301 1 -4.17087 8.83216 0.0306801
152 4 1.80604 7.95903 13.4503
64 2 -0.728547 6.01925 15.7501
115 3 -6.55189 11.1853 13.41
145 4 -2.15557 6.47591 12.3283
148 4 -4.73152 9.94942 10.6919
151 4 -1.94336 10.024 9.31277
274 2 -0.936856 9.02033 16.937
261 2 -7.83893 10.5194 16.4804
155 1 -1.13193 6.75385 13.9159
156 1 -4.77785 8.33537 11.8178
275 2 -0.514011 8.04671 15.416
320 2 -2.75719 10.5736 17.0919
165 2 -2.82804 7.96929 11.7227
319 2 -5.95888 8.30045 11.959
188 2 -1.67143 10.5758 12.9989
177 2 -0.883532 7.88779 13.6639
178 2 -0.314858 5.95415 13.927
179 2 -2.01655 6.59802 14.6392
180 2 -4.40751 7.432 11.174
181 2 -4.28336 8.45345 12.8746
153 4 -0.0253686 9.80672 11.7228
194 3 -3.33111 5.5648 12.8844
272 2 1.32365 8.16938 17.1317
195 3 -5.95649 9.84268 9.62373
196 3 -4.66217 11.2588 11.669
197 3 -1.20428 5.81676 11.2222
200 3 -1.66417 11.5861 9.08557
201 3 -3.38279 9.81214 9.98826
202 3 2.04822 6.16858 13.0306
203 3 -0.708682 9.48816 10.3209
302 2 -3.89247 7.45383 16.7211
329 2 -4.47765 6.70324 9.27042
159 1 -0.804718 11.3961 12.4351
273 2 0.0549676 10.124 15.4705
262 2 -5.85629 10.3842 16.2261
270 1 -0.110031 8.88246 16.1754
204 3 0.905773 8.84441 12.5885
172 2 1.35254 8.01923 15.1625
259 1 -6.86968 9.96343 15.9072
28 4 7.60248 1.5567 6.52446
31 4 6.42686 3.77392 8.50704
35 4 9.90109 1.45647 4.30654
37 4 12.1028 1.23837 6.29014
40 4 10.3921 4.03237 2.58617
296 2 10.1859 0.0186188 1.70042
105 2 11.7178 4.69526 0.375303
55 1 11.0916 3.84107 0.664481
264 2 5.43231 4.46002 2.6753
65 2 9.24326 0.284564 3.22507
69 2 10.0975 5.52339 3.5361
70 2 9.33893 4.10017 1.07366
49 1 6.96317 3.31398 3.03001
89 2 7.1166 4.26882 3.6059
87 2 6.74558 3.54731 1.97138
88 2 7.88729 2.66862 3.03268
106 2 11.6446 2.87538 0.935078
107 2 12.052 4.29486 2.30889
108 2 9.48539 4.73118 5.08892
118 3 7.81605 0.248454 7.39316
123 3 7.35667 2.78047 7.63047
124 3 5.43113 5.10711 7.39489
128 3 8.81103 1.76376 5.45531
129 3 15.0111 -0.487068 8.63637
131 3 13.5799 2.0686 5.73833
132 3 11.1957 0.716476 4.68839
133 3 12.5743 -0.224228 6.93928
137 3 10.1539 2.74803 3.45828
139 3 11.55 2.12137 7.46864
140 3 10.4813 4.45309 8.04874
316 2 13.4721 0.20702 3.70197
96 2 4.65872 5.15427 4.38972
330 2 13.0982 1.01169 0.615445
4 1 14.5529 0.519375 3.50394
281 2 10.4265 5.5963 0.111415
41 4 11.1152 3.04222 8.63593
11 2 14.7054 0.935202 2.4833
56 1 9.48343 5.84658 5.37954
323 2 8.40471 0.540255 1.27168
315 2 15.3413 -0.221422 3.8433
187 2 4.55527 4.22197 10.6902
309 2 13.689 -1.33312 14.2357
33 4 5.50003 3.10557 13.903
36 4 9.51908 1.33493 10.6551
38 4 8.68595 0.570165 15.7271
39 4 12.2284 -0.0364929 11.2081
50 1 7.46047 4.77145 9.62009
53 1 7.32187 2.45928 13.3654
54 1 9.42346 -0.620603 14.6056
327 2 8.12528 -1.26187 13.2036
63 2 4.82459 3.81412 12.4573
66 2 8.55023 2.12806 11.8553
67 2 8.46363 2.08236 14.9512
68 2 12.7434 -0.699571 12.7587
310 2 12.1457 -0.422745 14.8437
77 2 13.331 1.06698 13.7343
91 2 8.54668 4.36994 9.33235
92 2 7.06209 4.44013 10.6798
99 2 6.86096 2.78401 12.1995
100 2 6.98773 1.36353 13.8736
101 2 7.80616 3.31029 14.0086
102 2 10.5737 -0.985684 14.5421
103 2 9.1102 0.152863 13.589
104 2 8.71509 -1.46207 14.7534
130 3 8.39893 0.411763 10.0761
134 3 7.22932 0.188515 16.3278
135 3 13.3601 0.645347 10.4337
136 3 10.7673 0.649594 11.3402
138 3 10.0176 2.37856 9.63945
141 3 5.6547 4.41802 14.9979
249 4 11.0649 4.69602 13.6011
250 1 11.6235 2.84669 13.1851
304 1 13.5868 -1.68866 17.4305
71 2 12.415 3.53589 9.60212
253 2 11.9482 2.71597 12.1033
254 2 10.446 2.49957 13.2033
313 2 9.8592 0.945876 17.0239
256 2 9.37677 4.77035 11.9336
306 2 14.1677 -1.06311 16.6459
252 2 12.2239 2.47484 13.9884
307 1 12.6186 -1.42043 14.5801
26 4 7.98297 -0.570883 8.80625
158 1 4.21825 5.25474 11.2111
109 2 8.87309 6.41554 4.64513
42 4 10.0193 5.82326 7.43856
147 4 8.77877 10.0447 8.36802
299 2 0.962251 10.4225 8.74056
97 2 5.2534 6.87878 5.00036
297 2 0.667095 11.8985 1.81796
224 2 6.07806 6.61723 7.55486
295 1 1.00249 12.9246 1.32972
72 2 10.6904 6.33229 5.4477
205 4 8.21229 10.0329 2.64438
208 4 5.62411 12.1661 7.19593
209 4 3.46196 11.0444 3.48912
210 4 6.37282 8.32041 7.53931
211 4 5.96562 10.2784 5.05063
212 1 7.60029 10.7153 0.966312
216 1 3.97677 10.6746 1.70804
324 2 1.58907 11.7215 7.59006
305 2 6.13081 12.7241 0.435043
222 2 5.06744 10.677 7.73311
223 2 3.63618 12.7043 3.76757
317 2 6.55517 10.9291 1.14456
225 2 7.9213 9.03695 1.06842
244 3 7.7413 8.80851 8.0996
61 2 3.41332 6.7942 6.43016
233 2 0.933032 11.8559 5.40187
292 2 3.24335 8.77571 1.77041
236 2 4.86736 9.94848 1.85919
237 2 4.26771 11.7928 1.49258
238 2 3.14695 10.2564 0.945873
243 3 1.86759 10.5347 3.57081
245 3 7.03162 10.0617 3.8135
246 3 4.48087 10.2938 4.40775
247 3 6.00255 8.9716 6.1096
248 3 6.48153 11.9507 5.87775
240 2 4.07213 9.3965 8.50255
52 1 4.34263 6.25503 4.88008
98 2 3.56115 6.72706 4.17683
298 1 1.27381 11.4671 8.6143
57 1 10.5186 7.23287 8.55251
110 2 8.23339 5.85453 6.77094
282 2 9.77192 8.52039 0.00759057
43 4 5.46391 5.5713 16.0133
73 2 5.9174 6.98758 15.2104
217 1 5.06632 8.94684 8.79791
142 3 4.08813 5.7241 16.7416
251 1 9.55954 5.54101 12.7421
160 1 3.52106 8.52026 13.2565
173 2 0.902166 11.3461 11.5329
185 2 4.91331 5.61664 12.0297
239 2 4.89885 8.08576 9.44997
268 4 1.28943 9.99423 17.206
189 2 3.29501 9.54767 12.7356