ITEM: TIMESTEP
0
ITEM: NUMBER OF ATOMS
331
ITEM: BOX BOUNDS xy xz yz pp pp pp
-8.3499999999999996e+00 1.5708700000000000e+01 -8.2042000000000002e+00
-2.0055999999999998e+00 1.3086800000000000e+01 -1.4580000000000001e-01
0.0000000000000000e+00 1.7700047999999999e+01 -2.0055999999999998e+00
ITEM: ATOMS id type x y z
1 4 -0.763128 1.99368 4.53487
2 4 -0.153796 4.31342 2.21884
3 1 0.12461 2.91861 5.98145
174 2 -2.48394 5.39509 7.54534
5 1 1.74532 4.7642 3.49935
6 1 -1.59543 5.81438 1.80849
8 2 0.708832 3.88594 5.6704
9 2 0.838029 1.98769 6.18682
10 2 -0.772661 3.04275 6.75709
11 2 1.2914 0.296851 4.11813
12 2 1.57531 4.01545 1.77902
13 2 1.09158 4.33945 4.4343
14 2 2.83561 4.86005 3.86817
263 4 4.33274 4.32465 1.44909
16 2 -2.5027 5.41594 2.38916
17 2 -1.27555 4.66731 0.617533
18 3 -0.735962 3.17429 3.11842
24 4 5.00612 1.23599 4.38482
45 1 3.23563 2.12027 4.73862
47 1 3.59558 0.576372 8.51462
176 2 -1.84291 3.89913 6.74078
7 2 1.34445 5.79922 3.23747
78 2 2.72213 3.08592 4.23348
79 2 3.82401 2.38332 5.85826
80 2 2.4825 1.30878 4.82898
46 1 6.25773 0.252946 0.366593
82 2 4.09238 1.00963 7.65959
51 1 2.59304 5.51129 7.07786
163 2 -3.21657 5.10925 5.40921
154 1 -2.07126 4.98607 6.5869
93 2 2.614 4.56883 7.73057
285 2 2.52967 1.76344 0.615998
265 2 3.11509 3.72115 2.53514
117 3 5.85718 0.624282 5.60297
284 2 0.600022 2.13214 0.968693
321 2 5.52529 0.460204 1.30406
94 2 2.16563 5.20035 5.9614
267 3 3.71706 5.615 0.755945
266 3 5.0264 3.17527 0.679252
96 2 4.14774 3.93127 4.66889
4 1 0.173592 0.379422 4.01568
312 2 3.52528 0.392468 3.88293
162 2 2.61265 -0.105337 6.95734
170 2 -0.681358 5.33904 7.98416
316 2 -0.142825 0.471038 2.89945
87 2 5.6107 2.42188 2.21306
175 2 -0.43651 5.64278 6.13878
283 1 1.40333 1.79033 0.146335
15 2 -0.496326 6.1749 2.60193
83 2 2.49467 0.786212 8.60823
49 1 6.15876 2.07492 3.21749
19 4 1.60013 1.01411 16.5266
21 4 2.45657 -1.15975 13.1526
22 4 1.22472 1.25983 11.673
23 4 -0.954482 2.49783 13.7176
25 4 6.13177 -0.0123232 17.4417
27 4 4.10945 1.50773 10.1067
29 4 4.37834 0.481165 14.8041
150 4 2.67895 5.21624 11.1242
81 2 4.01068 -0.423088 8.92253
127 3 1.27539 4.27888 16.7718
48 1 5.40258 0.532793 11.1214
58 2 0.162406 0.615647 15.6426
44 1 -1.50727 0.896334 14.5391
34 4 -0.312682 4.35423 16.2447
75 2 -0.76033 0.0835349 14.2632
198 3 1.53848 5.35045 9.81666
311 2 1.40096 2.74118 16.7478
84 2 5.84259 -0.35179 10.3656
85 2 4.8502 0.0758409 12.1605
171 2 2.4963 3.53798 11.3955
112 3 0.545296 0.274178 10.1283
113 3 1.60154 0.112125 12.6753
114 3 0.150323 2.28434 12.4856
116 3 2.59386 1.93474 11.361
119 3 4.14837 -0.593834 13.5882
120 3 5.55588 -0.0315289 15.8725
121 3 2.99733 0.72974 15.7132
122 3 5.01 2.69855 9.57069
125 3 4.91793 1.86194 14.1524
126 3 -0.684559 3.33451 15.0847
286 2 0.976682 -1.14287 17.2324
59 2 -0.784915 2.47142 9.58447
60 2 -2.51819 3.06331 13.0071
20 4 -0.951141 0.787891 9.70582
77 2 -1.74806 1.05463 15.6446
326 2 7.45885 -1.09015 12.5286
62 2 -1.36649 4.26826 17.5921
95 2 1.93503 6.38381 7.62401
143 4 -6.3811 11.4709 6.56014
144 4 -1.93019 6.50939 5.34716
146 4 -2.50636 9.23681 6.98557
294 2 1.66242 8.29148 0.983553
300 2 0.316171 10.0444 8.05727
231 2 1.97826 8.20943 4.80772
322 2 -0.772863 12.9725 0.797081
317 2 -5.46239 9.72109 3.86505
235 2 -1.24957 11.5265 5.1819
166 2 -4.12283 9.75713 7.23376
167 2 -1.80397 10.5436 6.03611
169 2 -6.16478 11.2087 4.83825
164 2 -1.99777 6.58686 3.54974
230 2 0.32688 8.69126 5.91935
234 2 0.196106 10.9889 6.36043
183 2 -0.242138 7.38433 7.64514
192 3 -2.33875 7.86299 6.11475
193 3 -5.725 10.2495 7.36589
199 3 -1.82269 9.09776 8.37395
206 4 -1.78665 9.12384 1.34877
207 4 0.396673 9.8188 3.95638
213 1 -3.12955 10.262 1.05399
214 1 0.847868 8.25705 4.83138
215 1 -0.147405 11.2001 5.21679
184 2 1.50993 7.87719 8.25412
221 2 -2.30473 7.26381 1.197
227 2 -3.96769 9.38843 1.6281
242 3 -0.773621 9.57043 2.53399
229 2 -2.86377 11.2264 1.70717
157 1 0.511416 7.58658 8.56394
232 2 0.288389 7.26063 4.45923
328 2 -5.82954 8.48882 7.44532
261 2 -6.92843 10.1312 16.5578
64 2 -0.650256 5.94627 15.6658
115 3 -6.69187 11.0807 14.4708
145 4 -1.86615 6.29042 12.3466
148 4 -4.94543 9.65463 11.0232
151 4 -1.94275 10.1709 9.80073
200 3 -1.73064 11.685 9.23082
153 4 0.0446523 9.79823 12.1761
155 1 -1.1055 7.03658 14.0153
156 1 -4.76353 7.97856 12.0407
274 2 -0.740035 10.8451 16.6545
182 2 -0.0699613 8.24854 9.35542
165 2 -1.97691 8.08518 12.7838
149 4 0.0930433 5.9417 9.44305
258 4 -7.07602 9.55837 14.2963
177 2 -0.362798 7.64371 14.5249
178 2 -0.535054 5.60259 13.6776
179 2 -2.00722 6.87281 14.719
180 2 -3.96261 7.56194 11.3449
181 2 -4.40383 8.03345 13.1038
220 2 -1.20644 7.39146 17.4896
188 2 -1.20516 10.3078 13.3671
194 3 -3.1737 5.57016 12.6151
195 3 -6.1249 9.41826 9.97028
196 3 -5.45065 10.7892 11.9849
197 3 -0.936718 6.06542 10.6843
147 4 -7.0537 10.3251 8.94312
201 3 -3.40239 9.96086 10.4131
202 3 2.34981 6.1452 12.45
203 3 -0.757759 9.70181 10.7526
168 2 -7.26922 11.8358 9.72627
275 2 -0.111954 9.07121 15.9492
204 3 1.06174 8.70033 12.7523
260 2 -5.74317 8.73524 13.592
303 2 -4.80154 6.21335 17.2602
320 2 -2.55958 10.7499 17.1931
30 4 3.04861 4.89526 17.6237
172 2 1.62137 7.35502 14.8931
270 1 0.0127325 10.2384 15.9255
228 2 -3.48874 8.43888 17.6289
28 4 7.30173 1.16415 6.44258
31 4 6.03439 3.45986 8.48004
35 4 9.5521 1.94107 4.21234
37 4 12.082 1.43135 5.99807
40 4 10.9196 4.06609 2.52018
330 2 13.0481 1.42341 0.480312
105 2 12.1314 3.35943 0.642828
55 1 12.0402 2.80011 1.59524
56 1 7.93284 5.02675 5.54811
65 2 9.32816 0.711973 3.02739
69 2 11.7436 5.05718 3.68473
70 2 10.2598 5.46306 1.4967
313 2 10.444 2.27212 0.514413
89 2 6.34818 2.96169 3.88569
296 2 9.07436 0.693221 0.537399
32 4 4.3218 5.61076 6.51288
106 2 11.5142 1.75737 1.63454
107 2 12.9666 2.9898 2.41861
108 2 7.99402 3.91262 5.52649
118 3 8.05584 -0.0425608 7.2019
123 3 6.79474 2.43116 7.48029
124 3 5.14039 4.72336 7.56975
128 3 8.3121 1.91101 5.28431
129 3 14.2997 0.242145 8.20516
131 3 13.4923 1.63113 5.16618
132 3 10.8745 1.58623 5.041
133 3 11.998 -0.406375 6.55372
137 3 9.77237 3.31215 3.40507
139 3 12.0193 2.40953 7.3412
140 3 10.2939 4.3328 7.44459
42 4 9.63017 5.54291 6.63465
264 2 5.34963 4.83288 2.7745
26 4 8.10797 -0.588073 8.71531
97 2 5.86267 4.78769 4.34116
109 2 7.03033 5.36241 4.89161
41 4 11.0588 3.20224 8.31855
110 2 7.67265 5.42955 6.78719
88 2 7.08295 1.42703 3.08726
52 1 4.7308 5.03432 4.61885
98 2 4.26094 5.81156 3.9854
72 2 9.62077 5.58997 4.83341
237 2 12.7866 -0.326467 3.50301
315 2 15.3613 -0.48581 4.53453
309 2 13.6703 -1.46567 14.2854
68 2 12.4475 -0.742982 12.8387
33 4 5.89386 3.19777 14.0506
36 4 9.76441 1.36309 10.478
38 4 9.18321 1.06494 17.1491
39 4 12.2648 -0.213034 11.2095
50 1 7.32505 4.25614 9.59424
53 1 7.41959 3.11348 12.598
54 1 9.41862 0.18174 15.5426
306 2 14.4507 -0.819309 16.9389
63 2 5.82056 3.92421 12.4232
66 2 9.00088 2.30936 11.7432
67 2 9.39064 2.83916 17.4552
71 2 12.0388 4.26687 9.22192
281 2 8.60424 4.47026 16.6886
327 2 8.76106 -0.81188 13.8796
90 2 6.97119 5.35834 9.56515
92 2 7.4669 3.8564 10.7018
99 2 8.255 3.87941 12.334
100 2 7.27036 2.18116 11.8331
101 2 7.81725 2.58037 14.0476
102 2 10.6165 0.313217 15.4899
103 2 8.74313 0.913027 14.8891
104 2 8.95552 -0.956369 15.6938
130 3 8.65436 0.350245 9.82359
134 3 7.71628 0.512415 17.6294
135 3 13.6015 0.530087 10.8208
136 3 10.9965 0.601809 11.0424
138 3 10.2911 2.42446 9.38529
141 3 5.94736 4.41884 15.1756
249 4 10.9631 4.69093 13.0691
250 1 11.2391 2.78032 13.1916
187 2 4.84741 4.78337 10.7101
252 2 11.8479 2.5148 14.0749
253 2 11.6913 2.42271 12.2474
254 2 10.1689 2.33152 13.2677
304 1 13.6272 -1.38243 17.5272
256 2 9.37093 4.23774 10.9403
76 2 13.1526 0.888209 13.8186
302 2 11.2872 4.34729 17.2155
91 2 8.24762 4.15579 8.91152
310 2 11.7795 -1.1636 14.3874
251 1 9.76428 5.09104 11.6442
301 1 10.2155 4.46178 17.5861
86 2 6.25921 1.3526 11.4653
222 2 4.77488 11.0531 8.53414
218 2 9.8795 8.0854 5.69501
57 1 9.68117 7.32611 7.49109
61 2 4.65045 7.3229 6.75567
299 2 1.57762 11.3046 7.4802
226 2 8.92596 8.87471 2.48228
298 1 0.977725 10.9161 8.28459
244 3 7.32031 9.60141 8.68648
248 3 6.04935 11.4493 6.207
205 4 8.48709 8.4451 4.65353
212 1 9.13468 9.73847 3.48826
209 4 3.65598 10.6593 3.82248
247 3 4.93454 8.88048 7.0612
211 4 5.76079 9.65395 5.65299
243 3 2.10055 10.3585 3.51867
216 1 4.33641 11.9751 2.64364
111 2 8.57438 7.14305 7.77918
219 2 8.17199 6.69077 4.54028
245 3 7.1956 9.03302 5.30141
223 2 3.54655 11.7567 5.18994
325 2 10.2594 6.95753 0.792736
208 4 5.24866 12.2381 7.3407
210 4 6.01061 8.80897 8.64337
297 2 2.04719 12.4222 2.05257
233 2 0.471054 11.984 4.5878
295 1 1.02323 12.3926 1.5203
236 2 5.28902 11.5903 2.13083
246 3 4.68113 9.53076 4.27987
238 2 3.46218 12.3077 1.90591
292 2 3.43821 9.02736 1.04289
161 2 7.60098 11.6576 6.63842
272 2 1.30833 10.7665 0.820614
305 2 5.99241 12.861 0.511413
225 2 8.62714 10.7126 3.39753
323 2 0.224141 12.3191 2.3466
329 2 10.4246 6.86279 8.2764
291 1 2.75904 8.1352 1.30397
293 2 2.94454 7.59959 2.30248
43 4 5.54967 5.55929 16.1247
73 2 5.78018 7.05094 15.3978
255 2 8.914 5.6579 12.2184
142 3 4.01887 5.55172 16.5558
74 2 6.62162 5.59457 17.4445
160 1 3.87749 8.27098 13.1161
159 1 0.187313 11.5777 12.9758
185 2 4.58932 6.58564 11.4488
276 2 5.83634 8.54996 17.2076
282 2 8.81715 7.16729 15.8587
189 2 3.59071 9.21847 12.6025
190 2 4.46917 7.51204 12.4376
191 2 4.11089 8.27015 14.216
217 1 4.80694 9.67102 9.94488
239 2 4.79315 8.53389 10.5279
262 2 8.99944 8.38517 17.0874
241 2 5.47423 10.4747 10.505
240 2 3.7626 9.98868 9.59021
257 2 10.3428 5.82471 10.9534
307 1 4.442 11.1791 14.4175
259 1 8.46918 9.03661 16.3198
269 4 4.50752 10.5317 16.4368
271 1 5.27271 8.66259 16.304
158 1 4.35312 5.82718 10.6418
318 2 7.2765 8.90704 16.318
277 2 5.97074 8.8114 15.2238
278 2 4.3977 7.92061 16.1271
279 3 2.97051 10.3254 16.8577
280 4 9.77638 5.69366 15.9769
186 2 4.27051 6.21128 9.58422
268 4 1.42251 10.1631 17.2606
287 1 6.95721 9.21393 13.4781
288 2 6.65459 8.15654 13.6467
289 2 7.35266 9.42476 12.393
290 2 6.00608 10.0585 13.904
152 4 2.14576 7.55646 13.2912
308 2 4.23445 10.1327 13.8469
314 2 3.78098 11.3638 10.4396
331 3 10.3923 5.20982 14.5296
273 2 0.160127 10.7497 14.8212
324 2 1.5683 10.8227 9.31665
319 2 9.98551 7.34938 11.8971
224 2 6.4572 7.2166 8.87372
173 2 1.1556 11.5806 11.9601
ITEM: TIMESTEP
100
ITEM: NUMBER OF ATOMS
331
ITEM: BOX BOUNDS xy xz yz pp pp pp
-8.3499999999999996e+00 1.5708700000000000e+01 -8.2042000000000002e+00
-2.0055999999999998e+00 1.3086800000000000e+01 -1.4580000000000001e-01
0.0000000000000000e+00 1.7700047999999999e+01 -2.0055999999999998e+00
ITEM: ATOMS id type x y z
1 4 -0.850109 2.13572 4.54658
2 4 -0.204839 4.31537 2.26833
3 1 0.0476501 3.10426 5.92306
49 1 6.23286 2.0752 3.31222
5 1 1.75167 4.58057 3.54585
6 1 -1.16958 6.01827 1.79846
8 2 0.31011 4.15527 5.53997
9 2 0.919541 2.34539 6.0422
10 2 -0.667245 3.11043 6.85175
11 2 1.39979 0.822223 4.43836
12 2 1.49652 3.70805 1.92918
13 2 1.2395 3.91756 4.33063
14 2 2.81523 4.68246 3.87838
263 4 4.41676 4.39284 1.49972
16 2 -2.17914 5.88474 2.18615
17 2 -0.88586 4.63232 0.605717
18 3 -1.00221 3.23971 3.09713
24 4 5.0697 1.26857 4.4063
45 1 3.29395 2.08097 5.04617
47 1 3.30921 0.613037 8.65822
176 2 -1.62669 4.08805 6.9163
7 2 1.20846 5.69573 3.44629
78 2 2.78301 2.97624 4.43021
79 2 3.60854 2.46469 6.06172
80 2 2.571 1.1328 5.1459
46 1 6.23774 0.450989 0.563708
82 2 3.89595 1.09716 7.71358
51 1 2.66742 5.38191 6.97047
163 2 -3.44608 5.14293 5.76717
154 1 -1.95222 5.21557 6.68385
93 2 2.70053 4.38681 7.51607
285 2 2.23225 2.25295 0.917457
265 2 3.20752 3.72732 2.48178
117 3 5.88587 0.536989 5.48809
284 2 0.342744 1.88147 0.539268
321 2 5.36063 0.564694 1.30558
94 2 2.20578 5.33394 5.88743
267 3 3.69654 5.46415 0.607861
266 3 5.11696 3.30218 0.798598
96 2 4.19965 3.86502 4.71141
4 1 0.370052 0.697207 4.0023
312 2 3.53584 0.622249 3.80491
162 2 2.64172 -0.174169 6.97492
170 2 -0.54036 5.22796 8.10869
316 2 0.403554 0.668065 2.90525
87 2 5.7142 2.55729 2.34764
315 2 -0.17391 -0.204986 4.41347
283 1 1.34744 1.78834 0.197413
83 2 2.12846 0.534004 8.54183
322 2 7.32199 0.155836 1.01043
175 2 -0.449378 5.84571 6.02152
19 4 1.60502 0.945154 16.4792
21 4 2.45053 -1.10924 13.2816
22 4 1.08392 1.12642 11.677
23 4 -0.883099 2.36279 13.7172
25 4 6.063 0.103482 17.4304
27 4 4.06263 1.54672 10.1009
29 4 4.41625 0.556982 14.9567
150 4 2.61236 5.17809 11.1077
81 2 3.79959 -0.430971 9.06152
127 3 1.06007 4.2635 16.8394
48 1 5.18456 0.485777 11.2476
58 2 0.423556 0.227218 15.4134
44 1 -1.30999 0.657977 14.556
34 4 -0.270989 4.32468 16.2002
75 2 -0.529705 0.0176767 14.0247
198 3 1.46426 5.16807 9.99344
311 2 1.32221 2.60713 16.854
84 2 5.60322 -0.355219 10.5589
85 2 4.63753 0.0579485 12.1723
171 2 2.51215 3.55588 11.752
112 3 0.456488 0.390678 10.1238
113 3 1.47652 -0.0738133 12.6258
114 3 0.0962742 1.98734 12.578
116 3 2.56401 2.06151 11.0631
119 3 4.07449 -0.479912 13.8043
120 3 5.54011 -0.191035 15.8813
121 3 3.02886 0.752382 15.8155
122 3 4.9863 2.68068 9.39124
125 3 5.01622 1.92569 14.2398
126 3 -0.495676 3.29354 14.9895
286 2 1.41971 -1.20888 17.4544
59 2 -1.11746 2.49618 9.42125
60 2 -2.32356 3.05433 12.9659
20 4 -0.975531 0.835809 9.57023
77 2 -1.26663 0.670173 15.6835
62 2 -1.36594 4.13502 17.4941
86 2 6.01697 1.22435 11.5642
95 2 2.18654 6.23108 7.53696
143 4 -6.28134 11.3722 6.59139
144 4 -2.15934 6.51861 5.36713
146 4 -2.49877 9.25554 6.95841
294 2 1.72056 8.04904 1.26991
300 2 0.430156 10.0188 7.83414
231 2 1.87645 8.2705 5.50182
15 2 -0.422451 6.62049 2.32512
317 2 -5.40158 9.8951 3.73516
235 2 -1.30038 11.4769 5.00402
166 2 -4.09015 9.78182 7.20618
167 2 -1.76549 10.4551 5.99556
169 2 -5.90156 11.0944 4.92849
164 2 -1.60954 6.29725 3.64828
230 2 0.0053226 8.45336 5.7725
234 2 0.197448 11.0895 6.26602
183 2 0.13265 7.45019 7.7943
192 3 -2.32824 7.91931 6.06466
193 3 -5.81279 10.2405 7.4857
199 3 -1.80662 9.19155 8.32018
206 4 -1.73962 9.18495 1.5104
207 4 0.568561 9.8393 3.90686
213 1 -2.999 10.4538 0.897397
214 1 0.823882 8.31424 5.0097
215 1 -0.198105 11.2165 5.07284
184 2 1.86513 7.63725 8.64948
221 2 -1.52478 7.54712 0.73624
227 2 -3.32959 9.02236 2.19388
242 3 -0.633543 9.47021 2.63856
229 2 -3.05061 11.2576 1.68643
157 1 0.720277 7.55411 8.75382
232 2 0.632273 7.49344 4.27703
328 2 -5.85907 8.42117 7.59326
174 2 -2.25581 5.73471 7.61485
228 2 -3.9778 10.3172 0.403603
261 2 -6.71561 10.032 16.7894
64 2 -0.64562 5.89301 15.6218
115 3 -6.67559 11.1799 14.6412
145 4 -1.79241 5.90576 12.2936
148 4 -5.00519 9.712 11.1673
151 4 -2.06542 10.0764 9.68597
200 3 -1.76082 11.6546 9.26944
153 4 0.0472786 9.79798 12.2646
155 1 -1.16083 6.82151 13.939
156 1 -4.94089 8.05505 12.1769
274 2 -0.458736 10.9748 16.4779
182 2 0.376453 8.24686 9.56379
165 2 -2.00647 7.77452 12.7706
149 4 0.151237 5.93397 9.54277
258 4 -7.02028 9.64504 14.5407
177 2 -0.379897 7.49139 14.4298
178 2 -0.428181 5.33259 13.4744
179 2 -2.00172 6.53723 14.6317
180 2 -4.08902 7.60851 11.5028
181 2 -4.72807 7.73658 13.255
172 2 2.01324 6.94883 14.7396
188 2 -1.05128 10.3383 13.552
194 3 -3.1747 5.24975 12.6494
195 3 -6.36995 9.55505 10.1
196 3 -5.30979 10.8188 12.2574
197 3 -1.03228 6.01288 10.7438
147 4 -7.13216 10.3704 8.92703
201 3 -3.61362 9.94376 10.4536
202 3 2.27562 6.22677 12.305
203 3 -0.851055 9.70791 11.0093
168 2 -7.27083 11.9438 9.48758
275 2 -0.00977445 9.09982 15.7895
204 3 1.10828 8.73146 12.8607
260 2 -5.68976 8.56646 13.9002
303 2 -4.47797 6.13524 17.0736
320 2 -2.45679 10.8789 17.3276
30 4 2.93988 4.69713 17.4799
220 2 -2.04385 8.43891 17.5453
28 4 7.32569 1.28157 6.29769
31 4 6.08194 3.45591 8.37829
35 4 9.5694 2.07978 4.24154
37 4 12.061 1.48795 5.97251
40 4 10.9816 4.09066 2.54042
330 2 13.0582 1.52367 0.441486
105 2 11.9204 3.51238 0.558022
55 1 11.9822 2.80653 1.63931
56 1 8.05123 5.08466 5.26901
65 2 9.26295 0.865565 3.04876
69 2 11.9737 4.99386 3.53857
70 2 10.28 5.35117 1.44752
313 2 10.4689 2.53236 0.337191
89 2 6.66144 2.97133 3.92657
296 2 9.10595 0.661393 0.960286
32 4 4.41265 5.6326 6.4287
106 2 11.4538 1.82387 1.60259
107 2 13.0751 2.88133 2.28681
108 2 8.14334 3.97763 5.09073
118 3 7.88453 0.0872492 7.15451
123 3 6.83194 2.46129 7.41756
124 3 5.30937 4.765 7.43626
128 3 8.26204 1.95384 5.18039
129 3 14.3971 0.199014 8.14329
131 3 13.4373 1.63975 5.1676
132 3 10.8259 1.6082 4.97415
133 3 12.0103 -0.314348 6.77465
137 3 9.80014 3.28711 3.22366
139 3 11.9521 2.30172 7.35043
140 3 10.3689 4.34328 7.48574
42 4 9.46549 5.60725 6.80042
264 2 5.31288 5.11759 2.73022
26 4 7.99351 -0.721754 8.53114
97 2 5.86673 4.96204 4.38737
109 2 7.15791 5.44658 4.51885
41 4 11.176 3.28651 8.40515
110 2 7.58844 5.27653 6.67543
88 2 7.00807 1.30124 3.04934
52 1 4.65998 4.96935 4.56212
98 2 4.03565 5.62705 3.85598
72 2 9.62762 5.77022 4.90466
208 4 13.4154 -0.819221 7.27203
309 2 13.6285 -1.43581 14.1802
68 2 12.4845 -0.882419 12.6824
33 4 6.07531 3.09463 14.1008
36 4 9.8304 1.32452 10.256
38 4 9.13744 1.13549 17.0114
39 4 12.2028 -0.242707 11.111
50 1 7.32805 4.12842 9.65699
53 1 7.46613 2.85705 12.5837
54 1 9.52555 0.176851 15.4385
306 2 14.3194 -0.787355 16.6961
63 2 6.02593 3.85469 12.4118
66 2 8.85543 2.1473 11.4666
67 2 9.40663 2.90229 17.1676
159 1 8.43136 -1.43113 12.9307
281 2 8.69839 4.43722 16.7415
327 2 8.85127 -0.889557 13.8397
90 2 6.98635 5.24653 9.66645
92 2 7.38044 3.62759 10.6951
99 2 8.34412 3.59433 12.2569
100 2 7.2281 1.93401 12.0007
101 2 7.92958 2.42683 14.1748
102 2 10.7134 0.327243 15.523
103 2 8.92176 0.913494 14.7477
104 2 9.07337 -0.881601 15.5298
130 3 8.78582 0.206924 9.53187
134 3 7.6738 0.753121 17.3687
135 3 13.5643 0.279946 10.5662
136 3 10.9346 0.601617 11.0198
138 3 10.2447 2.48914 9.37115
141 3 5.86406 4.27804 15.1089
249 4 11.0892 4.65167 13.0282
250 1 11.458 2.77305 13.0387
187 2 4.78453 4.76357 10.6736
252 2 11.9489 2.45775 14.0373
253 2 11.9965 2.39415 12.0853
254 2 10.3535 2.48235 13.0557
304 1 13.5279 -1.24293 17.4532
256 2 9.57954 4.12469 11.0453
76 2 13.3206 0.604037 14.0641
302 2 11.3267 4.14197 17.1823
91 2 8.2749 3.87251 9.02353
310 2 11.7641 -1.23783 14.3841
251 1 9.71105 5.0056 11.6777
301 1 10.3146 4.48396 17.6369
326 2 7.54211 -0.818095 12.5239
71 2 12.295 4.07662 9.43116
222 2 4.68524 11.0869 8.42203
218 2 9.72032 8.10963 5.925
57 1 9.75554 7.30398 7.66903
61 2 4.84112 7.29189 6.4664
299 2 1.68796 11.3111 7.35298
226 2 8.93036 8.97683 2.55389
298 1 0.987032 10.8938 8.1173
244 3 7.22167 9.56013 8.75116
248 3 6.10607 11.5746 6.14814
205 4 8.50629 8.43424 4.68138
212 1 9.21017 9.7564 3.5602
209 4 3.5752 10.8708 4.11086
247 3 5.13461 8.83622 7.19196
211 4 5.8485 9.73038 5.66561
243 3 2.07768 10.3052 3.66102
216 1 4.17355 11.9227 2.67978
111 2 8.68151 7.12289 8.23284
219 2 8.2089 6.72988 4.21259
245 3 7.21193 9.05304 5.27708
223 2 3.26631 11.8239 5.53462
325 2 10.6352 7.29221 0.693481
225 2 8.53144 10.7047 3.6268
210 4 5.8134 8.76688 8.61628
297 2 1.91607 12.548 2.22977
233 2 0.560756 12.0524 4.53589
295 1 0.960558 12.6543 1.55932
236 2 4.799 11.078 2.09118
246 3 4.66927 9.74035 4.57684
238 2 3.33694 12.4055 2.0675
292 2 3.37396 8.9336 0.622128
161 2 7.7028 11.4662 6.58129
272 2 1.42701 10.8963 0.964253
293 2 3.40323 7.60997 2.05889
291 1 2.8351 8.00096 1.14113
323 2 -0.0154011 12.4102 2.09703
329 2 10.6001 6.89719 8.28715
305 2 5.9691 12.8767 0.439095
237 2 4.79814 12.7121 3.26709
43 4 5.4528 5.38441 16.0536
73 2 5.91377 7.0074 15.4613
255 2 8.7162 5.43467 11.9814
142 3 3.89893 5.43198 16.4342
74 2 6.49453 5.52758 17.3652
160 1 3.86743 8.40472 12.8307
173 2 1.28407 11.6003 12.0841
185 2 4.54532 6.72151 11.2258
276 2 6.09714 8.58124 17.2497
282 2 8.98932 7.15839 15.8125
189 2 3.37772 9.44013 12.5009
190 2 4.58711 7.9678 12.0927
191 2 4.22573 8.36236 13.9088
217 1 4.44191 9.6302 9.75016
239 2 4.39401 8.5852 10.3538
270 1 0.306152 10.2572 15.8249
241 2 5.06998 10.4229 10.2714
240 2 3.42549 10.0617 9.41969
257 2 10.3764 5.80297 11.1629
307 1 4.46992 11.1621 14.4172
259 1 8.67794 8.98823 16.4075
269 4 4.49102 10.6126 16.4104
271 1 5.4333 8.73691 16.2699
158 1 4.26011 5.81753 10.5138
318 2 7.43595 8.86832 16.4991
277 2 6.04125 8.8515 15.2894
278 2 4.52032 8.06109 16.3275
279 3 2.88871 10.3966 16.892
280 4 9.92688 5.6791 15.9808
186 2 4.0825 6.19143 9.39527
268 4 1.39508 10.0006 17.3086
287 1 7.07174 9.3533 13.5878
288 2 6.76354 8.21609 13.7052
289 2 7.45573 9.52011 12.566
290 2 6.12235 10.0181 13.8639
152 4 2.17766 7.6188 13.1781
308 2 4.2652 10.1551 13.8021
314 2 3.67425 11.3667 10.373
331 3 10.4914 5.13764 14.5629
273 2 0.35818 10.686 14.739
324 2 1.47134 10.8081 9.16751
319 2 9.69432 7.71682 11.8538
224 2 6.11078 7.12942 8.92865
262 2 9.1798 8.20514 17.0504
ITEM: TIMESTEP
200
ITEM: NUMBER OF ATOMS
331
ITEM: BOX BOUNDS xy xz yz pp pp pp
-8.3499999999999996e+00 1.5708700000000000e+01 -8.2042000000000002e+00
-2.0055999999999998e+00 1.3086800000000000e+01 -1.4580000000000001e-01
0.0000000000000000e+00 1.7700047999999999e+01 -2.0055999999999998e+00
ITEM: ATOMS id type x y z
1 4 -0.934281 2.29709 4.59993
2 4 -0.214342 4.4251 2.34033
3 1 0.137725 3.11423 5.93038
174 2 -2.66554 5.48045 7.5607
5 1 1.76878 4.66098 3.59491
6 1 -1.25117 5.92543 1.70889
8 2 0.325677 4.22146 5.98961
9 2 1.10582 2.48475 5.65901
10 2 -0.344177 2.74625 6.88086
11 2 1.19633 0.866994 4.73021
12 2 1.51609 3.6695 2.13347
13 2 1.16103 4.05725 4.44956
14 2 2.85143 4.81506 4.01172
263 4 4.28658 4.39079 1.4364
16 2 -2.30981 5.86302 2.14454
17 2 -0.656252 4.48794 0.596518
18 3 -1.18049 3.42613 3.0787
24 4 5.14431 1.36894 4.38359
45 1 3.30771 2.08231 4.81606
47 1 3.15873 0.390977 8.67636
176 2 -1.88077 4.04032 6.85279
7 2 1.25798 5.71665 3.48714
78 2 2.7488 3.04113 4.41088
79 2 3.71506 2.18065 5.94382
80 2 2.58981 1.19338 4.807
46 1 6.30184 0.656854 0.765426
82 2 3.41588 1.00228 7.80431
51 1 2.62947 5.52158 7.07187
163 2 -3.30782 5.16417 5.35578
154 1 -2.1179 5.09195 6.68081
93 2 2.57293 4.68809 7.82504
285 2 2.21537 2.10973 0.938062
265 2 3.17852 3.71279 2.55588
117 3 5.85588 0.64154 5.63072
284 2 0.305444 1.88784 0.489871
321 2 5.62909 0.900739 1.65981
94 2 2.21423 5.13012 6.01792
267 3 3.62346 5.51517 0.66684
266 3 5.11814 3.42038 0.649522
96 2 4.24989 3.89596 4.71273
4 1 0.216606 0.841571 4.17124
312 2 3.78255 0.49086 3.71266
162 2 2.63309 -0.298463 6.91269
170 2 -0.766939 5.15217 8.11727
316 2 0.34746 1.07982 3.09384
87 2 5.8479 2.64756 2.24577
322 2 7.45999 0.154907 1.10474
283 1 1.45227 1.75709 0.148608
175 2 -0.646922 5.81121 6.39265
83 2 2.10203 0.203096 8.82147
19 4 1.70429 1.01484 16.5716
21 4 2.57799 -1.15118 13.2978
22 4 1.08368 1.19656 11.6307
23 4 -0.865977 2.36425 13.6775
25 4 6.14525 0.182265 17.4117
27 4 3.92066 1.52068 10.0736
29 4 4.42248 0.490281 14.9652
150 4 2.63 5.05867 11.241
81 2 3.93207 -0.508024 8.95952
127 3 1.10223 4.21668 16.6517
48 1 5.19363 0.556274 11.1025
58 2 0.273456 0.804738 15.5952
44 1 -1.35739 0.659983 14.557
34 4 -0.33381 4.25151 16.0907
86 2 5.972 1.33177 11.3682
198 3 1.38039 5.08183 9.93646
311 2 1.44415 2.70861 16.7014
84 2 5.61378 -0.240024 10.2878
85 2 4.77223 0.0687242 12.0048
171 2 2.67133 3.43291 11.8811
112 3 0.340605 0.415649 10.0527
113 3 1.53192 -0.0694979 12.5405
114 3 0.0624888 2.13934 12.4314
116 3 2.39676 1.98666 11.2682
119 3 3.9691 -0.49379 13.6184
120 3 5.4331 -0.358829 15.9728
121 3 3.03343 0.897736 15.7955
122 3 4.78126 2.61023 9.36993
125 3 5.22301 1.80727 14.3419
126 3 -0.641395 3.23232 14.97
286 2 1.6033 -1.21317 17.2832
59 2 -1.24418 2.48019 9.6249
60 2 -2.3693 2.91257 12.9848
20 4 -1.15126 0.80155 9.62184
77 2 -1.67733 0.875295 15.6635
62 2 -1.36851 4.11836 17.4881
168 2 0.917357 -1.07223 9.49374
75 2 -0.650533 -0.158715 14.3756
95 2 2.11258 6.40588 7.4957
143 4 -6.24476 11.269 6.53012
144 4 -2.06474 6.53647 5.30943
146 4 -2.5147 9.23755 6.90131
294 2 1.43407 7.97496 0.990872
300 2 0.195029 9.96596 7.49224
231 2 1.52981 7.85951 5.3647
15 2 -0.613387 6.67387 2.21494
317 2 -5.04201 9.54526 3.98866
235 2 -1.28053 11.4097 4.79733
166 2 -4.02912 10.0038 6.96608
167 2 -1.62345 10.4978 6.14901
169 2 -5.6063 10.7268 5.04919
164 2 -1.66745 6.29493 3.56076
230 2 -0.171533 8.59819 5.80499
234 2 0.209842 11.1408 6.07644
183 2 0.479803 7.65878 7.98975
192 3 -2.52329 7.92823 5.95629
193 3 -5.98361 10.2288 7.64314
199 3 -1.89327 9.10152 8.30541
206 4 -1.54002 9.21858 1.6907
207 4 0.496516 9.83172 4.01482
213 1 -2.75198 10.5923 1.25773
214 1 0.54658 8.20164 4.9732
215 1 -0.181362 11.3658 5.04042
329 2 -4.80008 7.05569 8.13547
221 2 -1.27899 7.62149 0.850634
227 2 -3.33979 9.3207 2.24673
242 3 -0.455891 9.54928 2.78973
229 2 -2.34405 11.3588 2.04362
220 2 -1.54024 10.518 0.194787
232 2 0.0547223 7.38527 4.3711
228 2 -3.67876 10.9777 0.740736
291 1 2.57937 8.03175 1.04003
212 1 -6.11453 9.47746 3.5467
328 2 -5.87034 8.48843 7.74326
225 2 -6.59138 10.5254 3.41869
261 2 -6.92375 9.94288 17.0483
64 2 -0.647492 5.86951 15.5883
115 3 -6.5419 11.1214 14.7297
145 4 -1.69665 5.80423 12.2342
148 4 -4.9533 9.68738 11.1968
151 4 -2.04006 10.0394 9.65813
200 3 -1.76821 11.7486 9.2197
153 4 -0.045094 9.93381 12.1465
155 1 -1.12448 6.75902 13.904
156 1 -4.85728 8.02846 12.2127
274 2 -0.49164 11.0246 16.4632
182 2 0.0864035 8.25611 9.66383
165 2 -1.74249 7.70589 12.6288
149 4 0.0495706 5.90866 9.47764
258 4 -6.85683 9.57892 14.6992
177 2 -0.390435 7.43696 14.4169
178 2 -0.390441 5.24319 13.5243
179 2 -2.02348 6.54169 14.5217
180 2 -4.39046 7.42123 11.3833
181 2 -4.23915 8.05851 13.1719
157 1 0.739448 7.5782 9.08131
188 2 -1.05718 10.4143 13.5367
194 3 -3.17713 5.14857 12.4075
195 3 -6.31983 9.65162 10.2072
196 3 -5.26007 10.7238 12.3752
197 3 -0.884372 5.83346 10.8103
147 4 -7.10588 10.3755 9.11326
201 3 -3.53754 9.82576 10.2402
202 3 2.42836 6.11611 12.4539
203 3 -0.949082 9.79375 10.8994
172 2 1.88153 7.58476 14.8194
275 2 -0.0775796 9.1749 15.8569
204 3 0.971324 8.74679 12.5443
260 2 -5.56706 8.60798 13.9729
303 2 -4.2736 6.00995 16.9484
320 2 -2.52057 11.0169 17.633
30 4 2.87969 4.71276 17.4982
184 2 1.88662 7.56644 9.29768
28 4 7.26448 1.2714 6.37596
31 4 6.05589 3.48693 8.37151
35 4 9.60304 1.9732 4.17339
37 4 12.0236 1.48258 6.10051
40 4 10.8762 4.14649 2.51715
330 2 12.9481 1.64529 0.330403
105 2 11.9317 3.61907 0.551184
55 1 11.831 2.89616 1.50417
56 1 8.21874 5.06822 5.33108
65 2 9.33891 0.677821 3.0863
69 2 11.772 5.17605 3.4624
70 2 10.1209 5.21679 1.27461
313 2 10.528 2.38386 0.100894
89 2 6.45121 3.22104 3.90496
296 2 9.29601 0.654243 0.861546
32 4 4.40724 5.7345 6.50743
106 2 11.5869 1.77973 1.26187
107 2 12.8181 3.04458 2.21359
108 2 8.39162 3.91661 5.27527
118 3 7.8789 0.0869564 7.1631
123 3 6.76089 2.50548 7.41812
124 3 5.34854 4.86399 7.57071
128 3 8.35414 2.04153 5.20681
129 3 14.4244 0.217613 8.04314
131 3 13.4094 1.64392 5.24238
132 3 10.8259 1.55991 5.05271
133 3 12.0442 -0.313979 6.90748
137 3 9.82222 3.33558 3.38363
139 3 12.1102 2.72453 7.20357
140 3 10.1489 4.4235 7.54396
42 4 9.35845 5.66378 6.93365
264 2 5.17353 4.96693 2.7656
26 4 8.08403 -0.748674 8.50501
97 2 5.979 4.94479 4.50628
109 2 7.36189 5.32369 4.57643
41 4 11.0754 3.33686 8.24255
110 2 7.49101 5.31401 6.83156
88 2 7.26321 1.74184 3.21696
52 1 4.81246 4.9799 4.7552
98 2 4.3662 5.78427 4.06331
72 2 9.77616 5.82801 5.04894
49 1 6.31005 2.34798 3.25481
315 2 15.4386 -0.177329 4.31017
305 2 14.13 -0.0193417 0.416085
237 2 12.7869 -0.255411 3.18729
309 2 13.7798 -1.5336 14.0062
68 2 12.3507 -0.986802 12.6442
33 4 6.12359 3.15776 14.0223
36 4 9.84119 1.33767 10.278
38 4 9.17978 1.20214 16.8946
39 4 12.1005 -0.371323 11.0572
50 1 7.37638 4.05407 9.58793
53 1 7.44127 2.88677 12.5238
54 1 9.94026 0.0971738 15.5679
306 2 14.0853 -0.71342 16.5707
63 2 5.87513 3.67351 12.1951
66 2 8.93812 2.16 11.4741
67 2 9.42379 2.9375 17.2941
71 2 12.0104 4.33905 9.2218
281 2 8.81629 4.5801 16.7727
327 2 9.04424 -0.813881 13.9673
90 2 7.19721 5.22728 9.36903
92 2 7.26981 3.60789 10.6417
99 2 8.2967 3.65888 12.2074
100 2 7.42366 1.87046 11.9998
101 2 7.89574 2.36546 14.1126
102 2 11.0591 0.090947 15.9056
103 2 9.68766 0.956312 14.7046
104 2 9.36895 -0.947439 15.5753
130 3 8.99499 0.17758 9.59503
134 3 7.77663 0.711472 17.2057
135 3 13.4452 0.191985 10.5068
136 3 10.8259 0.491019 11.1342
138 3 10.4164 2.31199 9.18041
141 3 6.00146 4.43058 14.9194
249 4 11.133 4.4434 12.9219
250 1 11.4166 2.49194 13.0776
187 2 4.74539 4.56575 10.7552
252 2 11.7479 2.29984 14.119
253 2 12.028 1.95705 12.3641
254 2 10.3106 2.2804 12.8883
304 1 13.4034 -1.18436 17.378
256 2 9.59081 3.9384 10.947
76 2 13.3966 0.612783 13.7918
302 2 11.4486 4.31628 17.267
91 2 8.27266 3.55493 8.95991
310 2 12.0028 -1.2196 14.3855
251 1 9.81592 4.83273 11.5761
159 1 8.50946 -1.38248 12.9152
326 2 7.69907 -0.727349 12.4763
301 1 10.3822 4.50181 17.6011
222 2 4.73523 11.1224 8.62711
218 2 9.54887 8.30708 6.17425
57 1 9.83228 7.38564 7.83481
61 2 4.90232 7.36993 6.51727
299 2 1.65638 11.0921 7.2658
226 2 9.3674 8.62544 2.6168
298 1 0.836064 10.8055 7.96667
323 2 0.0170227 12.2917 2.23645
248 3 6.21621 11.3839 6.0838
205 4 8.53568 8.51393 4.73825
293 2 2.98109 7.86303 2.06181
209 4 3.50475 11.0052 4.14421
247 3 5.24065 8.85223 7.13528
211 4 5.81608 9.87896 5.64596
243 3 2.02619 10.3247 3.77722
216 1 4.05841 11.9665 2.63897
111 2 9.08647 7.06238 8.71827
219 2 8.37524 6.77659 4.39617
245 3 7.17262 9.15095 5.10133
223 2 3.48359 12.1988 5.44038
325 2 10.5298 7.05687 0.852369
208 4 5.17409 12.2086 7.3992
210 4 5.83737 8.75531 8.62675
297 2 1.88442 12.3879 2.27353
233 2 0.27452 12.2623 4.60322
295 1 0.96769 12.4196 1.64002
236 2 4.79452 11.2298 2.18267
246 3 4.59561 9.93725 4.59036
238 2 3.25523 12.2814 1.85745
292 2 2.95189 8.9961 0.523679
161 2 7.86886 11.6045 6.08525
272 2 1.09861 10.7244 0.813762
244 3 7.21199 9.62621 8.83958
43 4 5.44738 5.39866 16.0045
73 2 5.7672 7.05281 15.4897
255 2 8.9131 5.38595 11.9265
142 3 3.87279 5.41744 16.2817
74 2 6.29608 5.28159 17.4325
160 1 3.82589 8.41615 12.6742
173 2 1.25538 11.6891 12.103
185 2 4.49519 6.63116 10.5438
276 2 5.69539 8.72775 17.4355
282 2 9.33089 7.21404 15.8876
189 2 3.85417 9.49791 12.2529
190 2 4.31523 7.64268 11.9343
191 2 4.31914 8.33162 13.7914
217 1 4.44713 9.50006 9.74683
239 2 4.2503 8.41584 10.248
270 1 0.238773 10.3149 15.8194
241 2 5.09401 10.1268 10.4995
240 2 3.40845 9.93709 9.491