ITEM: TIMESTEP
0
ITEM: NUMBER OF ATOMS
331
ITEM: BOX BOUNDS xy xz yz pp pp pp
-8.3499999999999996e+00 1.5708700000000000e+01 -8.2042000000000002e+00
-2.0055999999999998e+00 1.3086800000000000e+01 -1.4580000000000001e-01
0.0000000000000000e+00 1.7700047999999999e+01 -2.0055999999999998e+00
ITEM: ATOMS id type x y z
1 4 -0.773538 1.90928 4.88464
2 4 0.295323 4.59873 3.25341
3 1 0.75928 1.34081 5.91163
174 2 -1.4027 5.24568 5.3203
5 1 2.1576 4.42332 3.16812
6 1 -0.433119 5.03673 1.32457
8 2 1.67352 2.15776 6.01077
9 2 0.983942 0.461303 5.26118
10 2 0.410724 0.981491 6.88193
312 2 5.62444 0.3706 3.03622
12 2 2.12281 3.24429 3.39639
13 2 2.97786 5.13035 3.86285
14 2 2.12621 4.63215 1.9481
182 2 -0.889762 4.86394 7.75374
16 2 -1.0106 4.38801 0.618569
17 2 0.354347 5.74793 0.829893
18 3 -0.271179 3.41335 3.9923
24 4 5.89474 1.82683 4.02986
45 1 4.04585 1.32461 3.51874
47 1 3.60294 0.46846 8.54537
263 4 4.30133 3.81746 1.16545
51 1 3.20386 3.53345 6.38089
78 2 3.85028 1.45172 2.41472
79 2 3.68042 2.33499 4.06319
80 2 3.59527 0.402434 3.98341
83 2 2.46486 0.500895 8.40053
82 2 4.27735 0.616934 7.60166
265 2 2.78349 3.17601 1.78119
154 1 -2.51689 5.35365 5.21538
15 2 -1.16644 5.75741 1.97298
93 2 3.87171 2.66873 6.08003
94 2 2.37575 3.69031 5.59532
95 2 2.84138 3.48199 7.48145
117 3 6.40331 1.50913 5.60782
321 2 5.16445 0.196138 0.960294
162 2 2.97567 -0.250929 6.81945
266 3 5.14527 2.81314 0.394271
267 3 3.90917 5.19779 0.625693
283 1 1.45104 1.31102 0.416012
175 2 -2.94027 4.66441 4.39887
311 2 1.01487 4.11407 0.397423
286 2 1.5991 1.88595 1.42929
284 2 2.33064 0.693367 0.00921474
32 4 4.05641 5.19137 6.59044
46 1 6.05483 0.0510738 0.137662
285 2 0.307519 0.88873 0.189939
176 2 -3.04681 5.40476 6.20596
11 2 -0.717601 1.2894 2.64179
264 2 4.81263 4.01848 2.78017
7 2 0.486122 6.02466 4.27638
19 4 1.13452 0.755653 17.0227
21 4 2.41641 -1.05608 12.5528
22 4 1.23105 1.4758 11.425
23 4 -0.58149 2.40686 13.8526
25 4 5.74476 -0.153398 16.982
27 4 4.21788 1.61297 9.95051
29 4 3.73831 0.553046 14.9112
149 4 -0.157005 5.07601 10.0697
34 4 0.237265 4.33981 16.2448
44 1 -1.50259 0.839198 14.5599
48 1 5.32213 0.547058 11.056
58 2 -0.476739 0.706455 16.1835
60 2 -2.0299 3.07376 13.1429
81 2 3.9834 -0.525722 9.31904
62 2 -0.946852 4.30621 17.3872
170 2 -0.263432 3.37598 10.1
76 2 -0.544618 0.139505 14.2969
84 2 5.8074 -0.323617 10.4213
85 2 4.64885 0.194774 11.8972
171 2 2.61526 3.54158 12.0287
112 3 -0.0043266 1.70076 10.0694
113 3 1.46576 -0.0843722 11.5752
114 3 0.513052 2.12088 12.7283
116 3 2.60721 2.26579 10.9706
119 3 3.1884 -0.0718794 13.5248
120 3 4.78441 -0.432597 15.5732
121 3 2.41693 0.70143 16.0584
122 3 5.28006 2.67395 9.21725
125 3 4.58904 1.99997 14.4501
126 3 -0.147338 3.33399 15.0615
127 3 1.63448 4.5276 16.9391
20 4 -1.28548 0.849925 9.52931
86 2 6.02935 1.44402 11.4033
161 2 -7.78246 11.7932 6.28816
143 4 -6.11488 11.4527 6.37955
144 4 -2.50096 7.11538 4.48864
146 4 -2.61186 9.29253 6.67994
219 2 -5.7504 10.0033 3.24464
57 1 -4.94563 7.25552 8.58071
184 2 -0.972555 6.73287 8.53942
230 2 0.120343 8.66671 5.96469
163 2 -3.30038 7.5491 3.06295
164 2 -0.802218 7.42746 3.89448
166 2 -4.09452 9.72897 7.29828
167 2 -2.12374 10.6996 5.79915
169 2 -5.49242 11.2651 4.8476
328 2 -4.95065 8.11431 7.8304
234 2 -0.468117 11.2763 6.44682
183 2 0.679258 6.07313 7.90269
218 2 -7.37644 12.0962 1.88699
192 3 -2.84933 8.07723 5.69812
193 3 -5.74138 10.2455 7.31487
199 3 -1.50842 9.04893 7.84784
206 4 -2.23812 10.0545 2.24259
207 4 0.278789 9.79908 4.21563
213 1 -3.78272 10.1076 3.33647
214 1 0.476021 7.8078 5.19835
215 1 -0.314692 11.2639 5.29936
220 2 -1.98557 11.4694 1.19462
221 2 -2.59266 8.91841 0.922877
227 2 -3.61921 9.89698 4.43509
228 2 -4.32819 9.28142 2.62298
229 2 -4.03557 11.2835 3.01459
231 2 1.49756 8.03152 4.82644
232 2 0.581534 6.90701 5.86466
235 2 -1.19938 11.6779 4.71305
242 3 -0.95262 9.62627 3.22103
291 1 2.89673 7.4327 1.7202
322 2 -1.06187 12.9494 0.556084
157 1 -0.336143 5.78749 8.33578
294 2 1.734 7.43033 1.65558
303 2 -4.30842 9.39854 0.745282
299 2 0.70721 10.3353 8.20213
293 2 3.16219 6.79653 2.63062
30 4 3.22472 6.625 0.00434632
326 2 -1.52528 11.5532 12.0898
64 2 -0.322083 5.85237 15.6768
115 3 -6.75938 10.9125 13.3481
145 4 -2.16281 6.52748 12.4287
148 4 -4.65242 9.79532 10.774
151 4 -1.74322 9.82859 9.44346
274 2 -0.853817 8.24204 17.3108
301 1 -4.26782 6.82763 17.4534
155 1 -1.08667 6.60516 14.0208
156 1 -4.66678 8.51523 12.2614
275 2 -0.344607 7.69309 15.5921
320 2 -2.54122 10.5067 16.8707
165 2 -2.81193 8.01857 11.9281
319 2 -5.67191 8.70474 12.6808
188 2 -1.4975 10.1587 13.4
177 2 -1.20455 7.86142 14.0464
178 2 -0.0761015 6.12186 13.7682
179 2 -1.87862 5.90381 14.6567
180 2 -4.53552 7.44305 12.0298
181 2 -3.92997 8.87882 13.107
153 4 0.13747 9.65078 11.861
194 3 -3.36587 5.6024 12.8935
198 3 1.54299 5.50531 10.5207
195 3 -5.9995 9.70496 9.9824
196 3 -4.63521 11.2457 11.545
197 3 -1.17115 5.82507 11.1536
200 3 -1.66094 11.4799 9.29713
201 3 -3.31746 9.50276 10.0041
202 3 2.11802 6.13022 13.0632
203 3 -0.482901 9.34363 10.4371
302 2 -3.89779 7.4968 16.6199
150 4 2.51996 5.21445 11.7556
159 1 -0.8421 10.9858 12.7885
272 2 1.27041 7.74628 17.3676
262 2 -5.82879 9.73873 16.1589
270 1 -0.0208919 8.34287 16.5109
204 3 0.964604 8.62641 12.7513
172 2 1.43143 7.81033 15.2395
259 1 -6.91251 9.52555 15.9463
273 2 -0.0951921 9.93372 15.8612
329 2 -3.8849 7.00121 8.94758
325 2 -2.97154 5.60602 17.5442
28 4 7.71306 1.81548 6.61391
31 4 6.42757 3.76092 8.49421
35 4 9.94109 1.68166 4.3177
37 4 12.1223 1.26747 6.38849
40 4 10.4974 4.40098 2.7877
296 2 9.87476 0.495826 1.00332
304 1 13.1193 0.741464 0.0994147
55 1 11.144 3.93163 0.946847
315 2 15.0997 -0.174536 4.0241
65 2 9.3751 0.802134 2.98355
69 2 10.2052 5.79731 3.70013
70 2 9.53064 4.36479 1.00265
49 1 6.62591 3.44589 3.2541
89 2 6.58114 4.18606 4.10685
87 2 6.44119 3.90118 2.13977
88 2 7.75653 2.97689 3.25098
106 2 11.2581 2.79322 0.948778
107 2 12.2409 4.49199 2.26779
108 2 9.81519 4.74787 5.29931
118 3 7.91957 0.448871 7.65245
123 3 7.51789 3.16432 7.50416
124 3 5.30306 5.24336 7.62693
128 3 8.89362 1.85071 5.42909
129 3 14.9112 -0.475449 8.7888
131 3 13.4359 2.04344 6.03892
132 3 11.273 0.92906 4.76635
133 3 12.2916 -0.33609 7.14228
137 3 10.1482 3.09095 3.68921
139 3 11.3251 2.15318 7.4644
140 3 10.3689 4.44111 8.29571
316 2 13.3185 0.540562 3.43464
96 2 4.71229 5.08792 4.51156
330 2 12.4109 0.957934 1.0005
4 1 14.4779 0.686362 3.48788
281 2 10.8173 5.79004 0.377064
41 4 10.9642 2.93215 8.74114
59 2 13.8116 1.92271 8.43243
56 1 9.81715 5.84075 5.67615
323 2 8.11613 0.152036 1.76141
305 2 14.0726 0.193558 0.449138
187 2 4.62392 4.34217 10.6404
251 1 9.42352 4.95549 12.8232
33 4 5.42287 3.26183 13.9951
36 4 9.52274 1.1944 10.9959
38 4 8.56382 0.829125 16.074
39 4 12.1224 -0.239995 11.2896
50 1 7.37519 4.48949 9.88086
53 1 7.39766 2.6644 13.4644
54 1 9.22067 -0.454145 14.8621
327 2 8.0224 -1.44929 13.5243
63 2 5.01009 3.69454 12.3809
66 2 8.80774 1.96007 12.3288
67 2 8.39348 2.24064 15.1608
68 2 12.7258 -1.11373 12.7218
310 2 12.0641 -0.384806 14.7104
77 2 13.388 0.841571 13.7544
91 2 8.48335 4.12656 9.74894
92 2 6.99495 4.27164 10.9259
99 2 6.99424 2.97485 12.3467
100 2 6.91313 1.59128 14.0942
101 2 7.72084 3.6013 14.1433
102 2 10.3319 -0.812427 14.7814
103 2 8.95524 0.16166 13.9031
104 2 8.44918 -1.32242 15.1196
130 3 8.50871 0.185219 10.2971
134 3 7.32814 0.203024 16.7366
135 3 13.229 0.582603 10.6098
136 3 10.7665 0.414157 11.7062
138 3 10.1292 2.27323 9.89009
141 3 5.66914 4.61489 14.9784
249 4 11.1442 4.58226 13.5589
250 1 11.7341 2.71275 13.258
331 3 11.0923 4.77593 15.239
71 2 12.4265 3.27467 9.45438
253 2 12.1834 2.47351 12.2673
254 2 10.6387 2.30646 13.2649
313 2 9.81288 1.20687 17.1711
256 2 9.14869 3.94064 12.5187
306 2 13.1686 -0.409342 17.1343
252 2 12.3065 2.33818 14.1082
307 1 12.2685 -1.48054 14.5893
26 4 8.05741 -0.544594 8.89179
75 2 13.7953 0.663743 15.6442
158 1 4.35731 5.22267 11.3435
105 2 11.4744 2.35132 17.6655
109 2 9.01075 6.48061 5.25965
42 4 9.83164 5.83809 7.78093
147 4 8.74448 9.94986 8.73686
61 2 3.14884 6.6954 6.45728
97 2 5.04444 7.04339 4.90002
297 2 1.2182 11.8299 1.95112
224 2 6.20459 6.55317 7.70768
110 2 8.29995 5.86565 6.70723
72 2 10.9336 6.41642 5.85712
205 4 8.33039 10.3976 2.73639
208 4 5.41951 11.9626 7.42202
209 4 3.41533 10.7359 3.64666
210 4 6.42705 8.28366 7.61888
211 4 6.08271 10.1699 5.17421
212 1 7.60025 10.7075 1.01794
216 1 3.81194 10.5599 1.79044
324 2 1.73363 11.9144 7.55897
295 1 0.820255 12.793 1.28281
222 2 4.8047 10.4938 8.08292
223 2 3.36957 12.4355 4.04285
317 2 6.52497 10.8559 1.02876
225 2 7.94358 9.04226 1.42706
244 3 7.64446 8.79411 8.48469
298 1 1.22516 11.3134 8.47823
233 2 0.666856 11.8616 4.97855
292 2 3.26221 8.52906 1.85102
236 2 4.82259 10.0723 1.61842
237 2 3.84362 11.7913 1.65049
238 2 2.93107 10.0417 1.2129
243 3 1.89324 10.1626 3.77613
245 3 7.1897 10.2719 3.96598
246 3 4.607 10.1272 4.48407
247 3 6.29428 8.9043 6.16393
248 3 6.30849 11.7629 6.10193
240 2 3.83351 8.92073 8.00108
52 1 4.17463 6.33485 4.91164
217 1 4.79488 8.58115 8.60532
98 2 3.46449 6.65904 4.00625
226 2 8.12799 10.9544 0.0202865
43 4 5.56141 5.59467 16.2508
73 2 6.0614 7.22002 15.8614
309 2 5.16809 11.4322 14.4747
142 3 4.15355 5.67601 16.9378
282 2 9.72965 6.2278 17.0774
160 1 3.71672 8.32756 13.4676
173 2 0.913174 11.172 11.8708
185 2 5.02358 5.32087 12.2496
152 4 1.98117 7.69533 13.5989
268 4 1.17998 9.71803 17.3538
189 2 3.44323 9.32618 12.8397
190 2 4.21577 7.46917 12.8711
191 2 4.2967 8.54929 14.5706
289 2 6.95963 8.35751 12.3656
308 2 3.37646 11.0507 13.8878
260 2 8.43691 8.07125 13.9292
241 2 5.02754 9.29331 9.54808
186 2 4.33701 6.28203 10.8347
258 4 8.09793 9.90833 14.2793
74 2 6.62135 5.1905 17.4485
314 2 3.636 11.4108 10.3
269 4 4.17242 10.6351 16.434
271 1 5.32647 8.97944 16.2964
111 2 9.93448 7.28558 9.51655
290 2 6.0923 9.83022 13.5933
277 2 5.8205 8.78902 15.2212
278 2 4.49458 8.26316 16.5208
279 3 2.62094 10.1741 16.8861
280 4 11.0405 5.0532 16.8746
276 2 6.09059 8.92462 17.2434
255 2 8.73905 5.39547 13.6472
287 1 6.77525 8.51553 13.4461
288 2 6.18831 7.64664 13.8341
318 2 8.46139 8.47273 16.0945
257 2 9.53824 5.75193 11.9737
90 2 7.16987 5.6333 9.5704
300 2 1.9361 11.2499 9.3919
239 2 4.76424 7.46268 8.99102
261 2 7.90205 10.3429 16.4623
168 2 7.85228 11.3749 9.06591
ITEM: TIMESTEP
100
ITEM: NUMBER OF ATOMS
331
ITEM: BOX BOUNDS xy xz yz pp pp pp
-8.3499999999999996e+00 1.5708700000000000e+01 -8.2042000000000002e+00
-2.0055999999999998e+00 1.3086800000000000e+01 -1.4580000000000001e-01
0.0000000000000000e+00 1.7700047999999999e+01 -2.0055999999999998e+00
ITEM: ATOMS id type x y z
1 4 -0.748905 1.91814 4.85263
2 4 0.166336 4.55512 3.26266
3 1 0.787221 1.34166 5.83547
174 2 -1.52333 4.8626 5.45217
5 1 2.04436 4.37846 3.29352
6 1 -0.267042 4.89217 1.34572
8 2 1.60611 2.11218 6.02801
9 2 1.09105 0.557187 5.01503
10 2 0.404801 0.904443 6.84805
312 2 5.90468 0.363999 3.05164
12 2 2.17163 3.24977 3.49345
13 2 2.80037 5.05598 3.89192
14 2 2.02782 4.74078 2.02105
182 2 -0.810993 5.13639 7.87301
16 2 -0.672885 3.97614 0.718946
17 2 0.530842 5.50951 0.825204
18 3 -0.372387 3.2688 4.00779
24 4 5.89547 1.87951 4.03025
45 1 4.2257 1.24003 3.38826
47 1 3.56048 0.762438 8.61104
263 4 4.39061 3.96149 1.20671
51 1 3.17286 3.50702 6.36674
78 2 4.07171 1.01276 2.30826
79 2 3.74677 2.41638 3.73334
80 2 3.69647 0.464878 4.00929
83 2 2.43096 0.897195 8.71037
82 2 3.99927 1.175 7.67978
265 2 2.95792 3.28907 1.85625
154 1 -2.5662 5.3538 5.33607
15 2 -1.18433 5.58006 1.78883
93 2 4.11752 2.79431 6.56932
94 2 2.63522 3.49736 5.32493
95 2 2.43788 3.84335 7.3489
117 3 6.23701 1.60972 5.55143
321 2 5.23787 0.165375 1.09189
162 2 2.67784 -0.187329 7.0919
266 3 5.14749 2.936 0.487581
267 3 3.87831 5.3187 0.610859
283 1 1.4735 1.1383 0.36623
175 2 -3.28577 4.90965 4.50182
311 2 1.29315 3.95308 0.50114
286 2 1.52331 1.48958 1.49075
59 2 -1.89357 1.99588 8.43766
264 2 4.98394 4.08099 2.86115
176 2 -3.12355 5.46685 6.29818
322 2 7.202 -0.0197247 0.546382
46 1 5.9886 0.0347005 0.2334
32 4 4.13398 5.08454 6.60012
284 2 2.39277 0.577883 0.0221031
19 4 1.23821 0.649127 17.0524
21 4 2.42097 -0.969765 12.5072
22 4 1.26048 1.45816 11.5182
23 4 -0.666383 2.49681 13.9211
25 4 5.7035 -0.317863 17.0138
27 4 4.37069 1.65311 10.1413
29 4 3.79194 0.622187 14.9847
149 4 -0.109514 5.04492 10.1246
34 4 -0.0350848 4.46544 16.3004
44 1 -1.4052 0.885465 14.6799
48 1 5.50503 0.42363 11.0052
58 2 -0.351146 0.689638 16.3415
60 2 -2.12437 3.03604 13.2326
81 2 4.05012 -0.29621 8.98607
62 2 -1.08881 4.10791 17.6221
170 2 -0.159193 3.31686 10.1073
76 2 -0.489578 0.206772 14.6269
84 2 5.89215 -0.406629 10.2138
85 2 4.92869 -0.00944147 11.8974
171 2 2.80892 3.53805 12.1192
112 3 -0.00134146 1.7078 10.1173
113 3 1.42757 -0.126857 11.47
114 3 0.420521 2.07311 12.8105
116 3 2.76906 2.17475 11.2378
119 3 3.29659 -0.0414005 13.6708
120 3 4.68837 -0.499655 15.7783
121 3 2.40322 0.782747 15.9873
122 3 5.35593 2.73214 9.47576
125 3 4.70341 1.99737 14.481
126 3 -0.359858 3.49605 15.1783
127 3 1.3577 4.46683 16.9243
198 3 1.3727 5.29095 10.6111
326 2 6.7024 -1.17384 12.2891
150 4 2.39633 5.20356 11.8049
285 2 0.276039 -1.34614 17.6394
161 2 -7.64256 11.5952 5.79068
143 4 -6.03184 11.4432 6.30042
144 4 -2.39825 7.0087 4.47922
146 4 -2.60142 9.27564 6.57867
219 2 -5.73507 9.98558 2.98154
57 1 -5.01924 7.18696 8.54668
184 2 -0.779993 6.81732 8.67423
230 2 0.0565463 8.67157 5.83343
163 2 -3.21994 7.04228 2.97958
164 2 -0.789351 7.38543 3.7817
166 2 -4.0857 9.84016 6.91539
167 2 -1.87566 10.5823 5.74596
169 2 -5.09019 11.5552 4.83872
328 2 -4.98291 8.11434 7.84583
234 2 -0.159017 11.2023 6.51356
183 2 0.825865 6.09308 7.99538
218 2 -7.39256 11.9038 1.92096
192 3 -2.7438 8.08756 5.57328
193 3 -5.80228 10.1585 7.17381
199 3 -1.81801 9.01692 7.87837
206 4 -2.3549 10.1105 2.25157
207 4 0.323509 9.90481 4.25074
213 1 -3.83237 9.90634 3.30632
214 1 0.457332 7.80848 5.10483
215 1 -0.159101 11.3801 5.3962
220 2 -2.416 11.6821 1.5358
221 2 -2.42134 9.2876 0.722611
227 2 -3.94751 9.73471 4.42796
228 2 -4.34699 9.05064 2.62835
229 2 -4.29885 11.0106 2.93938
231 2 1.4886 7.92773 4.69375
232 2 0.407225 6.8838 5.70209
235 2 -1.21755 11.6417 5.00365
242 3 -1.00756 9.86039 3.12798
291 1 2.86482 7.73444 1.66443
325 2 -2.94861 7.55008 0.0992127
157 1 -0.18838 5.92068 8.45648
294 2 1.72219 7.85686 1.54443
303 2 -4.40557 9.15892 0.774437
30 4 3.22003 6.64323 0.132233
98 2 3.3909 6.54635 4.07548
293 2 3.1444 7.00592 2.55812
7 2 0.240309 6.06775 4.22176
152 4 1.87028 7.70777 13.6864
64 2 -0.474765 6.06498 15.8408
115 3 -6.92782 10.9715 13.3652
145 4 -2.19234 6.41635 12.3712
148 4 -4.69821 9.82622 10.8018
151 4 -1.82999 9.84956 9.37977
274 2 -0.858944 8.68538 17.1825
301 1 -4.26597 6.69235 17.5753
155 1 -1.14254 6.62154 14.0713
156 1 -4.73949 8.37697 12.1031
275 2 -0.413369 7.89173 15.6323
320 2 -2.74415 10.4893 17.0822
165 2 -2.83612 7.96113 11.7648
319 2 -5.83963 8.46099 12.3434
188 2 -1.55889 10.198 13.2674
177 2 -1.20166 7.79624 13.9001
178 2 -0.185235 5.99163 13.8683
179 2 -1.93243 6.17047 14.7746
180 2 -4.55217 7.32882 11.752
181 2 -4.09272 8.61689 12.9256
153 4 0.0749978 9.77966 11.7539
194 3 -3.33892 5.56479 12.9191
318 2 -6.55833 8.68979 16.4542
195 3 -6.00448 9.81212 9.92015
196 3 -4.66674 11.3649 11.6375
197 3 -1.23492 5.67659 11.2107
200 3 -1.6916 11.4975 9.13189
201 3 -3.31079 9.49074 10.1364
202 3 2.07197 6.17499 13.1394
203 3 -0.593013 9.27118 10.385
302 2 -3.82976 7.43964 16.8423
329 2 -4.06021 6.97733 9.09205
159 1 -0.841798 11.1166 12.7349
272 2 1.29881 8.07264 17.6685
262 2 -6.00388 10.4718 16.1831
270 1 -0.0364314 8.67262 16.4311
204 3 1.00279 8.83707 12.7128
172 2 1.33935 7.71222 15.4188
259 1 -6.85055 9.746 16.0819
273 2 -0.0782112 9.95441 15.9368
28 4 7.61726 1.68721 6.57695
31 4 6.43948 3.68513 8.55643
35 4 9.87288 1.51246 4.36932
37 4 12.0935 1.26842 6.43751
40 4 10.4618 4.24555 2.64193
296 2 10.0889 0.289262 1.58403
11 2 14.5099 1.1235 2.52455
55 1 11.1837 3.92751 0.823888
315 2 15.342 -0.315214 3.42818
65 2 9.11235 0.357214 3.2704
69 2 10.2764 5.6906 3.69495
70 2 9.4315 4.38604 1.10173
49 1 6.78951 3.43493 3.14109
89 2 7.06997 4.16973 3.88049
87 2 6.48947 3.96835 2.16896
88 2 7.73622 2.68005 2.93992
106 2 11.3931 2.86385 0.843993
107 2 12.2173 4.5274 2.04822
108 2 10.1356 4.92193 5.26677
118 3 7.96441 0.394492 7.54189
123 3 7.37757 3.0604 7.42424
124 3 5.40714 5.1244 7.5645
128 3 8.84379 1.7161 5.56976
129 3 14.7607 -0.575655 8.66538
131 3 13.7639 1.90382 5.85334
132 3 11.2401 0.923526 4.77086
133 3 12.5514 -0.0921232 7.08839
137 3 10.1594 2.95172 3.45218
139 3 11.3151 2.07371 7.44696
140 3 10.4543 4.37504 8.22325
316 2 13.6259 0.28347 3.95133
96 2 4.64404 5.16265 4.41992
330 2 12.8072 0.8113 0.912694
4 1 14.5916 0.535648 3.46759
110 2 8.38389 5.73196 6.77862
41 4 10.9852 2.95397 8.67911
281 2 10.5152 5.66494 0.145125
56 1 9.68282 5.89128 5.54007
323 2 8.18552 0.60342 1.48041
187 2 4.53956 4.55605 10.7682
327 2 8.10291 -1.51436 13.5313
33 4 5.50291 3.30387 14.0205
36 4 9.5051 1.29938 10.9622
38 4 8.71142 0.588733 16.0258
39 4 12.1233 -0.207656 11.2565
50 1 7.51935 4.49172 9.83464
53 1 7.22366 2.70582 13.4181
54 1 9.41773 -0.672015 14.8644
20 4 14.3714 0.898562 9.52379
63 2 4.83963 4.22141 12.6099
66 2 8.72738 2.11567 12.2658
67 2 8.36616 1.89649 14.8588
68 2 12.6995 -0.850835 12.7046
310 2 12.1531 -0.391769 14.7485
77 2 13.5786 0.71589 13.7996
91 2 8.52437 4.04643 9.61382
92 2 7.17656 4.38803 10.8664
99 2 7.06163 3.23754 12.3118
100 2 7.42824 1.57885 13.4869
101 2 7.88761 3.34043 14.1691
102 2 10.5713 -1.00194 14.7496
103 2 8.95104 -0.12061 13.8563
104 2 8.68577 -1.57942 15.2547
130 3 8.43071 0.221236 10.3785
134 3 7.28522 0.181794 16.556
135 3 13.1763 0.598219 10.4596
136 3 10.7994 0.477944 11.5363
138 3 10.0457 2.37602 9.86273
141 3 5.58529 4.43549 15.0723
249 4 11.2153 4.79043 13.6137
250 1 11.6131 2.84717 13.2023
86 2 6.30267 1.2623 11.3099
71 2 12.5246 3.20543 9.34059
253 2 12.198 2.78302 12.2134
254 2 10.5099 2.57923 13.2241
313 2 9.81061 1.00514 17.3201
256 2 9.4764 4.39878 12.1889
306 2 13.4354 -0.413806 17.1078
252 2 12.2212 2.366 14.1302
307 1 12.5085 -1.48425 14.6148
26 4 8.15495 -0.588711 9.00466
75 2 13.8616 0.941176 15.7289
105 2 11.3974 2.18587 17.4816
304 1 13.2465 -1.34031 17.6846
109 2 8.9158 6.3017 4.82477
42 4 9.88246 5.71837 7.77341
147 4 8.75316 9.93417 8.62928
295 1 0.815469 12.9102 1.3822
97 2 4.98171 7.0129 4.84763
297 2 0.625106 11.8288 1.96231
224 2 6.00756 6.64953 7.50717
305 2 6.1582 13.074 0.0981952
72 2 10.4963 6.72232 5.75633
205 4 8.26049 10.2253 2.66526
208 4 5.47301 11.9629 7.29211
209 4 3.44321 10.871 3.56087
210 4 6.41038 8.34897 7.60056
211 4 6.09417 10.1419 5.06537
212 1 7.508 10.4668 0.977776
216 1 4.05318 10.7575 1.7585
324 2 1.90919 11.8049 8.00369
299 2 0.880047 10.2915 8.51093
222 2 4.6208 10.5585 7.86946
223 2 3.29392 12.5457 3.96592
317 2 6.3342 10.5536 1.01464
225 2 7.91185 8.95139 1.10167
244 3 7.78453 8.64559 8.35742
61 2 3.24936 6.643 6.37567
233 2 0.619301 12.1381 5.0812
292 2 3.3745 8.80338 1.76966
236 2 4.9559 10.0268 1.91325
237 2 4.4121 11.8472 1.67964
238 2 3.43823 10.4793 0.921872
243 3 1.93606 10.1732 3.68826
245 3 7.21335 10.1608 3.91958
246 3 4.57691 10.3056 4.46383
247 3 6.1533 8.97758 6.20302
248 3 6.41239 11.6953 6.00047
240 2 3.90627 9.19538 8.32665
52 1 4.17927 6.20904 4.8266
217 1 4.85964 8.81251 8.68113
226 2 8.00978 10.9616 0.00285623
43 4 5.48284 5.4057 16.2244
73 2 5.8974 7.00444 15.6492
331 3 11.0004 4.80131 15.4129
142 3 4.19824 5.49482 17.0662
282 2 9.6816 6.35915 17.2647
160 1 3.51216 8.44031 13.5986
173 2 0.739825 11.383 11.6392
185 2 4.90605 5.82522 12.1021
239 2 4.73631 7.67686 9.03531
268 4 1.26972 9.85351 17.5016
189 2 3.27439 9.46524 13.1737
190 2 3.92634 7.50348 12.7759
191 2 4.1101 8.41104 14.6247
289 2 7.09979 8.84435 12.4106
308 2 3.49629 10.9397 14.1145
260 2 8.03561 7.79302 13.8177
241 2 5.40848 9.537 9.46684
186 2 3.9092 6.30653 10.4928
258 4 8.09405 9.93647 14.357
74 2 6.8354 5.14254 17.1454
314 2 3.62184 11.4049 10.4899
269 4 4.30635 10.6742 16.3955
271 1 5.31675 8.78166 16.2119
111 2 9.61338 7.2744 9.35442
290 2 6.27701 10.0648 14.3706
277 2 5.8296 8.55821 15.1443
278 2 4.46657 8.04848 16.4025
279 3 2.79012 10.3076 16.9407
280 4 10.8765 5.01455 16.933
276 2 6.07038 8.73643 17.1806
255 2 8.67786 5.33033 13.6793
287 1 6.95958 8.51551 13.4606
288 2 6.07568 7.81805 13.483
261 2 7.88051 10.2714 16.59
257 2 9.65407 6.26651 12.3013
90 2 7.35182 5.6216 9.32296
300 2 1.95756 11.1349 9.8335
158 1 4.1958 5.50263 11.3146
251 1 9.50448 5.30964 12.9062
298 1 1.34266 11.2425 8.86558
309 2 5.31263 11.4806 14.111
168 2 7.73332 11.2987 8.86955
ITEM: TIMESTEP
200
ITEM: NUMBER OF ATOMS
331
ITEM: BOX BOUNDS xy xz yz pp pp pp
-8.3499999999999996e+00 1.5708700000000000e+01 -8.2042000000000002e+00
-2.0055999999999998e+00 1.3086800000000000e+01 -1.4580000000000001e-01
0.0000000000000000e+00 1.7700047999999999e+01 -2.0055999999999998e+00
ITEM: ATOMS id type x y z
1 4 -0.893446 1.88955 4.75899
2 4 0.146561 4.66897 3.24587
3 1 0.761847 1.25897 5.84134
174 2 -1.35187 5.08027 5.67417
5 1 2.10135 4.52934 3.33004
6 1 -0.451191 4.78607 1.37283
8 2 1.47339 2.18079 5.92983
9 2 1.17377 0.396098 5.36486
10 2 0.193438 1.07199 6.79498
312 2 6.01204 0.372761 2.88734
12 2 2.01853 3.35029 3.64493
13 2 2.89328 5.15563 3.94393
14 2 2.152 4.78634 2.15307
182 2 -0.580339 4.83639 7.98953
16 2 -0.890906 3.91134 0.87174
17 2 0.351352 5.42987 0.736258
18 3 -0.316393 3.32724 3.94546
24 4 5.94053 1.79029 4.07286
45 1 4.33707 1.10094 3.31899
47 1 3.47294 0.981182 8.75483
263 4 4.41024 3.93368 1.38463
51 1 3.22595 3.40225 6.44186
78 2 3.99763 1.08528 2.21962
79 2 3.97259 2.43661 4.02805
80 2 3.9672 0.244842 3.94291
285 2 0.70612 0.764239 0.269356
82 2 3.81728 1.51257 7.72765
265 2 3.27442 3.1453 2.35864
154 1 -2.58389 5.25434 5.56743
15 2 -1.33288 5.60472 1.89148
93 2 3.72473 2.40121 6.69203
94 2 2.80867 3.47051 5.35534
95 2 2.44093 3.80897 7.36971
117 3 6.2657 1.48205 5.54333
321 2 5.31066 0.341876 1.15079
162 2 3.09445 -0.441441 7.4518
266 3 5.19358 2.87322 0.522227
267 3 3.82936 5.18759 0.793924
283 1 1.72678 1.28065 0.365819
175 2 -2.96011 4.35368 4.98166
311 2 1.18427 3.95795 0.561832
286 2 1.99762 1.39461 1.42071
46 1 6.10763 0.0920305 0.24933
7 2 0.480223 5.96126 4.41232
176 2 -3.00571 5.3922 6.5498
32 4 4.11446 5.0584 6.62757
19 4 1.32152 0.760373 17.0724
21 4 2.39185 -0.965902 12.6639
22 4 1.21468 1.55425 11.5633
23 4 -0.601673 2.62308 13.8461
25 4 5.73061 -0.269055 17.0862
27 4 4.2942 1.67836 10.2944
29 4 3.73494 0.585403 14.9734
149 4 -0.126824 5.0269 10.2288
34 4 -0.105313 4.45314 16.3228
44 1 -1.42828 1.05557 14.6292
48 1 5.37812 0.374618 11.157
58 2 -0.0958185 0.739133 16.1002
60 2 -2.14925 2.97724 13.0292
75 2 -1.8043 1.22666 15.6949
62 2 -1.22614 3.92097 17.541
170 2 -0.354754 3.2398 10.0746
76 2 -0.571703 0.267781 14.4487
84 2 5.75122 -0.466195 10.4455
85 2 4.74899 -0.00817738 11.9984
171 2 2.77668 3.55793 12.3531
112 3 -0.017333 1.72487 10.1243
113 3 1.39044 -0.0851918 11.7124
114 3 0.503762 2.20143 12.8037
116 3 2.68232 2.26842 11.3336
119 3 3.14925 0.00122681 13.6716
120 3 4.89342 -0.477266 15.6796
121 3 2.54554 0.9543 16.0999
122 3 5.18932 2.89795 9.73509
125 3 4.60386 1.85851 14.4323
126 3 -0.293188 3.50357 15.0955
20 4 -1.21345 0.854058 9.52497
198 3 1.41238 5.19332 10.6547
326 2 6.80849 -0.931169 12.0245
150 4 2.39598 5.17496 11.927
83 2 2.34389 1.00539 9.0488
284 2 2.4858 -1.167 17.3514
81 2 3.95232 -0.130702 8.97199
86 2 6.2586 0.90895 11.5198
127 3 1.30384 4.56744 16.9407
161 2 -7.63783 11.9572 6.33447
143 4 -5.97493 11.4981 6.49438
144 4 -2.2922 6.87179 4.68209
146 4 -2.53861 9.24301 6.59482
219 2 -5.88021 9.7529 3.19617
57 1 -5.1676 7.18837 8.60508
184 2 -1.29622 6.61564 8.64874
230 2 0.307929 8.83061 5.5296
163 2 -3.49382 6.74511 3.55829
164 2 -0.704463 7.18214 3.81306
166 2 -4.23958 9.63523 6.77606
167 2 -1.91783 10.6932 5.91534
169 2 -5.50532 11.6837 4.94453
328 2 -4.75171 8.15944 8.03017
234 2 -0.269836 10.4724 6.53068
183 2 0.516232 6.48951 8.30645
218 2 -7.18774 11.7328 1.92976
192 3 -2.52138 8.04683 5.634
193 3 -5.75817 10.0145 6.77969
199 3 -1.91336 8.91054 7.93015
206 4 -2.3784 10.0926 2.15865
207 4 0.329587 10.021 4.04744
213 1 -3.90563 10.0831 3.17791
214 1 0.650977 7.88059 4.79325
215 1 0.0118399 11.0749 5.63277
220 2 -2.17056 11.3654 0.969637
221 2 -2.44257 8.85294 0.855285
227 2 -3.79473 10.2769 4.2835
228 2 -4.24983 8.96366 2.90847
229 2 -4.45859 10.9168 2.56121
231 2 1.5986 8.12312 4.2253
232 2 0.749387 7.02628 5.49767
235 2 -0.750508 11.8462 5.27496
242 3 -1.13622 10.0507 3.04256
291 1 2.70197 7.72951 1.58402
325 2 -3.15934 7.30176 0.196027
157 1 -0.394225 5.93793 8.62228
294 2 1.54262 7.90118 1.38589
303 2 -4.79669 9.23061 0.905332
30 4 3.10917 6.82418 0.0876643
293 2 2.89511 7.02054 2.42719
322 2 -0.957542 12.9919 0.815993
301 1 -4.10582 8.76397 0.0234471
168 2 -7.82863 11.4065 8.60556
152 4 1.80505 7.898 13.579
64 2 -0.667407 6.02191 15.8878
115 3 -6.54001 11.0187 13.5367
145 4 -2.13518 6.44114 12.4971
148 4 -4.74232 9.86509 10.7763
151 4 -1.94106 9.90469 9.41381
274 2 -0.994269 8.985 17.1305
261 2 -7.82893 10.4022 16.6211
155 1 -1.17582 6.81576 14.115
156 1 -4.80265 8.24099 11.8843
275 2 -0.54263 8.12909 15.5605
320 2 -2.56885 10.3572 17.2711
165 2 -2.87144 7.87967 11.8854
319 2 -5.97259 8.25314 12.0577
188 2 -1.61 10.5247 13.1725
177 2 -0.990152 7.95666 13.7556
178 2 -0.273277 6.11428 14.1553
179 2 -1.96749 6.65136 14.9182
180 2 -4.45843 7.321 11.2344
181 2 -4.2563 8.30235 12.9468
153 4 0.00117255 9.7248 11.8229
194 3 -3.27864 5.5457 13.0517
273 2 0.148021 10.1826 15.7065
195 3 -5.96322 9.78882 9.721
196 3 -4.65321 11.1351 11.7886
197 3 -1.19267 5.76523 11.3691
200 3 -1.654 11.4811 9.19666
201 3 -3.37887 9.70729 10.0899
202 3 2.00917 6.10903 13.1981
203 3 -0.704736 9.36363 10.4289
302 2 -3.93958 7.4061 16.8501
329 2 -4.38829 6.72538 9.27444
159 1 -0.803111 11.3018 12.5841
272 2 1.27566 8.0233 17.2195
262 2 -5.8886 10.3032 16.3883
270 1 -0.133063 8.84021 16.409
204 3 0.923676 8.78892 12.7075
172 2 1.24249 8.04543 15.2549
259 1 -6.90278 9.87181 16.1124
28 4 7.60063 1.53561 6.57601
31 4 6.42026 3.72726 8.5679
35 4 9.89691 1.46397 4.34904
37 4 12.12 1.25411 6.32355
40 4 10.3531 4.0286 2.61568
296 2 10.215 0.0733551 1.75648
11 2 14.6842 0.919251 2.52797
55 1 11.0687 3.79994 0.669307
264 2 5.40934 4.40858 2.6755
65 2 9.28124 0.288769 3.23647
69 2 10.0284 5.55806 3.58437
70 2 9.28652 4.05199 1.07706
49 1 6.9703 3.27848 3.05008
89 2 7.05741 4.25945 3.5857
87 2 6.6277 3.36114 1.96813
88 2 7.9456 2.70413 3.04647
106 2 11.5049 2.79072 0.900078
107 2 12.0352 4.32878 2.2793
108 2 9.39123 4.75146 5.17711
118 3 7.81938 0.217533 7.46518
123 3 7.3871 2.74789 7.67775
124 3 5.39945 5.01112 7.45285
128 3 8.78638 1.73213 5.4951
129 3 14.9979 -0.455638 8.68049
131 3 13.5282 2.10918 5.77753
132 3 11.1936 0.722595 4.73832
133 3 12.5781 -0.237807 6.95701
137 3 10.1446 2.73779 3.50011
139 3 11.5435 2.09689 7.54307
140 3 10.485 4.41342 8.06722
316 2 13.4042 0.247326 3.76064
96 2 4.6836 5.11879 4.45544
330 2 13.1118 1.10698 0.598874
4 1 14.5061 0.500859 3.55892
105 2 11.7567 4.62324 0.459704
41 4 11.0862 3.02581 8.70326
281 2 10.3423 5.51613 0.00349962
56 1 9.56563 5.82064 5.42021
323 2 8.34145 0.529052 1.62426
315 2 15.2488 -0.274628 3.90828
110 2 8.34622 5.68259 6.8255
59 2 13.8501 1.89889 8.41054
187 2 4.57348 4.27568 10.8842
327 2 8.17772 -1.30294 13.3009
33 4 5.50849 3.08306 14.0632
36 4 9.51716 1.33435 10.744
38 4 8.652 0.560889 15.881
39 4 12.1823 -0.0830478 11.3547
50 1 7.43738 4.76416 9.66792
53 1 7.32868 2.48801 13.4249
54 1 9.40921 -0.542955 14.7109
309 2 13.6702 -1.33883 14.4092
63 2 4.82866 3.83337 12.6339
66 2 8.53855 2.12849 11.9148
67 2 8.34675 2.1298 15.1255
68 2 12.6628 -0.709165 12.9102
310 2 12.1071 -0.436813 14.9217
77 2 13.3928 1.04329 13.8389
91 2 8.52422 4.35672 9.37659
92 2 7.02468 4.48309 10.7028
99 2 6.85187 2.74289 12.3282
100 2 7.02328 1.39316 14.0201
101 2 7.79504 3.39245 14.0828
102 2 10.5468 -0.956843 14.7224
103 2 9.18436 0.360093 13.7235
104 2 8.60639 -1.42448 14.774
130 3 8.40493 0.42169 10.1321
134 3 7.22777 0.174876 16.4664
135 3 13.3367 0.519667 10.5404
136 3 10.741 0.646968 11.4504
138 3 10.0314 2.38252 9.75477
141 3 5.66566 4.34367 15.1338
249 4 11.0937 4.63598 13.7764
250 1 11.6306 2.7541 13.357
304 1 13.5667 -1.59223 17.5939
71 2 12.3783 3.53609 9.65833
253 2 11.9432 2.69496 12.2614
254 2 10.4579 2.49205 13.4389
313 2 9.75524 0.896203 17.2147
256 2 9.39673 4.61262 12.2057
306 2 14.2533 -0.991936 16.8588
252 2 12.2204 2.38153 14.1394
307 1 12.5581 -1.39038 14.7473
26 4 7.98132 -0.575754 8.8757
109 2 8.93703 6.47107 4.84669
42 4 10.0041 5.79131 7.47591
147 4 8.79321 9.94979 8.4563
295 1 0.942096 12.8486 1.34805
97 2 5.25983 6.82327 5.03708
297 2 0.656215 11.748 1.81596
224 2 6.12478 6.49122 7.60459
305 2 6.04494 12.5762 0.457349
72 2 10.7409 6.1484 5.32856
205 4 8.20057 10.0029 2.68003
208 4 5.63404 12.046 7.243
209 4 3.47978 10.9012 3.54091
210 4 6.40226 8.22139 7.59075
211 4 5.98511 10.1579 5.09033
212 1 7.51802 10.5908 1.02495
216 1 4.06804 10.6425 1.76213
324 2 1.5965 11.6062 7.66924
299 2 0.944167 10.2487 8.81128
222 2 5.01726 10.5565 7.85655
223 2 3.66425 12.5581 3.85153
317 2 6.47008 10.7303 1.15005
225 2 7.93198 8.93619 1.10996
244 3 7.75731 8.71436 8.17227
61 2 3.35811 6.68976 6.45281
233 2 1.0489 11.5657 5.76984
292 2 3.25596 8.81394 1.70643
236 2 4.95186 9.91487 1.93283
237 2 4.38829 11.7286 1.58117
238 2 3.2968 10.2584 0.929373
243 3 1.88353 10.4335 3.5933
245 3 7.03883 9.97151 3.82574
246 3 4.47842 10.1222 4.47377
247 3 6.0632 8.85795 6.14542
248 3 6.48657 11.8217 5.9264
240 2 4.06927 9.17953 8.35478
52 1 4.3459 6.19266 4.89592
217 1 5.0726 8.81991 8.81481
226 2 8.01238 11.0598 0.00481312
98 2 3.59206 6.64663 4.22582
298 1 1.28293 11.3355 8.71284
282 2 9.78996 8.40018 0.0109687
43 4 5.49323 5.48375 16.1893
73 2 6.03481 6.91268 15.5006
318 2 8.74508 8.69649 16.0896
142 3 4.10681 5.65451 16.8671
251 1 9.58594 5.46697 12.9746
160 1 3.52712 8.487 13.4063
173 2 0.873004 11.2978 11.6254
185 2 4.90418 5.66051 12.274
239 2 4.87941 7.95323 9.53374
268 4 1.31241 9.90632 17.3855