ITEM: TIMESTEP
0
ITEM: NUMBER OF ATOMS
295
ITEM: BOX BOUNDS xy xz yz pp pp pp
-8.3339999999999996e+00 1.5144700000000000e+01 -7.6974000000000000e+00
0.0000000000000000e+00 1.4189300000000001e+01 -6.3660000000000005e-01
0.0000000000000000e+00 1.6498000000000001e+01 5.8050000000000002e-01
ITEM: ATOMS id type q x y z
6 4 1.08117 0.9562 1.73254 5.98823
7 4 1.10361 -0.19499 3.64135 1.72947
8 4 1.09985 -0.55546 3.89726 7.79437
10 4 1.13983 -1.80494 6.1254 5.81352
25 4 1.5867 0.57938 5.92972 3.75557
52 1 -0.1564 -1.52924 4.49227 0.7723
78 3 -0.683335 1.45153 0.58321 0.30391
79 3 -0.73022 0.12158 1.20829 4.68433
80 3 -0.605149 1.37397 0.39296 6.85194
81 3 -0.738597 -0.75713 2.25159 2.38543
82 3 -0.72703 0.97666 3.20023 0.66505
84 3 -0.71133 -0.04418 2.60901 6.92996
85 3 -0.740737 -1.32955 4.90619 6.78176
102 3 -0.796462 0.50067 4.54274 2.90509
103 3 -0.778264 -0.84872 6.18937 4.48213
106 3 -0.754729 1.77359 5.79604 4.85137
172 2 0.0821749 2.03163 1.611 3.29795
173 2 0.0966865 2.22569 3.36026 4.65077
176 2 0.0182041 -2.12864 5.17736 1.38204
180 2 0.0733167 1.76455 4.68178 8.13304
187 2 0.0257396 -3.44942 6.61885 2.60278
21 4 0.644054 7.02672 4.56719 5.39315
26 4 1.53137 4.91234 4.75362 7.47436
27 4 0.737475 2.99579 6.50716 5.69808
50 1 -0.112577 2.8942 1.29507 2.70686
51 1 -0.107723 2.43195 2.71538 5.51147
62 1 -0.134191 7.38935 6.38325 5.24589
63 1 -0.135288 5.96329 3.9035 4.022
96 3 -0.61607 3.87219 0.88553 7.70647
104 3 -0.788941 4.09762 3.54434 8.18768
105 3 -0.725254 6.3037 4.19876 6.8376
107 3 -0.787588 3.97776 5.31883 6.26961
122 3 -0.682581 8.48011 3.77604 5.40604
158 2 -0.0545074 7.94842 1.49966 4.38973
170 2 0.0499856 3.28197 2.17807 2.18686
171 2 0.046738 3.67018 0.9106 3.38313
174 2 0.0553793 3.30219 2.08972 5.28557
175 2 0.110341 2.70202 3.36443 6.34672
200 2 0.0123068 6.46841 6.98297 5.2029
201 2 0.0225695 7.95226 6.5603 4.31779
202 2 0.0633517 8.00908 6.73296 6.08468
203 2 0.0354408 5.80003 2.8229 4.14536
204 2 0.028195 6.41555 4.06579 3.03509
205 2 0.0530514 4.98187 4.39196 4.0464
210 2 0.0451436 2.45847 6.92749 8.05931
228 2 0.0680717 8.24936 1.87988 7.53275
246 4 0.65635 4.97231 5.63078 0.31754
247 1 -0.0927386 3.72243 4.94179 1.50548
248 1 -0.127471 6.236 6.69748 1.16816
249 2 0.0210173 4.15184 4.10272 2.06542
250 2 0.13858 2.82096 4.57959 0.99567
251 2 0.0817035 3.42528 5.70127 2.24149
253 2 0.0180019 6.74448 6.14226 1.96917
274 1 -0.131842 6.1173 1.9011 0.92895
275 2 0.0708538 7.03998 2.18609 1.45103
276 2 0.0775128 6.15735 0.82507 0.72509
277 2 0.0188439 5.26771 2.0766 1.59724
292 2 0.114924 6.58456 0.42807 8.15127
2 4 1.14437 13.9531 1.4754 3.75001
36 4 1.02076 8.96741 2.56186 4.42978
37 4 0.634845 10.409 0.91055 0.76953
40 4 1.09615 11.8146 2.17884 5.72638
43 4 0.654113 10.3568 3.66554 1.92154
54 1 -0.137366 11.5613 5.91845 5.3526
74 1 -0.135985 9.54475 4.88333 0.78008
125 3 -0.715562 12.9178 2.47027 4.55848
126 3 -0.745995 10.3751 1.98525 4.98869
127 3 -0.593693 12.1925 0.78065 6.47608
133 3 -0.68852 9.14707 3.10824 2.8975
134 3 -0.616024 11.0715 2.374 1.16879
159 2 -0.00322283 9.92945 0.2485 2.01236
162 2 0.00809159 11.7451 3.2827 6.68993
164 2 0.00977404 11.4108 4.29123 2.75139
177 2 0.0553565 12.9461 3.72682 0.35751
182 2 0.0470611 11.4284 5.12116 4.61055
183 2 0.0596659 11.1541 6.84743 4.93322
227 2 0.0836384 9.98769 2.07701 7.86081
234 2 0.0197567 9.10908 5.68048 1.39918
235 2 0.0699671 8.72255 4.428 0.2115
236 2 0.00285427 10.2501 5.35142 0.08053
286 2 0.0387371 10.9684 5.65658 6.2397
3 4 1.05094 0.37407 2.55688 16.0629
9 4 1.13223 -3.87815 6.78995 9.32184
53 1 -0.139153 0.80967 4.7866 8.66136
83 3 -0.713342 -1.62038 3.29073 8.88933
86 3 -0.680315 -2.50043 6.53699 10.1623
98 3 -0.729038 1.45617 3.02096 14.9386
148 2 -0.0295249 -1.6654 6.43512 12.5566
178 2 0.0180225 -1.72943 5.63859 16.4386
179 2 0.0494937 0.56014 5.85169 8.71623
181 2 0.0408303 0.95459 4.4173 9.684
185 2 0.0455362 0.65698 6.61501 10.7297
190 2 0.0190329 -3.42032 7.28293 14.0891
198 2 0.0460978 1.48956 2.01873 9.2066
208 2 0.0131388 1.71548 0.96062 12.5838
256 1 -0.105874 1.00246 6.69336 14.3859
259 2 0.102653 0.87352 5.72576 14.8934
260 2 0.0606848 1.41045 6.49143 13.3872
261 2 0.0210036 0.01083 7.15491 14.2706
264 1 -0.156413 -1.27493 2.32376 15.2614
266 2 0.0180333 -1.58567 3.25901 14.7769
267 1 -0.166675 -0.6573 1.8212 11.2147
268 2 0.0293697 0.14891 1.10922 11.0081
269 2 0.0309331 -0.20943 2.79345 11.4594
295 2 0.0745546 -2.39732 4.42229 11.5285
19 4 1.08715 5.31491 3.37923 15.8273
20 4 1.06367 3.91861 2.05774 8.85349
22 4 1.20367 7.10339 0.73529 12.6489
23 4 1.09698 2.75657 2.62334 14.0297
24 4 1.56224 5.95648 2.85457 10.7834
28 4 1.13647 3.97381 4.76589 12.275
41 4 1.07197 8.14027 2.47654 14.8717
61 1 -0.143021 2.37504 1.92983 9.84748
64 1 -0.129927 2.55936 0.95284 13.2859
97 3 -0.717422 4.09447 2.74094 14.9507
99 3 -0.795512 5.25207 1.78103 9.76801
100 3 -0.811879 6.30663 2.05676 12.1506
101 3 -0.684979 5.10932 4.98711 16.0311
108 3 -0.73994 2.82162 3.75029 12.8248
109 3 -0.77785 4.90709 4.03736 11.1529
110 3 -0.681392 3.20225 6.01 11.5423
124 3 -0.724661 7.24123 3.52032 10.0809
128 3 -0.745709 8.12001 1.20238 13.8306
130 3 -0.708702 6.6907 3.20996 14.9467
135 3 -0.78806 5.22405 5.94849 8.52205
138 3 -0.719974 7.53303 6.86737 9.56751
152 2 0.0160506 4.81243 5.24774 13.3837
197 2 0.0205736 2.35203 0.93087 10.3082
199 2 0.073713 2.31385 2.67314 10.6501
207 2 0.0785093 3.46482 0.65012 12.7442
240 2 0.0179406 7.45193 7.05687 14.5249
241 2 0.0579752 6.31823 6.6247 13.2376
257 3 -0.615107 3.5775 7.1293 15.6616
5 4 1.02293 13.3244 1.91923 9.76839
39 4 0.707475 8.68243 3.54699 9.28544
42 4 0.624854 10.8937 2.83881 11.3032
45 4 1.10008 8.52009 7.08125 10.8546
71 1 -0.0743107 8.99643 2.00097 8.32595
72 1 -0.15555 9.40186 3.70513 14.3187
73 1 -0.13654 12.0302 3.976 12.2291
123 3 -0.568666 13.54 0.59608 8.81844
129 3 -0.678303 8.45325 1.80395 16.3391
131 3 -0.644993 11.7701 1.88099 10.2812
132 3 -0.634875 9.84334 3.75909 10.4422
161 2 0.060094 8.70066 4.75627 8.43807
163 2 0.0312192 10.1434 1.89808 12.1705
165 2 -0.0217293 8.40397 5.9413 11.7863
226 2 0.111674 8.99898 1.10903 8.96433
229 2 0.0449917 9.15189 4.03492 13.2999
230 2 0.0126989 10.4096 3.2727 14.3052
231 2 0.0208025 9.41732 4.59368 14.957
232 2 0.00596936 12.5927 3.43818 13.0026
233 2 0.032598 11.4833 4.79778 12.7079
265 2 0.0283772 13.9202 1.54044 14.4928
281 2 -0.0279749 10.9613 5.56173 8.5728
284 2 0.0461265 13.1048 2.04173 15.9943
285 2 0.0187858 13.9492 1.46639 12.1028
293 2 0.0402217 11.1953 0.77854 15.3548
1 4 0.80586 -5.31502 13.6059 1.52315
4 4 0.737122 -4.91526 12.7451 7.32066
12 4 0.731687 -2.51108 8.62218 1.47479
15 4 1.5655 -2.58566 8.67368 7.26378
16 4 1.59197 -3.75677 10.6874 5.16488
56 1 -0.117362 -3.8459 7.54616 2.17163
87 3 -0.531251 -6.18716 11.837 2.24827
88 3 -0.774925 -3.25984 9.83279 0.65581
90 3 -0.779146 -1.60257 7.52908 6.649
91 3 -0.730639 -4.90874 10.2963 4.08445
92 3 -0.868688 -3.44454 9.3748 6.06709
93 3 -0.773287 -4.2585 11.9194 6.08813
113 3 -0.65826 -1.63496 9.26612 2.70328
114 3 -0.783886 -2.4198 11.1934 4.39514
115 3 -0.735839 -1.63561 9.72056 8.04867
188 2 0.0994435 -4.39262 8.08826 2.95481
280 3 -0.649462 -3.95494 12.38 0.87439
30 4 1.1259 1.75657 8.14366 1.78048
31 4 1.08074 -1.14906 10.5601 3.56129
33 4 0.613173 1.31266 10.4317 5.43954
46 4 0.567538 3.61756 9.6163 3.55234
57 1 -0.123873 -1.38936 7.75526 0.28256
65 1 -0.11179 2.33791 7.48716 7.12439
66 1 -0.148756 -0.48396 11.9112 2.49765
67 1 -0.101248 -0.95089 12.4743 7.69213
68 1 -0.125419 1.70675 12.2162 5.25397
111 3 -0.787316 0.89252 7.15334 2.73537
112 3 -0.712624 1.96475 7.46691 0.3277
116 3 -0.630602 -0.04808 9.99691 4.63398
139 3 -0.687071 3.23104 8.45126 2.44892
140 3 -0.64172 2.59105 9.56461 4.83072
141 3 -0.710513 3.96492 11.8471 8.10199
151 2 0.0191968 3.85455 7.2451 4.74051
155 2 -0.0482013 1.02706 9.41732 1.65011
157 2 0.0272224 1.14069 10.0282 6.85065
166 2 -0.0403814 3.49477 10.9306 2.86897
189 2 0.0761316 -0.71852 7.06299 0.79842
209 2 0.0272288 2.88825 8.42959 7.22182
211 2 0.0971413 1.27468 7.73465 7.00483
212 2 0.0741969 -1.19112 12.1137 1.68374
213 2 0.010557 0.48545 11.6544 2.0539
214 2 0.0275832 -0.36378 12.8413 3.06876
215 2 0.082502 -1.50147 12.4476 6.74231
216 2 0.0470771 0.121 12.3595 7.49069
217 2 0.0310723 2.00517 12.4606 4.22567
218 2 0.086585 2.53591 12.4845 5.91919
219 2 0.0297847 0.85066 12.8457 5.51641
263 2 0.0345981 4.47363 13.5719 2.95186
294 2 0.0263269 4.83609 12.6807 0.40328
13 4 0.668458 8.76962 10.8018 3.51492
38 4 0.802939 5.17281 12.8132 7.57511
75 1 -0.145748 6.01015 8.68754 8.03003
149 2 0.0053585 8.06331 11.5023 4.61712
160 2 -0.017418 6.20445 11.9914 6.91801
167 2 -0.0335611 5.00102 9.36674 4.01936
237 2 0.0252742 5.00832 8.98473 7.69431
238 2 0.0240606 6.61391 8.45777 7.141
252 2 0.0327729 7.00165 7.06756 0.47334
254 2 0.0512542 5.73619 7.56044 1.62961
262 1 -0.131742 5.50097 13.4553 3.31834
270 1 -0.136349 7.84269 9.32031 2.91225
271 2 0.0146812 7.62904 8.63971 3.74632
272 2 0.0456006 8.41573 8.76922 2.154
273 2 0.00987097 6.88308 9.61253 2.46573
282 2 0.0205861 5.47532 12.225 4.20338
283 2 0.0418499 6.09364 12.3721 2.54091
287 2 0.0113946 10.5909 7.28691 1.37438
291 2 0.0703632 7.31247 10.9862 0.46483
14 4 1.54275 -4.31709 11.7353 16.3411
17 4 0.69208 -3.29957 9.4107 12.8351
58 1 -0.114915 -4.15268 8.04748 13.7905
59 1 -0.0670429 -4.39492 10.6467 11.9957
89 3 -0.791658 -3.69602 8.0299 8.26866
94 3 -0.595892 -2.33686 8.73444 11.678
95 3 -0.716349 -5.68076 11.42 15.5027
117 3 -0.688301 -2.26434 10.1616 13.8988
119 3 -0.7812 -3.14324 12.2359 15.3367
147 2 -0.0259214 -5.19135 11.8496 8.46163
156 2 0.00499321 -2.81993 11.4467 9.48649
191 2 0.0468031 -4.63899 8.43214 14.6972
192 2 0.0994233 -5.07479 11.1331 12.7047
193 2 0.105905 -5.00384 10.1499 11.2281
194 2 0.0706434 -3.77608 11.4131 11.5083
206 2 0.095548 -5.3443 13.8035 14.0493
289 2 0.0118004 -2.61968 7.76458 16.0564
11 4 0.667214 -1.62745 7.29773 11.343
29 4 0.661275 3.67035 7.54782 11.1713
32 4 0.7247 -1.50883 11.15 8.8547
34 4 1.05243 -1.87712 11.6324 14.4833
35 4 1.03692 0.76203 11.6622 10.9249
47 4 1.04232 3.2754 11.0449 9.33877
55 1 -0.109961 0.10967 7.56306 10.788
69 1 -0.148851 -0.38489 11.5255 15.5711
70 1 -0.146972 1.2072 10.6382 12.4002
118 3 -0.617697 -1.63963 12.6567 13.2176
120 3 -0.665829 -0.39168 10.9231 10.0433
121 3 -0.644536 0.24098 13.1493 11.3944
142 3 -0.706319 2.07743 11.9552 9.97981
145 3 -0.692581 4.37296 10.6584 10.4832
153 2 0.0140162 3.62644 8.3536 12.4153
154 2 -0.0277573 2.73892 8.04526 10.1408
168 2 -0.0623181 2.71758 9.79715 8.79933
184 2 0.0914852 0.15581 8.07425 9.81708
186 2 0.0255581 0.61451 8.19584 11.5281
220 2 0.0632995 -0.04365 12.5316 15.8455
221 2 0.0184866 0.44361 10.9974 15.0822
222 2 0.0214946 -0.62559 10.9893 16.4965
223 2 0.00940502 1.92559 9.84709 12.1499
224 2 0.0639097 0.31408 10.1674 12.832
225 2 0.0311335 1.67635 11.2706 13.1662
243 2 0.0696458 3.96451 13.0309 12.34
245 2 0.0394429 3.91756 11.6772 13.5023
255 4 0.641732 2.10107 7.7946 15.3904
258 2 -0.0257975 2.34304 9.12287 14.7596
278 1 -0.133214 3.26062 13.4195 16.3551
279 2 0.0279234 2.77966 12.4374 16.2233
288 2 0.0577511 -1.41685 9.04395 16.2085
18 4 0.680981 8.19527 10.3782 15.4325
44 4 1.10749 5.98388 7.23658 9.18108
48 4 1.00673 7.21535 8.91124 12.9278
49 4 0.691503 5.43792 11.1555 11.6427
60 1 -0.115102 6.61053 11.2095 15.9269
76 1 -0.141712 6.64153 7.44443 13.89
77 1 -0.126761 4.57341 12.2725 12.8512
136 3 -0.6547 5.20703 7.55336 10.5936
137 3 -0.724718 10.056 7.2064 10.3361
143 3 -0.712075 8.1353 8.46957 11.6364
144 3 -0.678972 8.14879 9.87128 13.8746
146 3 -0.66498 5.95245 9.81973 12.4322
150 2 -0.0278224 8.48522 9.20316 16.3092
169 2 0.00707574 6.59697 11.7967 10.9658
195 2 0.0197059 5.76205 10.514 15.8411
196 2 0.0583752 6.41058 12.0785 15.2866
239 2 0.0624665 6.47302 9.54957 8.53155
242 2 0.0722215 5.78839 7.70185 14.5323
244 2 0.0185525 5.29913 12.7854 13.4971
290 2 0.0519796 10.2264 7.55525 13.1774
ITEM: TIMESTEP
1
ITEM: NUMBER OF ATOMS
295
ITEM: BOX BOUNDS xy xz yz pp pp pp
-8.3339999999999996e+00 1.5144700000000000e+01 -7.6974000000000000e+00
0.0000000000000000e+00 1.4189300000000001e+01 -6.3660000000000005e-01
0.0000000000000000e+00 1.6498000000000001e+01 5.8050000000000002e-01
ITEM: ATOMS id type q x y z
6 4 1.09608 0.946428 1.71926 5.99531
7 4 1.11717 -0.188547 3.63997 1.75405
8 4 1.11485 -0.564566 3.897 7.77293
10 4 1.16098 -1.78574 6.11902 5.81333
25 4 1.58936 0.583381 5.93141 3.76051
52 1 -0.152571 -1.55215 4.50647 0.756272
78 3 -0.695453 1.45402 0.578722 0.307314
79 3 -0.744012 0.125599 1.20793 4.68409
80 3 -0.633606 1.38042 0.387282 6.85356
81 3 -0.751001 -0.758407 2.25077 2.3825
82 3 -0.72662 0.975144 3.20209 0.665079
84 3 -0.725377 -0.0388553 2.61019 6.92966
85 3 -0.759579 -1.33193 4.90795 6.78076
102 3 -0.807817 0.500027 4.54349 2.90432
103 3 -0.786128 -0.853488 6.18835 4.48329
106 3 -0.777655 1.77865 5.79812 4.8556
172 2 0.0811374 2.03084 1.60777 3.29495
173 2 0.0960102 2.22258 3.35762 4.65266
176 2 0.0179728 -2.12395 5.1741 1.38348
180 2 0.0672473 1.75988 4.67974 8.13174
187 2 0.0264231 -3.44684 6.62351 2.60021
21 4 0.651049 7.04418 4.56856 5.39629
26 4 1.53355 4.88457 4.75646 7.50371
27 4 0.772404 2.94173 6.45231 5.7541
50 1 -0.11235 2.89783 1.29769 2.71289
51 1 -0.107054 2.44827 2.72665 5.50663
62 1 -0.132924 7.39823 6.42408 5.2404
63 1 -0.131259 5.93872 3.88868 3.99107
96 3 -0.652311 3.85794 0.861546 7.70587
104 3 -0.807543 4.09204 3.54325 8.18742
105 3 -0.706462 6.30537 4.19735 6.83847
107 3 -0.798858 3.97283 5.32411 6.2649
122 3 -0.707803 8.48212 3.77518 5.40651
158 2 -0.032824 7.87221 1.41905 4.38712
170 2 0.0505869 3.27983 2.17353 2.18502
171 2 0.0456133 3.66782 0.908527 3.37939
174 2 0.0526144 3.29746 2.08813 5.28723
175 2 0.106124 2.69927 3.36208 6.34704
200 2 0.0145472 6.46958 6.97693 5.20384
201 2 0.0218519 7.95014 6.55569 4.32059
202 2 0.0627832 8.00641 6.72788 6.08336
203 2 0.0376583 5.80305 2.8271 4.14833
204 2 0.0288268 6.41745 4.06731 3.0406
205 2 0.0542738 4.98629 4.39283 4.04961
210 2 0.0376261 2.46003 6.92636 8.05424
228 2 0.0693298 8.24986 1.88333 7.5361
246 4 0.666124 4.96777 5.62971 0.300211
247 1 -0.0967686 3.70873 4.9334 1.5223
248 1 -0.127535 6.251 6.71053 1.18104
249 2 0.0220727 4.15367 4.10631 2.06081
250 2 0.132571 2.82485 4.58202 0.993191
251 2 0.072312 3.42814 5.70172 2.23682
253 2 0.0182035 6.7403 6.14103 1.965
274 1 -0.128449 6.1196 1.88853 0.949696
275 2 0.0711193 7.03811 2.18769 1.44655
276 2 0.0779034 6.15713 0.828607 0.722262
277 2 0.0196493 5.26935 2.07875 1.59214
292 2 0.11318 6.58453 0.396435 8.14871
2 4 1.14999 13.9726 1.49221 3.75
36 4 1.09283 9.06163 2.62423 4.42638
37 4 0.656503 10.4357 0.949145 0.702352
40 4 1.15792 11.8144 2.08956 5.66321
43 4 0.685576 10.29 3.61045 1.86475
54 1 -0.13444 11.5363 5.91509 5.34634
74 1 -0.14354 9.53589 4.89911 0.768279
125 3 -0.743703 12.9157 2.47144 4.55977
126 3 -0.81368 10.3771 1.98264 4.99149
127 3 -0.645826 12.1984 0.765562 6.48433
133 3 -0.732978 9.1476 3.11007 2.89609
134 3 -0.645309 11.0727 2.371 1.16631
159 2 0.00552569 9.90171 0.210555 2.08345
162 2 0.0304347 11.7412 3.36318 6.75979
164 2 0.0201282 11.4796 4.33191 2.80576
177 2 0.0569438 12.9497 3.72703 0.360331
182 2 0.0440144 11.4329 5.12323 4.61358
183 2 0.0605352 11.1589 6.84623 4.93547
227 2 0.0785899 9.98496 2.07943 7.86355
234 2 0.0195538 9.11173 5.67584 1.39971
235 2 0.0656249 8.72636 4.42558 0.215109
236 2 0.00314349 10.2508 5.34702 0.0846318
286 2 0.0377028 10.9734 5.65775 6.23848
3 4 1.0636 0.40269 2.54653 16.0612
9 4 1.2201 -3.8486 6.88995 9.37648
53 1 -0.136395 0.833082 4.80183 8.67606
83 3 -0.715814 -1.61839 3.29546 8.8909
86 3 -0.731685 -2.49922 6.53572 10.1637
98 3 -0.747726 1.45585 3.02034 14.9354
148 2 -0.0170023 -1.66761 6.38286 12.6302
178 2 0.0197618 -1.72745 5.63532 16.4422
179 2 0.0487134 0.557632 5.84768 8.71399
181 2 0.0406645 0.95089 4.41593 9.68008
185 2 0.0457969 0.652124 6.61615 10.7309
190 2 0.0200526 -3.42046 7.28802 14.086
198 2 0.0449305 1.49447 2.01939 9.2053
208 2 0.0143386 1.71799 0.963831 12.5872
256 1 -0.114131 0.993403 6.68405 14.3768
259 2 0.0971975 0.876349 5.73017 14.8946
260 2 0.0603927 1.41268 6.49459 13.3914
261 2 0.0219073 0.0156797 7.1563 14.2729
264 1 -0.150595 -1.30607 2.31973 15.2449
266 2 0.0206737 -1.58133 3.25738 14.7802
267 1 -0.160371 -0.63288 1.81873 11.246
268 2 0.0300129 0.144368 1.11076 11.005
269 2 0.033331 -0.213153 2.79188 11.4551
295 2 0.0740506 -2.40118 4.41876 11.5276
19 4 1.1027 5.31452 3.38683 15.8125
20 4 1.07024 3.90878 2.04305 8.80276
22 4 1.21852 7.09329 0.69908 12.6487
23 4 1.11779 2.75444 2.63336 14.0462
24 4 1.5552 5.9875 2.86701 10.8162
28 4 1.20777 3.91548 4.73422 12.1783
41 4 1.07613 8.12404 2.46639 14.8758
61 1 -0.138973 2.34231 1.92397 9.8685
64 1 -0.126593 2.55556 0.924231 13.2729
97 3 -0.731458 4.09595 2.73894 14.953
99 3 -0.763958 5.25118 1.77687 9.76774
100 3 -0.819441 6.30962 2.04882 12.154
101 3 -0.695683 5.10884 4.98751 16.0345
108 3 -0.769358 2.8218 3.74769 12.826
109 3 -0.813529 4.90473 4.04098 11.1566
110 3 -0.750299 3.20221 6.01804 11.5435
124 3 -0.745992 7.25244 3.52225 10.0743
128 3 -0.746021 8.11955 1.19983 13.8262
130 3 -0.720315 6.68838 3.21233 14.9486
135 3 -0.812577 5.22364 5.95284 8.52072
138 3 -0.753618 7.53493 6.8655 9.56638
152 2 0.0424511 4.87561 5.28384 13.468
197 2 0.0220376 2.35522 0.933744 10.305
199 2 0.0710169 2.31808 2.67311 10.6465
207 2 0.0791444 3.46391 0.654379 12.7469
240 2 0.0198273 7.45126 7.06136 14.5214
241 2 0.0549847 6.32064 6.63027 13.2359
257 3 -0.640248 3.57624 7.12936 15.661
5 4 1.02705 13.3122 1.89936 9.74765
39 4 0.749606 8.68385 3.46752 9.3534
42 4 0.659259 10.9254 2.90087 11.2419
45 4 1.17954 8.55243 7.15447 10.7758
71 1 -0.0850125 8.99943 1.99142 8.31774
72 1 -0.153167 9.42298 3.72613 14.308
73 1 -0.14132 12.0425 3.98862 12.24
123 3 -0.603162 13.539 0.581452 8.81109
129 3 -0.694958 8.45732 1.80293 16.3429
131 3 -0.667501 11.7649 1.88223 10.2865
132 3 -0.671469 9.84034 3.75813 10.4396
161 2 0.0761862 8.70172 4.833 8.38336
163 2 0.0425553 10.0952 1.83845 12.2264
165 2 0.00221441 8.39542 5.85733 11.8539
226 2 0.102903 8.99784 1.11375 8.96592
229 2 0.0443607 9.14997 4.03154 13.3035
230 2 0.0124575 10.4047 3.27054 14.3071
231 2 0.0211793 9.41465 4.5889 14.9571
232 2 0.00682629 12.5885 3.43671 12.9984
233 2 0.0323822 11.4815 4.79342 12.7048
265 2 0.028551 13.9238 1.54252 14.4966
281 2 -0.00439219 10.9392 5.47594 8.52116
284 2 0.0477532 13.1101 2.04274 15.9951
285 2 0.0192272 13.9477 1.46739 12.0975
293 2 0.0369098 11.1869 0.757429 15.3658
1 4 0.826037 -5.32206 13.572 1.52196
4 4 0.798473 -4.88792 12.8393 7.23867
12 4 0.749624 -2.51189 8.6396 1.47586
15 4 1.58015 -2.59334 8.68356 7.27227
16 4 1.59657 -3.77503 10.6866 5.16909
56 1 -0.118323 -3.85727 7.53612 2.17675
87 3 -0.557925 -6.17825 11.859 2.24858
88 3 -0.782375 -3.25714 9.82799 0.657354
90 3 -0.77805 -1.60586 7.52685 6.64903
91 3 -0.757272 -4.9137 10.2978 4.08351
92 3 -0.872407 -3.44285 9.3751 6.06844
93 3 -0.800688 -4.26066 11.9201 6.09127
113 3 -0.669937 -1.63642 9.26286 2.69727
114 3 -0.776906 -2.41937 11.194 4.39566
115 3 -0.76192 -1.63611 9.72597 8.05061
188 2 0.0973431 -4.38853 8.08978 2.9519
280 3 -0.665793 -3.96087 12.3894 0.878086
30 4 1.18737 1.81316 8.04515 1.78555
31 4 1.08544 -1.15245 10.5424 3.5636
33 4 0.649197 1.33364 10.4513 5.34021
46 4 0.641183 3.53065 9.55275 3.56834
57 1 -0.121681 -1.38115 7.74629 0.271488
65 1 -0.122074 2.3341 7.49559 7.13383
66 1 -0.146202 -0.471771 11.9365 2.47691
67 1 -0.108848 -0.947408 12.5174 7.68503
68 1 -0.133308 1.70953 12.2316 5.25386
111 3 -0.81729 0.891938 7.15475 2.73418
112 3 -0.763564 1.9652 7.4684 0.320471
116 3 -0.648126 -0.0437273 9.99988 4.63641
139 3 -0.744777 3.23197 8.45551 2.45064
140 3 -0.688958 2.59146 9.56744 4.83272
141 3 -0.766039 3.96896 11.8482 8.09686
151 2 0.0283146 3.904 7.2912 4.68365
155 2 -0.0268286 0.973896 9.50916 1.63983
157 2 0.0406843 1.12917 10.0028 6.94205
166 2 -0.0424585 3.48914 11.0096 2.82913
189 2 0.0762234 -0.721407 7.06637 0.80099
209 2 0.0289608 2.88876 8.42528 7.21791
211 2 0.0937926 1.27781 7.73121 7.00117
212 2 0.0741355 -1.19123 12.1104 1.68729
213 2 0.00874563 0.482221 11.6517 2.0576
214 2 0.0280464 -0.365406 12.8362 3.07013
215 2 0.0811732 -1.5034 12.441 6.74734
216 2 0.0422416 0.117777 12.3541 7.4955
217 2 0.0245351 2.00361 12.456 4.22827
218 2 0.0837643 2.53404 12.4806 5.91855
219 2 0.0295895 0.851026 12.8408 5.51596
263 2 0.033038 4.4781 13.5826 2.95405
294 2 0.0276427 4.83099 12.6837 0.404693
13 4 0.706282 8.82838 10.7634 3.44478
38 4 0.865014 5.09177 12.899 7.62307
75 1 -0.142365 6.01144 8.71656 8.00735
149 2 0.0173641 8.02107 11.5436 4.6818
160 2 3.90178e-05 6.27362 11.941 6.87481
167 2 -0.0323902 5.08687 9.35213 4.0489
237 2 0.0269597 5.01033 8.98044 7.69798
238 2 0.0247882 6.61213 8.45514 7.14567
252 2 0.0338358 6.99674 7.06417 0.47261
254 2 0.0510321 5.73448 7.55627 1.62633
262 1 -0.129639 5.48449 13.3763 3.30835
270 1 -0.145248 7.83446 9.31078 2.9095
271 2 0.015698 7.6318 8.64472 3.74576
272 2 0.0402143 8.41676 8.77395 2.15718
273 2 0.0101754 6.88732 9.61547 2.46792
282 2 0.0222799 5.47945 12.2522 4.19453
283 2 0.0440913 6.09083 12.3974 2.55239
287 2 0.0120458 10.5955 7.2898 1.37486
291 2 0.0675573 7.31584 10.9837 0.46174
14 4 1.53907 -4.33494 11.7404 16.3619
17 4 0.704339 -3.28457 9.40807 12.833
58 1 -0.114873 -4.16506 8.029 13.8029
59 1 -0.0705334 -4.40917 10.6612 11.9847
89 3 -0.83984 -3.69429 8.0257 8.2678
94 3 -0.627132 -2.33694 8.7338 11.6802
95 3 -0.735893 -5.68226 11.4187 15.5034
117 3 -0.690667 -2.26601 10.157 13.8974
119 3 -0.764671 -3.14314 12.235 15.3381
147 2 -0.0126784 -5.21038 11.7953 8.53687
156 2 0.0146893 -2.89772 11.465 9.52383
191 2 0.0490092 -4.63592 8.43496 14.6929
192 2 0.0985407 -5.07123 11.1297 12.706
193 2 0.09879 -5.00047 10.148 11.2313
194 2 0.0685423 -3.7754 11.4091 11.5117
206 2 0.0932722 -5.34338 13.8081 14.0504
289 2 0.013036 -2.62087 7.7677 16.061
11 4 0.706223 -1.63776 7.35157 11.2631
29 4 0.740991 3.73288 7.46115 11.163
32 4 0.75919 -1.42776 11.1239 8.81584
34 4 1.04944 -1.87397 11.6436 14.4545
35 4 1.05231 0.743289 11.6864 10.9194
47 4 1.11018 3.33684 11.1421 9.37371
55 1 -0.118429 0.126705 7.56637 10.7849
69 1 -0.143202 -0.35773 11.5237 15.5909
70 1 -0.14415 1.2166 10.618 12.4308
118 3 -0.637316 -1.62445 12.6803 13.2139
120 3 -0.687121 -0.396863 10.9214 10.0391
121 3 -0.664343 0.235781 13.1595 11.4029
142 3 -0.737564 2.07788 11.9527 9.97909
145 3 -0.741049 4.37613 10.6587 10.4865
153 2 0.0144155 3.6238 8.40403 12.4906
154 2 -0.026083 2.67915 8.07832 10.0753
168 2 -0.0376884 2.67548 9.70342 8.75892
184 2 0.0858244 0.151338 8.07255 9.81981
186 2 0.025976 0.609971 8.19376 11.5273
220 2 0.0634029 -0.047303 12.5302 15.8423
221 2 0.0199798 0.438299 10.9988 15.0808
222 2 0.0240098 -0.628568 10.9909 16.492
223 2 0.0110245 1.92289 9.8515 12.1465
224 2 0.0639399 0.314552 10.1707 12.8277
225 2 0.0299966 1.6738 11.2716 13.1612
243 2 0.0632652 3.96769 13.0267 12.3379
245 2 0.0350716 3.92094 11.6763 13.498
255 4 0.686886 2.08984 7.71446 15.4425
258 2 -0.0151595 2.35677 9.19985 14.7225
278 1 -0.135477 3.27747 13.4403 16.3512
279 2 0.0288823 2.77469 12.4461 16.2171
288 2 0.0600116 -1.42046 9.04462 16.2124
18 4 0.715998 8.1834 10.4488 15.3815
44 4 1.13058 5.97326 7.21535 9.1832
48 4 1.03717 7.20566 8.94076 12.9265
49 4 0.730499 5.36654 11.1069 11.6803
60 1 -0.124501 6.59672 11.2166 15.9318
76 1 -0.138363 6.63267 7.42108 13.9053
77 1 -0.13834 4.56785 12.2818 12.8615
136 3 -0.695624 5.20181 7.55632 10.5955
137 3 -0.805129 10.0588 7.20131 10.3357
143 3 -0.740638 8.1349 8.46784 11.6389
144 3 -0.7031 8.14853 9.86998 13.8785
146 3 -0.697636 5.94999 9.82259 12.4326
150 2 -0.017305 8.50147 9.13667 16.3589
169 2 0.0149447 6.66475 11.8345 10.9268
195 2 0.0192164 5.7676 10.5138 15.8404
196 2 0.0537161 6.41484 12.0746 15.2869
239 2 0.0612089 6.47155 9.54456 8.53311
242 2 0.0701495 5.79143 7.70488 14.5289
244 2 0.0180541 5.29944 12.7821 13.4923
290 2 0.0520967 10.2299 7.5598 13.1762
ITEM: TIMESTEP
2
ITEM: NUMBER OF ATOMS
295
ITEM: BOX BOUNDS xy xz yz pp pp pp
-8.3339999999999996e+00 1.5144700000000000e+01 -7.6974000000000000e+00
0.0000000000000000e+00 1.4189300000000001e+01 -6.3660000000000005e-01
0.0000000000000000e+00 1.6498000000000001e+01 5.8050000000000002e-01
ITEM: ATOMS id type q x y z
6 4 1.11535 0.932904 1.69638 6.01053
7 4 1.12829 -0.166846 3.63732 1.75806
8 4 1.13717 -0.583397 3.89142 7.74859
10 4 1.19177 -1.76506 6.12436 5.82601
25 4 1.58557 0.588209 5.93546 3.7643
52 1 -0.14807 -1.57975 4.52311 0.73696
78 3 -0.708913 1.45855 0.572382 0.311967
79 3 -0.756917 0.128543 1.20738 4.68109
80 3 -0.656861 1.38864 0.37979 6.85255
81 3 -0.74944 -0.760706 2.24846 2.38015
82 3 -0.743816 0.971068 3.20092 0.663752
84 3 -0.746495 -0.0315379 2.61254 6.92993
85 3 -0.784274 -1.3363 4.91169 6.77772
102 3 -0.811395 0.500161 4.54513 2.90474
103 3 -0.79075 -0.860807 6.18655 4.4853
106 3 -0.78158 1.77835 5.79579 4.86102
172 2 0.0808406 2.02942 1.60246 3.29046
173 2 0.0966193 2.21781 3.35511 4.65349
176 2 0.019416 -2.11999 5.17236 1.38717
180 2 0.0648186 1.75697 4.67689 8.12858
187 2 0.0272458 -3.44218 6.62835 2.5973
21 4 0.657408 7.07384 4.55979 5.39209
26 4 1.55082 4.84934 4.76346 7.53034
27 4 0.777645 2.94382 6.43663 5.76729
50 1 -0.111061 2.90379 1.3053 2.72585
51 1 -0.101701 2.47465 2.74507 5.49901
62 1 -0.131627 7.40619 6.45771 5.23538
63 1 -0.128802 5.91793 3.87611 3.96519
96 3 -0.673781 3.84607 0.838665 7.70336
104 3 -0.828624 4.08244 3.53506 8.1893
105 3 -0.690058 6.30091 4.20189 6.83768
107 3 -0.807681 3.97358 5.32212 6.26941
122 3 -0.717487 8.48375 3.77723 5.40648
158 2 -0.0261535 7.85362 1.3973 4.38684
170 2 0.0511167 3.27671 2.16635 2.18153
171 2 0.0449089 3.66544 0.904658 3.37469
174 2 0.0513808 3.29269 2.08456 5.28897
175 2 0.104685 2.69602 3.36 6.34907
200 2 0.016243 6.46769 6.97228 5.20495
201 2 0.021409 7.94995 6.55176 4.32023
202 2 0.0626672 8.00519 6.72393 6.08453
203 2 0.0383511 5.80585 2.82817 4.15192
204 2 0.0290271 6.4211 4.06971 3.04305
205 2 0.0559703 4.98784 4.39575 4.05319
210 2 0.0349399 2.462 6.92486 8.04979
228 2 0.0702708 8.24895 1.88826 7.53917
246 4 0.684978 4.96066 5.62667 0.272164
247 1 -0.0971898 3.68837 4.9214 1.54514
248 1 -0.127302 6.27253 6.72965 1.1984
249 2 0.0218169 4.15737 4.10874 2.05617
250 2 0.128692 2.82837 4.58463 0.989296
251 2 0.0708029 3.43125 5.70415 2.23241
253 2 0.018771 6.73602 6.1378 1.96162
274 1 -0.123721 6.12311 1.87013 0.979507
275 2 0.0719856 7.03768 2.19047 1.44179
276 2 0.0785771 6.15703 0.830809 0.718138
277 2 0.0195662 5.26953 2.08227 1.58697
292 2 0.109018 6.58515 0.34646 8.14374
2 4 1.15432 13.975 1.498 3.76735
36 4 1.09463 9.08208 2.6393 4.41807
37 4 0.663915 10.4364 0.956451 0.695896
40 4 1.15385 11.8174 2.07128 5.66243
43 4 0.693988 10.2801 3.58814 1.85817
54 1 -0.131648 11.5065 5.91127 5.33908
74 1 -0.142704 9.52672 4.91054 0.756885
125 3 -0.750627 12.919 2.46697 4.55385
126 3 -0.81606 10.3862 1.9705 4.99481
127 3 -0.661262 12.2011 0.745456 6.49184
133 3 -0.743906 9.14508 3.11206 2.89233
134 3 -0.652804 11.0789 2.36811 1.15763
159 2 0.00584716 9.89523 0.199405 2.10053
162 2 0.0310104 11.7426 3.37653 6.77158
164 2 0.0217421 11.4929 4.33992 2.81509
177 2 0.0586644 12.9522 3.72563 0.362845
182 2 0.0441269 11.4383 5.12392 4.61591
183 2 0.0601778 11.1644 6.84687 4.93754
227 2 0.0756503 9.98335 2.0831 7.86612
234 2 0.0202665 9.11433 5.67177 1.40213
235 2 0.0654488 8.72919 4.42297 0.217545
236 2 0.00381528 10.2539 5.34225 0.0883053
286 2 0.0366239 10.9785 5.65877 6.23887
3 4 1.07281 0.408168 2.54278 16.0903
9 4 1.23988 -3.84116 6.9167 9.37745
53 1 -0.130922 0.862699 4.82148 8.69416
83 3 -0.724911 -1.61445 3.30014 8.89278
86 3 -0.741808 -2.49457 6.53359 10.1638
98 3 -0.742035 1.45332 3.01922 14.9323
148 2 -0.0149257 -1.66675 6.3722 12.6446
178 2 0.0204264 -1.72383 5.63263 16.4444
179 2 0.0479701 0.554048 5.8455 8.71134
181 2 0.0422742 0.946428 4.41301 9.67815
185 2 0.0465125 0.646201 6.61564 10.7325
190 2 0.0199039 -3.41941 7.29275 14.0829
198 2 0.0443826 1.49672 2.02068 9.20223
208 2 0.0162591 1.7189 0.967673 12.5894
256 1 -0.11453 0.985806 6.67295 14.3709
259 2 0.0952837 0.878787 5.73336 14.8958
260 2 0.0606495 1.41703 6.49875 13.3949
261 2 0.0223505 0.020578 7.15927 14.2758
264 1 -0.146294 -1.33651 2.31536 15.2285
266 2 0.0223695 -1.57699 3.25828 14.7829
267 1 -0.152658 -0.604849 1.81519 11.2821
268 2 0.0303882 0.141919 1.11026 11.001
269 2 0.0362173 -0.215983 2.79356 11.4507
295 2 0.075715 -2.40367 4.41603 11.5262
19 4 1.12596 5.29721 3.40501 15.7933
20 4 1.0905 3.91996 2.03887 8.7764
22 4 1.24813 7.07586 0.667412 12.6363
23 4 1.13535 2.7815 2.66358 14.0412
24 4 1.55377 5.99817 2.85904 10.8355
28 4 1.20225 3.9098 4.7354 12.1719
41 4 1.07918 8.11769 2.44296 14.8828
61 1 -0.135567 2.32039 1.91837 9.8813
64 1 -0.120123 2.55075 0.885698 13.2559
97 3 -0.756554 4.09794 2.73585 14.9567
99 3 -0.763144 5.24514 1.7829 9.76748
100 3 -0.83201 6.31591 2.03439 12.1575
101 3 -0.716324 5.10839 4.98775 16.0386
108 3 -0.782473 2.82173 3.74338 12.8253
109 3 -0.811633 4.91179 4.03523 11.1524
110 3 -0.758587 3.19535 6.0128 11.5461
124 3 -0.745926 7.25554 3.51863 10.0755
128 3 -0.744948 8.11675 1.19356 13.817
130 3 -0.722956 6.68415 3.21685 14.9507
135 3 -0.841118 5.21796 5.95199 8.51421
138 3 -0.761863 7.5402 6.86417 9.563
152 2 0.0408419 4.88111 5.2861 13.4768
197 2 0.0219725 2.35873 0.933727 10.303
199 2 0.0730527 2.32344 2.6757 10.6444
207 2 0.0772621 3.4653 0.65892 12.7486
240 2 0.0204033 7.45256 7.06629 14.5186
241 2 0.0537382 6.32319 6.63553 13.2315
257 3 -0.656151 3.57863 7.12525 15.6604
5 4 1.03612 13.2953 1.87962 9.71636
39 4 0.756679 8.69371 3.45552 9.36725
42 4 0.668867 10.9178 2.91044 11.2311
45 4 1.18837 8.56339 7.16277 10.7728
71 1 -0.0868768 9.00108 1.98284 8.31424
72 1 -0.148699 9.45192 3.75556 14.2927
73 1 -0.139414 12.0522 4.00144 12.2462
123 3 -0.628822 13.5366 0.562601 8.80593
129 3 -0.705396 8.45903 1.80277 16.3434
131 3 -0.677197 11.7606 1.88448 10.291
132 3 -0.681846 9.83711 3.7624 10.4369
161 2 0.0782772 8.70221 4.84347 8.37273
163 2 0.0441589 10.0851 1.82647 12.2402
165 2 0.00412444 8.39513 5.84799 11.8597
226 2 0.0998717 8.9965 1.11757 8.96772