LAMMPS data file via write_data, version 2 Aug 2023, timestep = 60000, units = real

295 atoms
4 atom types

0 15.1447 xlo xhi
0 13.6088 ylo yhi
0 16.498 zlo zhi
-7.6974 -0.6366 0.5805 xy xz yz

Masses

1 12.0107
2 1.00794
3 15.9994
4 28.0855

Atoms # full

1 1 4 1.281317112976137 -5.895206195005013 12.928789882870246 1.5810258500892764 0 -1 0
10 1 4 1.338908357957884 -2.1770131737697085 6.369907930932624 5.658674015736744 0 0 0
12 1 4 1.103756046745299 -3.798695077352474 8.93298557598196 2.338171371873293 0 0 0
15 1 4 1.48026530559493 -3.4363632175910457 8.636278475024 7.3344474550662655 0 0 0
16 1 4 1.443593836112107 -4.59170409107588 11.16856069362949 5.997020253240618 0 0 0
31 1 4 1.214462377483702 -2.0775193044366795 11.17498731666867 4.08664768861686 0 0 0
66 1 1 -0.6215658404464292 -2.2988082228852473 12.326449532149423 2.651282180669582 0 0 0
85 1 3 -0.8291036043500787 -1.7111908492471886 5.390045793968867 6.785202944584056 0 0 0
88 1 3 -0.8232450060670121 -3.757359847851282 10.014977852414619 1.1086016630035385 0 0 0
90 1 3 -0.8277394813624981 -2.7282371711010995 7.776205224126803 6.1079606407736415 0 0 0
92 1 3 -0.8005008114230265 -4.477931199642624 9.600640891867682 6.579547186859644 0 0 0
93 1 3 -0.8656102991596932 -4.889176163055249 12.11694637013548 7.268321193135475 0 0 0
113 1 3 -0.7101811337815119 -2.7024029954620272 9.646987059174425 3.4903612512598046 0 0 0
114 1 3 -0.8182946071802287 -3.286309311269776 11.729739380705212 5.135613400082282 0 0 0
57 1 1 -0.6650857645743299 -2.875272011731625 7.1415192205713165 1.9414260330540802 0 0 0
213 1 2 0.1579810676905876 -1.3661992675964487 13.133246064626642 2.5629021012449487 0 0 0
81 1 3 -0.7363547655476967 -1.320066358661597 3.7119120513460153 2.646614705026761 0 0 0
212 1 2 0.2162863020247922 -2.13254518143911 11.552879499870073 1.7843945862133328 0 0 0
280 10 3 -0.6943760659096566 -4.446051432562689 12.612351756455597 0.6174898567526662 0 0 0
91 1 3 -0.7765247364291266 -5.909256407240914 10.96184058009166 4.754587658621704 0 0 0
288 18 2 0.1357262662974923 11.430659445219861 6.398852649336414 1.9853392957025062 -1 0 1
87 1 3 -0.7833027769317202 8.333015960257017 11.843494844525262 2.1887594640391472 -1 0 0
103 1 3 -0.7981300897549928 -0.9876295848468637 6.357955408777156 4.320391189185885 0 0 0
216 1 2 0.02774798476669314 -0.642684309732829 11.739446206867973 6.584035608276653 0 0 0
116 1 3 -0.7537526561990546 -0.34158197408219504 11.317346754957201 4.229364519670102 0 0 0
4 1 4 1.296103827058518 -5.22260812864696 13.625065256147863 7.52703372731088 0 0 0
289 19 2 0.2543986476459782 -2.0953229058983687 7.005303529701709 2.799149629583512 0 0 1
189 1 2 0.1650672528752537 -2.474415933742804 7.115202008957293 0.9395901463356925 0 0 0
214 1 2 0.2177018533874934 -3.344629442267822 12.841298824903438 2.7383341537959422 0 0 0
220 1 2 0.1614177107973908 0.040052007890797395 10.920016542252066 0.515072148585737 0 0 1
2 1 4 1.311019182664808 -1.2488440093229598 2.1984326594165653 3.6594497904879755 0 0 0
164 1 2 0.09433901206860956 12.510288292216899 4.265924810798013 1.9588496706861929 0 0 0
239 1 2 0.1691764320539533 7.2728912285560074 7.907163167662755 7.700112780138853 0 0 0
262 4 1 -0.6423878446518436 13.920350090632155 0.6787251215905441 2.4371958440249455 0 0 0
183 1 2 0.154117107824654 10.690350900009934 5.4733563772331975 5.762581047997294 -1 0 0
74 1 1 -0.6703042902806349 10.014463783197225 4.56857822924455 0.04309554081999296 0 0 0
19 1 4 1.380661862220869 6.6596392815588 2.7749030045958927 0.029554751752065907 0 0 1
162 1 2 0.005983856337677682 11.935631565365474 3.923077412476621 5.447387520306937 0 0 0
282 12 2 0.2443021851570783 12.894104532114655 1.0616387671710026 1.7958978551550304 0 1 0
8 1 4 1.340012937999336 -0.49553661205074134 4.2801482349160835 7.537566568911514 0 0 0
78 1 3 -0.7685109802617549 0.9474884703358468 0.4326801969235488 0.5094875750990923 0 0 0
170 1 2 0.215814413136198 -4.713225466565337 12.779389285568476 3.9135622556294574 0 -1 0
7 1 4 1.233828409388875 0.24309617910388207 4.474070183527111 1.765721480259053 0 0 0
292 22 2 0.193071759109968 -1.407193764236105 13.274493680673071 7.17966018906854 0 -1 0
252 2 2 0.1431320046365056 6.654404301402641 7.050092321424322 2.0241693430036567 0 0 0
171 1 2 0.1999431578549977 1.5939552856732755 0.5285461572168733 3.5278127747609305 0 0 0
251 2 2 0.1905345381336704 4.800203153405498 5.8921162217526755 3.03163340261785 0 0 0
172 1 2 0.1786225569421949 3.4698364677232423 0.7780385683131391 3.025092417442165 0 0 0
133 1 3 -0.7764807514490102 10.034096087536282 3.2078606633428928 2.5985609437463686 0 0 0
50 1 1 -0.6688200823723588 -5.107504656605286 13.677790781306937 3.112425455043058 0 -1 0
79 1 3 -0.7784890863698342 0.1993972574358818 2.1440484236659416 4.348415598661221 0 0 0
6 1 4 1.219416598661066 1.3310494128638017 2.3450215153462777 5.635521612480567 0 0 0
25 1 4 1.459435942939246 0.5835100514014135 6.583946447282171 3.833393545517627 0 0 0
26 1 4 1.38664029168206 4.994956919877052 5.100207119557413 6.914758085072083 0 0 0
27 1 4 1.02501932019562 2.9839772505076425 7.173972165132457 5.869621179624523 0 0 0
30 1 4 1.175482986055177 1.7500492354869994 8.252592472017307 1.4635588248322877 0 0 0
33 1 4 0.9469523262857972 1.3384870626134417 11.026353812641633 4.746071897356223 0 0 0
46 1 4 0.8717916768866363 3.6276570965437553 9.8243507435411 2.684346135653057 0 0 0
51 1 1 -0.665341048674098 2.851054562054909 3.109576907331319 4.896546081663754 0 0 0
65 1 1 -0.6662004465545346 2.7883661472458656 9.097621939242215 6.837385080125918 0 0 0
68 1 1 -0.6853947206851488 1.7090749767763893 12.298058939581866 6.056504099776683 0 0 0
80 1 3 -0.783538970532877 1.6280538533244797 0.6737715505094557 6.393902850301417 0 0 0
84 1 3 -0.7842036291431967 0.1906977287010489 3.3168731697257674 6.592029267865322 0 0 0
102 1 3 -0.7386479485902495 1.3025190606231472 5.134031328769418 2.8974649806494925 0 0 0
105 1 3 -0.7730659000649307 6.049675541535423 4.084848952479849 6.2249382157621795 0 0 0
106 1 3 -0.82365470543968 1.6303343081961006 6.8266158282910965 4.955309639851505 0 0 0
107 1 3 -0.8319075915096329 4.162824838540014 6.204072863762447 5.866359774627454 0 0 0
111 1 3 -0.8037990892864635 0.7868175172689114 7.721247325307892 2.6399843995213876 0 0 0
139 1 3 -0.7776051443704285 3.513175231515001 8.464705777933894 2.0400364222763683 0 0 0
140 1 3 -0.8047045585467024 2.472801365221558 10.569669888030791 3.6859885997890744 0 0 0
151 1 2 0.03998329738847878 3.490067156109826 8.883332738756254 5.198066245330964 0 0 0
155 1 2 0.0008141818068559004 0.999985621987742 9.6733254850051 0.7282690165727301 0 0 0
157 1 2 0.03411977681385522 1.4147682173505836 9.454610463108349 5.431804503873633 0 0 0
166 1 2 0.003704323026794496 3.861585783465147 11.194501108255956 1.6469590803828633 0 0 0
167 1 2 -0.0199345693679831 5.262509137635557 10.182469116490442 3.052838163930551 0 0 0
173 1 2 0.1952970844381093 3.648062986474511 2.33705419968054 5.255501393782164 0 0 0
174 1 2 0.2518198155658505 3.0039276209610386 4.022684407843679 5.5516275266547614 0 0 0
175 1 2 0.2172725996766947 2.766057724757809 3.2804314207342573 3.719132703803455 0 0 0
211 1 2 0.03248068574258355 2.477818937466642 7.561835910844023 7.677775801039358 0 0 0
217 1 2 0.1971615147166282 2.8466244738730193 12.262292362787269 5.946652706568112 0 0 0
219 1 2 0.2086211100445665 1.2481571402442024 13.206891964032154 5.734810131453873 0 0 0
247 2 1 -0.6511089528392653 4.419661850335759 5.088728576116097 2.3176882032399484 0 0 0
249 2 2 0.1933950670270822 4.683778572376315 4.116155295377249 2.76213093727288 0 0 0
250 2 2 0.2390202176884042 3.327234801995118 5.121665647652049 2.1089784662703503 0 0 0
273 7 2 0.1486719399846527 5.3508157526237445 11.716696246112628 3.7566530194065906 0 0 0
274 8 1 -0.6448095793555442 7.108656298567988 1.7677017389461551 1.7498072091383732 0 0 0
218 1 2 0.157046960103009 1.4173771035119207 11.749024422059914 7.024171156041291 0 0 0
271 7 2 0.1676349800490476 5.56773807161833 10.771070622691294 5.40277543077528 0 0 0
270 7 1 -0.6625157282096996 5.984808593396885 11.275098217883654 4.542784564165834 0 0 0
38 1 4 1.252770264180216 5.235166601034177 13.42306522408309 7.115960425694786 0 0 0
160 1 2 0.02313998163890331 5.946106348014686 12.719895205588418 5.792144531385095 0 0 0
104 1 3 -0.7597601682543141 3.7837773695320656 3.829189702828068 7.527745105147173 0 0 0
272 7 2 0.009280886583247338 6.831828444207185 9.682738751506761 4.000887561351654 0 0 0
82 1 3 -0.8033047688541118 0.8103148768310757 3.2368650639340366 0.9630080660852118 0 0 0
277 8 2 0.1860669611571572 6.760369664921212 2.183472028889283 2.6748675553609376 0 0 0
246 2 4 1.07077467605919 5.390736527608314 5.660629175280856 0.6472919489567276 0 0 0
159 1 2 0.1557929874189147 5.17191947036916 12.37772450215159 0.6930609015731656 0 -1 0
141 1 3 -0.8193842497928715 4.51255852304005 12.216531904012344 7.79282436712575 0 0 0
276 8 2 0.1598639818236555 6.902797313005949 0.6003089198624046 1.7973213309974196 0 0 0
279 9 2 0.06744936586930229 2.7984666088739627 12.76145192553999 0.9709163960581768 0 0 1
235 1 2 0.2035690003342285 9.093957291255455 4.854920293467902 0.6106452302532807 0 0 0
248 2 1 -0.6585694906543906 6.4576748565397 7.143799400151311 0.9027605238194326 0 0 0
204 1 2 0.1586008201819517 6.393215798274018 6.797780410385654 5.291228021517339 0 0 0
253 2 2 0.1665648260524805 5.950730783032195 8.227983569656283 0.6649259398612802 0 0 0
125 1 3 -0.8433998284559728 12.616515004656215 1.8482318180707602 4.441491997919872 0 0 0
149 1 2 0.07101029710450465 7.421836775744072 12.390864953680671 5.011410756278644 -1 0 0
283 13 2 0.1560503638337734 5.9748486071276545 13.441187688084565 3.38878695837188 0 0 0
96 1 3 -0.8245860266602023 3.530110917458747 1.0766566419921533 7.936962382947882 0 0 0
40 1 4 1.225650729948585 11.586901070712704 2.2742590249019554 5.621022824819944 0 0 0
52 1 1 -0.6704607833746576 -0.6727517230136281 5.378493018554133 0.3961832095140707 0 0 0
127 1 3 -0.7659491111375618 11.919747379329575 1.1134774404669685 6.710706561616614 0 0 0
286 16 2 0.1703157219040496 11.587980869902204 4.982628554054391 4.055467977832952 0 0 0
227 1 2 0.2079242988726453 8.425566780525966 0.7614208201601133 7.590872973872456 0 0 0
122 1 3 -0.8444584341001263 8.121721513876691 3.6640313403234805 4.543181936990884 0 0 0
263 4 2 0.2568090330138053 14.74971709442779 0.5625183733591564 1.742958139391131 0 0 0
200 1 2 0.1476204629855803 8.29627511340189 4.792703214481484 7.896219465694653 0 0 0
287 17 2 0.1390571670032813 9.087274715002435 8.612395559291027 2.5669216371543584 0 0 0
275 8 2 0.1664417929978468 8.288222248588458 2.089195084705748 1.5304472411493515 0 0 0
254 2 2 0.1840029374266957 7.367217355070338 7.03144100029679 0.2905023499726714 0 0 0
188 1 2 0.2455609181077499 -5.09236755470256 8.948671066411398 4.320617275581533 0 0 0
205 1 2 0.144955718014477 7.9348499234411 6.365967852190547 3.9820604946064906 0 0 0
43 1 4 0.8659299000215428 11.114469054549701 3.575361836071256 1.2294955918802102 0 0 0
62 1 1 -0.6807941174475736 8.996781893993502 5.18083403287388 7.05339431584814 0 0 0
123 1 3 -0.7924132255961565 14.122893289986056 0.4401818533986358 8.059754411399917 0 0 0
203 1 2 0.1746616275431277 8.202914298394342 7.176550048961942 5.7239391944503515 0 0 0
187 1 2 0.1461963800217485 9.622505393594773 7.193650610482065 3.620134504447827 -1 0 0
13 1 4 0.903878456538781 7.90540236070461 11.072670523816965 3.8335501882428087 -1 0 0
56 1 1 -0.6842976147670217 9.920012193357648 8.293616572407126 3.3393634503149316 -1 0 0
126 1 3 -0.7982449620131378 10.056209336280292 2.123657861304211 5.141254464202224 0 0 0
21 1 4 1.108797764605705 7.5270962177264105 4.613179464911685 5.612311200031963 0 0 0
158 1 2 0.02159437082014504 8.308997985857557 1.3200600958291215 3.2825802705999307 0 0 0
36 1 4 1.226657086411178 9.176256156245032 2.775985093687599 3.9012523724678823 0 0 0
134 1 3 -0.7688843149282734 11.695570415268998 1.7840761549502655 0.8271443207599396 0 0 0
201 1 2 0.1570425430027543 9.28589986213562 6.291909673474772 6.91960776675439 0 0 0
202 1 2 0.1386034778366414 9.708564253129547 4.398216517356903 6.619011512444573 0 0 0
63 1 1 -0.6635197142603496 7.575517754717526 6.509193525617557 5.138214173835367 0 0 0
54 1 1 -0.6668684473403884 11.353121566495773 5.718959789270603 4.8617074919577075 -1 0 0
182 1 2 0.1749763051171521 10.891843437789216 6.7392554787626455 4.218183725258226 -1 0 0
209 1 2 0.1541800912139326 2.1715177635527865 9.901647543274075 7.161189931243836 0 0 0
101 1 3 -0.7990729124903498 6.389886728816309 4.217168599497668 0.3655793848265278 0 0 1
177 1 2 0.1840772611781183 -0.8933851695090355 6.49826090719595 0.6718251729729957 0 0 0
161 1 2 0.04230403375596213 8.608993810234535 2.6453134120718387 7.868039446274768 0 0 0
179 1 2 0.1628352012626133 0.7723572808233926 6.415852974394706 7.564955006841032 0 0 0
67 1 1 -0.6614987527806531 -1.8627694213802364 12.439874590242976 7.84163415469954 0 0 0
215 1 2 0.2584808892027293 -2.9382628969737814 12.212371855489065 7.783245867980579 0 0 0
112 1 3 -0.8237149835932834 1.6685479442630842 7.348096048455227 0.2318904454939512 0 0 0
278 9 1 -0.6330877408299908 4.176847203098553 12.363038200554774 0.11920107871526385 0 0 1
238 1 2 0.1702691512102535 5.846626663570962 9.019865399932186 7.786763032227569 0 0 0
32 1 4 1.036878479704106 -1.0270679657999864 10.766321940104852 8.08222381510455 0 0 0
178 1 2 0.1294934285728757 -1.7173261224967273 4.805835168171009 0.338559514893729 0 0 0
291 21 2 0.1654160177586639 7.589739554257014 9.746460366222278 0.5397496044747566 0 0 0
210 1 2 0.1447132754728392 3.8236862753125482 9.42566782691823 6.852056410079582 0 0 0
234 1 2 0.1153994592301773 10.840830465819824 5.4315482559911565 0.014802873924591836 0 0 0
11 1 4 1.02584244873934 -2.134264427748517 6.144695059991876 11.537778882909796 0 0 0
17 1 4 1.074032167317069 -3.0007607585919276 8.919352805299077 13.092046179660457 0 0 0
34 1 4 1.263596468359136 -1.7516263965439811 11.668902167101317 14.731409537714617 0 0 0
58 1 1 -0.6628713531062497 -3.9163709072128343 8.198207219581459 14.380894044703057 0 0 0
59 1 1 -0.6406255588108782 -3.842595216669314 10.170979049003085 11.762335630926412 0 0 0
94 1 3 -0.7173741526294334 -1.9345401958396258 7.622080990343827 12.228241934122247 0 0 0
95 1 3 -0.7927809890740818 -5.840960557518103 11.468953894657757 15.519045840138881 0 0 0
117 1 3 -0.7028482226760485 -2.1934664955155463 10.041863461248745 13.940718344152797 0 0 0
118 1 3 -0.8213130701459431 -1.6316795870669618 12.678895151638937 13.41038974474661 0 0 0
119 1 3 -0.8018891769906762 -2.899833876101193 11.945936205490097 15.806673635954317 0 0 0
55 1 1 -0.6477495705025048 -1.3207003676766844 4.332143149418014 12.111840747416482 0 0 0
226 1 2 0.2069400775635663 1.5962329075041244 13.909874105772655 9.216808448447543 0 -1 0
194 1 2 0.205998175001143 -2.823810587057068 10.621515823256772 11.413846546420908 0 0 0
228 1 2 0.2127413961032812 7.249811044461089 0.6164028800682937 8.8937216217278 0 0 0
257 3 3 -0.7727811736065188 3.5658022270123784 6.666618449251577 16.02365133239194 0 0 0
193 1 2 0.214740677555831 -4.310563877756417 9.515275848868967 11.01307136549102 0 0 0
89 1 3 -0.8469367833544867 -4.020014806166275 7.8277257667442885 8.527956616607344 0 0 0
264 5 1 -0.6769116312307625 -0.7465255963036697 2.929734904620583 14.980435346039616 0 0 0
135 1 3 -0.8497368113729257 5.2550449256467 5.943150521475977 8.310569297848016 0 0 0
83 1 3 -0.8031663888037189 -0.8285575548594288 3.2581953778524966 8.68862182141745 0 0 0
156 1 2 0.1773447190004629 -1.4605216192274026 12.750759464173164 9.061978165692882 0 0 0
192 1 2 0.1761814112832851 -4.523091724909077 10.982397160590995 11.989388524461686 0 0 0
86 1 3 -0.7856340120197821 -3.2215226958732948 6.042124632557142 10.44793064578844 0 0 0
222 1 2 0.1516446735324948 0.20617417471877764 10.685146938153208 15.446490079933845 0 0 0
147 1 2 0.0456963366639833 -6.425743568701135 13.712963478349435 8.77998480316286 0 0 0
190 1 2 0.210827441881016 10.145840341413418 8.291251283208283 13.858221579800901 -1 0 0
184 1 2 0.1833086554711394 -0.7714683893279921 3.8946815189486776 12.940265606482981 0 0 0
22 1 4 1.505052397655545 -0.7999238701877491 13.499103665060623 12.406405339545465 0 -1 0
185 1 2 0.04921676397313732 -0.40104852885811476 5.532673328954335 11.14764806156337 0 0 0
207 1 2 0.1960942491736543 4.1411725066579415 1.6478662006967872 12.698222976981029 0 0 0
208 1 2 0.1814669875814505 2.7324755428464864 0.8301074471451064 13.734160704576912 0 0 0
290 20 2 0.1984674144075946 -4.05860483049834 8.624539778470258 15.366010051109178 1 0 0
284 14 2 0.1552470505177753 -0.22152513371727256 2.2113328148863056 14.223029707688301 1 0 0
237 1 2 0.2160901654076765 6.992654579368563 9.064379471863846 9.104217589894276 0 0 0
206 1 2 0.2394551584132274 4.575387845905637 0.8051719050727782 14.262816777280726 0 0 0
244 1 2 0.1529968664278284 6.3964538897050645 12.993224149829436 13.510349190024405 0 0 0
71 1 1 -0.6798631899921654 8.318470849122674 0.9436790206179717 8.597190202389614 0 0 0
60 1 1 -0.6521603634383569 6.608806277631729 10.889494138482169 16.052363917609515 0 0 0
198 1 2 0.2063231414476803 2.5553774284346846 3.6266752077404782 10.290309996828071 0 0 0
120 1 3 -0.8011824940769636 0.2213359273894724 10.828849140635652 9.060348899562806 0 0 0
168 1 2 0.0230522435484449 3.1802739083560345 10.046725628109984 8.461235680872651 0 0 0
245 1 2 0.1735592712798741 5.346366058729204 13.083782235800978 11.917322642612962 0 0 0
261 3 2 0.01411391611034879 1.0568172548222783 5.345441528002661 15.260908541627424 0 0 0
196 1 2 0.01698668911016127 7.476167197700633 11.68570404570194 13.657865419471301 0 0 0
268 6 2 0.1380102262007559 1.4106188812677798 0.6985798849012723 10.216984907077276 0 0 0
269 6 2 0.1359192164709483 0.05637020546063681 1.8270590218088552 11.194010727151325 0 0 0
197 1 2 0.1891453117790662 1.3313653068720352 2.5036541655284696 9.475874140036034 0 0 0
64 1 1 -0.6314031344018658 3.661543781212074 1.4204520875675197 13.864191368260174 0 0 0
100 1 3 -0.8310841720361678 6.14815440686643 0.7317822272307702 11.37999141042376 0 0 0
169 1 2 0.01695055526106132 4.9640627456044815 11.08239398833124 13.045196886991521 0 0 0
260 3 2 0.1278096431910238 2.3787833674915166 7.6469787915719705 13.779606977487008 0 0 0
259 3 2 0.1701062834933911 0.3513753899942258 7.098491701253853 14.208238273119822 0 0 0
267 6 1 -0.62773978386392 0.23009330579869552 0.9096141149319994 10.345080821531832 0 0 0
37 1 4 1.002794155568626 10.63660101536775 1.2193278932990577 16.319923193083962 0 0 -1
23 1 4 1.278320034056152 3.2839422643267 2.933120981228775 14.772395549804203 0 0 0
24 1 4 1.455743728373094 5.976019237493464 2.2838623407611762 10.667711621626518 0 0 0
28 1 4 1.227230973919323 4.219863800269422 4.663878408853142 12.327959818275641 0 0 0
29 1 4 0.8981082851100763 3.0758749924212134 7.052511615635815 10.631940894707625 0 0 0
35 1 4 1.24462956803225 1.0774840907916676 11.492846191137536 10.459255201494994 0 0 0
44 1 4 1.317791047335846 5.725540383716259 7.031270717665158 9.364136007384845 0 0 0
47 1 4 1.242211957143821 3.8994124160594703 11.466699765764492 9.170622854170173 0 0 0
49 1 4 1.022317981660749 5.856568859146652 10.712742450051206 11.405382455242025 0 0 0
61 1 1 -0.6816657805874137 2.440048601403606 2.585895595243156 9.917768463391969 0 0 0
70 1 1 -0.649079804333981 1.7743101167414028 10.128016967623315 11.59821400335969 0 0 0
76 1 1 -0.6764336221343217 5.722534680106376 7.528890752422544 13.694316231985544 0 0 0
97 1 3 -0.7391679966002593 4.728145852521329 2.771544729369716 15.961894344079491 0 0 0
98 1 3 -0.7995003137508515 1.9035966754499205 2.66554486367224 15.60537763419487 0 0 0
99 1 3 -0.7864913779744691 5.39197013719891 2.173046980076215 9.220388000157062 0 0 0
108 1 3 -0.8069545484386549 3.328988672465261 4.085072604679185 13.547924836367324 0 0 0
109 1 3 -0.8179065639379497 4.888887387419004 3.4597478442758174 11.614739156280475 0 0 0
110 1 3 -0.8233301351293907 3.269385117367797 5.70628751897304 11.419241312499034 0 0 0
121 1 3 -0.8034015038535168 0.16981174171907853 12.364350584389406 11.382094591032928 0 0 0
136 1 3 -0.7816480172767429 4.374040266491128 7.905058175234664 10.125399814610946 0 0 0
142 1 3 -0.8078019274031758 2.590828819244293 12.113465473507606 9.8570103733377 0 0 0
145 1 3 -0.8451187829759711 5.0450093986051 11.050083078505404 10.137343773521845 0 0 0
152 1 2 0.0004929904276007296 5.252798059798363 5.660361254800818 13.21240033926544 0 0 0
153 1 2 0.006206187065549373 2.038643843788991 8.172547439238528 11.458906342646458 0 0 0
154 1 2 -0.0226633779116109 1.9091008140979058 6.723664788607342 9.39931978342891 0 0 0
223 1 2 0.1630387843233469 0.7942270812331642 9.399836778075445 11.31490307463267 0 0 0
224 1 2 0.1582769806548674 1.8770453135424887 10.483182706828858 12.697166678993495 0 0 0
225 1 2 0.1471849712146613 2.8017050901093974 9.934297281142069 10.959986213844111 0 0 0
255 3 4 0.9791967270099771 1.9458240325699743 6.819658355764213 15.820513554344473 0 0 0
256 3 1 -0.6465870397499308 1.4436174515683105 6.695118563641086 13.972296334322749 0 0 0
258 3 2 0.227999546094096 1.7249010752967733 5.674715765393041 13.593941741211525 0 0 0
146 1 3 -0.7863318249569072 6.71486968015464 9.366367940812141 11.830645533604219 0 0 0
241 1 2 0.1740504385166123 5.123791797117943 7.409969621130344 12.790804033823354 0 0 0
181 1 2 0.1482709030873941 0.17427568124774068 5.817971621232211 9.377084395734428 0 0 0
240 1 2 0.1886772609532131 5.514152549691873 6.664938954015975 14.39703086703422 0 0 0
132 1 3 -0.8335715667833141 10.283706865295812 2.7460163548385053 10.1780861889767 0 0 0
281 11 2 0.007085781176261673 10.417491569203015 5.116653505129707 8.350417821779722 0 0 0
293 23 2 0.02281411728811325 12.03200659097525 0.5708360092009188 15.444151141255034 0 0 0
77 1 1 -0.6364555027326814 6.070155302190619 12.463492068786609 12.544079198681859 0 0 0
53 1 1 -0.6682592660561728 0.6313070384896496 5.57501682707381 8.344079801214843 0 0 0
9 1 4 1.294626958016998 10.719689959494316 6.593445733736085 9.364022834676655 -1 0 0
242 1 2 0.1560573513503086 5.341937113883482 8.376068720242396 14.404259658757148 0 0 0
45 1 4 1.285046159789764 8.374136662041023 6.39553291202788 11.117521775627347 0 0 0
130 1 3 -0.8126566086703362 7.241802956650377 2.941050678673777 15.454597576497179 0 0 0
295 25 2 0.2065207267745573 3.7978636810230877 13.492015830780948 11.384983965875266 -1 -1 0
221 1 2 0.1843396839409075 0.4419319991990601 12.509752367204534 15.659822819016018 0 0 0
199 1 2 0.1614253587622323 2.5585996208626796 1.8051535616085945 10.7624468815321 0 0 0
265 5 2 0.1602681287768321 -0.8739438463464874 4.005290544136074 14.775087053374463 0 0 0
294 24 2 0.1507696864905822 3.4260438495196883 12.042323300092326 15.918200023657509 0 0 -1
20 1 4 1.308369447569327 3.8395474388442468 2.5242112769416667 8.573057587553325 0 0 0
186 1 2 0.1904171829728065 -1.4219652549555866 3.66986553098615 11.265195162757681 0 0 0
285 15 2 0.1661879699703478 7.150748869401468 13.550092905865728 10.87894908303635 0 -1 0
191 1 2 0.139932814592553 -3.4579534788111888 7.1048346979656944 14.614432284765217 0 0 0
150 1 2 0.1226981326146269 5.723560586897508 10.302201128022109 15.405659497716881 0 0 0
148 1 2 0.03335875056533626 -2.7507817201787543 4.92753947447819 12.90947115240922 0 0 0
18 1 4 1.064887348879303 8.063822830125229 10.71927626865009 15.000068243074502 0 0 0
231 1 2 0.1627452120305031 8.459271446657159 4.758776832839743 13.480373759131766 0 0 0
230 1 2 0.1331030699471307 9.924384559343316 3.634399716245511 13.468407773621825 0 0 0
236 1 2 0.1947568684444425 9.149713498906852 4.67152246222475 15.577242994522956 0 0 -1
69 1 1 -0.6774548819393198 -0.1806342078285983 11.634836385312298 15.888239388517235 0 0 0
165 1 2 0.01673014846926863 8.646681099121636 4.800808664830411 11.674806962347766 0 0 0
163 1 2 0.1540178238458272 10.997735482415173 0.9498985833486094 13.002611517164542 0 0 0
131 1 3 -0.7575368465690825 12.608524975790822 1.6507859289776987 10.288092249017708 0 0 0
128 1 3 -0.7890770261146104 7.638959426335588 1.1346220933156363 13.342164236116544 0 0 0
138 1 3 -0.8263610336703963 6.978297763001648 6.573088013899277 10.276123506920095 0 0 0
73 1 1 -0.656468893543933 10.793456804919472 0.6919804487956549 11.962781393176876 0 0 0
233 1 2 0.2012253670734825 1.9431743548444367 13.895268613026076 11.902750021722229 0 -1 0
229 1 2 0.211840914709665 8.469382357563967 3.3517900063884927 12.180523844983654 0 0 0
39 1 4 1.007178123029499 8.805900409885075 2.4674749065169874 9.672626826456591 0 0 0
41 1 4 1.295196715712305 8.231038357260546 2.278405278903078 14.393540470706071 0 0 0
266 5 2 0.1605146256317016 -1.6966085388484957 2.518099816510228 15.275114546455129 0 0 0
42 1 4 1.044057451022813 11.392889625959915 2.230967077468029 11.14885751336488 0 0 0
72 1 1 -0.6914758344819113 8.823273299840752 3.6519793948017973 13.276010308669717 0 0 0
143 1 3 -0.7931201232137074 8.414723414008954 7.129617678233929 12.550903137167023 0 0 0
137 1 3 -0.8632936069301733 9.571458705340937 6.763776530033756 10.3268030261834 0 0 0
243 1 2 0.06128678144708277 7.208802978952611 12.03986056967711 11.573359767201225 0 0 0
5 1 4 1.2528342229227 14.02103661198677 1.606849325130308 9.175933288443073 0 0 0
232 1 2 -0.005129886113130271 12.213685938449462 3.4005922899397234 12.219844276022986 0 0 0
129 1 3 -0.7951996958000146 9.610716106052301 1.5223007369357275 15.157668161909465 0 0 0
124 1 3 -0.8307418086095143 7.395245613130035 2.9687564493471172 10.532290787245039 0 0 0
144 1 3 -0.8012028391875623 7.972737677425281 9.227998966324998 14.37594220773952 0 0 0
48 1 4 1.229746767854686 7.323611643381499 8.361819667582049 13.077492081909146 0 0 0
180 1 2 0.1652218541396011 1.6684444099055376 5.211875124609554 8.659465240358085 0 0 0
176 1 2 0.1581084054749093 -0.5322777829752153 5.868264097762175 16.1128382189049 0 0 -1
195 1 2 0.1842998563241457 6.245217892120733 11.904863332321495 16.45202978399346 0 0 0
3 1 4 1.303770076731762 0.5091858965795345 2.5613218323462537 16.35966694999276 0 0 -1
75 1 1 -0.6614078791806345 6.497366322825209 8.397894741759487 8.371559853896375 0 0 0
115 1 3 -0.7422078180579227 -2.0635698915501335 9.604716136774128 8.253560350568346 0 0 0
14 1 4 1.447543612280134 -4.429701450925132 11.711033101168784 16.474983361630798 0 0 0

Velocities

1 -0.003821457906843843 0.0018593491387439616 -0.0033379433874164855
10 -0.007564420843738803 0.002696311090725764 -0.0016760743247241918
12 0.004575301006797269 0.0025082635230058137 0.0020605841503379147
15 -0.006231064906280361 0.012310554984290886 -0.003491876943218907
16 0.0007799265328592396 -0.0029794624229850988 0.0034113702578853406
31 -0.004369937677735297 0.004794109262877112 -0.0023538889764779247
66 0.01321602220342792 -0.00360487543481366 -0.008981527371249408
85 0.006612061130757747 -0.0006409425550043965 -0.004584012635009499
88 0.006866023740351603 -0.0047630242300277445 0.003748260969387932
90 0.00034656210600243894 0.0006386837640692968 0.0044664564118819215
92 -0.0053978712655093995 0.0017977870748349808 -0.0029151506552993365
93 0.008997963588105338 0.00565924654321807 0.0046506511508498756
113 -0.002969325683361071 0.0015281678193908542 -0.007352611572254855
114 -0.000537187107903582 -0.005599225070151346 0.0030034257698672933
57 0.008342179149541988 -0.002876357156403465 0.003991746228509483
213 -0.01712433235906604 -0.04046862901388654 0.008758731988697463
81 0.010790188264572745 -0.0036442621679440845 0.0053986592632946405
212 0.033069756480361284 0.027980394808805004 -0.02469303974961477
280 -0.008624184012542946 -0.00466541857871597 -0.002933314910297133
91 0.006983061084245365 -0.0046283877616356195 0.0053264643595847426
288 -0.008170129409262074 -0.0316572333209355 -0.005912158527055508
87 -0.017447174475235076 0.005663137639517513 0.005561623203405726
103 0.0026448556388581185 0.00428346074486705 -0.0007309674801729242
216 0.02797613956014541 -0.058567590988150856 -0.003474063894530383
116 -0.004793636096251897 0.014087050265892598 0.010046739876689699
4 -0.0023205633002328393 0.007450880595445297 0.005087847839274953
289 -0.0016001244909900928 0.03415772847046805 0.006895976968453803
189 0.0071545181972022575 0.03869353858312385 0.0205260945925585
214 -0.024148684722657326 0.02827484063917026 0.01966849420918685
220 -0.008771345732927436 -0.0043521485495389214 0.025971771886610567
2 0.0016975557243177801 0.0038968324743467926 -0.006881572830567104
164 0.012452668365588225 -0.013118655024537913 0.0006495982735898147
239 -0.008800778257303783 -0.004010470860582591 0.0049216480495246516
262 0.013123787725976721 -0.009044192024636351 -0.00564752638685573
183 0.01944321299592699 -0.007900310931040065 -0.022540779318040945
74 -0.0030462763469856664 -0.0006999579113090242 -0.013489900624365225
19 0.004583004071035555 0.012028688730770837 0.0046862159217531995
162 -0.010186979002494377 0.018121299820371722 -0.007375485901916191
282 0.00724229663804345 0.05651033137012676 0.0059807325539172765
8 0.00024164229246336773 0.006494050449302069 0.006496912407370314
78 0.004580416064495887 0.009512819995552474 -0.008838463539916469
170 0.0054020770627013544 0.0004904937536323591 -0.03079875266256384
7 0.004785804360043621 0.004400226973984428 -0.006842170114229212
292 -0.04777982939525213 -0.0034683480418472397 0.028022651508064333
252 -0.03728794206539154 -0.03168521190299889 0.013946245078322043
171 -0.0032171840899622287 0.011239669842150966 0.0014332316540637245
251 -0.0010894297835296037 0.009826028593364521 0.01973962831983882
172 -0.004425996776024394 0.01739119356113828 0.019784358458933685
133 0.006557640438559576 -0.003867718949529115 0.0010994199642297515
50 -0.012525023745965995 -0.0006049689530425808 0.0020127152770157003
79 -0.004911672822465366 -0.008312054143091312 -0.00479959336244035
6 0.002777224127203623 0.008380710856745566 -0.001407934385619996