LAMMPS data file via write_data, version 2 Aug 2023, timestep = 60000, units = real

350 atoms
4 atom types

0 15.6782 xlo xhi
0 14.2194 ylo yhi
0 17.6383 zlo zhi
-7.0409 -1.0144 0.675 xy xz yz

Masses

1 12.0107
2 1.00794
3 15.9994
4 28.0855

Atoms # full

15 2 4 1.321858401997803 -1.020214655589184 7.523693859327137 6.2513553781013425 0 0 0
19 2 4 1.484520141698861 -3.091422115482251 9.706594284592635 8.086063816950231 0 0 0
20 2 4 1.292325475665888 -3.9357128488485236 11.90107940547121 6.37999215303836 0 0 0
86 2 1 -0.6912856426641065 -4.766944336298642 11.988997378939711 1.7121116940460477 0 0 0
97 2 2 0.02674353725257141 -2.0759030844864976 7.2206454835925555 4.8993976676326065 0 0 0
99 2 2 0.1370926380780964 -5.652604153415113 12.67726253674933 1.5345839217538657 0 0 0
100 2 2 0.1050695980823915 -2.471473682662343 12.478702761353016 6.669442456486605 0 0 0
207 2 3 -0.8123603315355582 -1.0130992916924344 2.229190600786455 5.048316530198388 0 0 0
213 2 3 -0.8141392870328314 -0.5680730712428005 6.14927853345982 6.933607155905836 0 0 0
218 2 3 -0.7536666479851961 -2.150342302622029 8.5253308032763 6.851084086029184 0 0 0
219 2 3 -0.7845774582719987 -4.263052727125552 11.744370037445007 4.650958105279149 0 0 0
220 2 3 -0.853154343340318 -3.950233252049676 10.51382952562712 7.076669556887911 0 0 0
221 2 3 -0.8015041250267907 -5.018717605851267 12.782959883837306 7.0489157377937985 0 0 0
306 5 4 0.9921112469113351 -2.701388024741963 7.421851689155786 2.592347764482226 0 0 0
308 5 1 -0.6789714055328281 -2.5016544607507623 8.76957407219841 3.8236838414338763 0 0 0
315 5 3 -0.7965373692492999 -2.8042632619231753 8.023958287746613 1.1071665628343792 0 0 0
18 2 4 1.042759479123214 -5.192778992179789 11.548616703593195 3.42200668232489 0 0 0
185 2 2 0.1688677093829472 -3.792392994481928 12.414713645191128 1.6013637270724932 0 0 0
349 27 2 0.03134955059336904 9.267927313340767 12.554168688370678 3.332766502805948 0 0 0
13 2 4 1.441582462757234 0.3032846618930034 4.93689700211996 7.894764374614186 0 0 0
313 5 2 0.1706430250711889 -3.0319310509126844 9.59008336966281 2.9990456761563964 0 0 0
312 5 2 0.03064304172440934 -0.9933323796708504 7.1547102118832795 2.623564918221834 0 0 0
186 2 2 0.1588969650325742 -4.789357636104541 10.901215694111883 1.1844374200790597 0 0 0
24 2 4 1.243037365650631 -0.24476677876233438 13.464885347822442 7.0760608233919084 0 0 0
210 2 3 -0.7543915510578636 -1.372849104219154 3.9873993776194796 1.1492083768131356 0 0 1
231 2 3 -0.799963840717234 0.17549055454510493 8.08704441729405 5.588154739396042 0 0 0
152 2 2 0.1558155859475326 -0.812246373631524 5.559175539694524 3.6993931307316363 0 0 0
304 4 3 -0.7556846091490611 -0.05826369095797038 1.4575191775708127 2.5047063382786803 0 0 0
299 4 4 1.202366324782689 -0.06334255519187985 2.74320431017657 1.1925014841717732 0 0 0
227 2 3 -0.7573469589914207 -1.4899731297544547 13.894941320986026 6.272072144084289 0 -1 0
311 5 2 0.2017929690826927 -3.229762201099268 8.3754642052838 4.5880240171953925 0 0 0
314 5 3 -0.7910581250076364 12.271081440630391 6.011925336352107 3.2555214947143676 -1 0 0
7 2 4 1.526362626368025 -5.972850882307766 14.09170173895769 7.769636480605921 0 -1 0
154 2 2 0.1585405501390226 0.04428516719356458 9.396248431050987 2.0138591078667654 0 0 0
111 2 2 0.05567833995964707 0.8045582526438992 10.144767297170267 4.87788313530694 0 0 0
309 5 2 0.1812487741050845 -1.4245493740671702 9.101018335417978 4.236933337455315 0 0 0
250 2 3 -0.7944677594729156 -0.8741381630997095 13.174799410303052 8.485156252088112 0 0 0
52 2 4 1.0332438410443 9.779591958975288 5.689110746949713 8.741376505996266 0 0 0
318 6 3 -0.8196855278347435 8.581629542256385 13.347572575679198 8.54735178759943 -1 0 0
3 1 2 0.1953028984244979 12.681280195656901 3.2952337166644976 3.1769471244580427 0 0 0
140 2 2 0.1823225261199564 -3.6419972308458344 14.15893788914301 3.2338461765258564 0 -1 0
235 2 3 -0.7321696911269125 1.4829808088020697 5.749712405205361 8.779219024543677 0 0 0
348 26 2 0.1712320270888282 0.4095855201751614 12.728467817546603 3.352430168695965 0 0 0
8 2 4 0.9206888919745031 -1.7174997067249171 3.0701634944444813 8.572852586089894 1 0 0
59 2 4 0.9189146184977717 7.309279759939429 11.569745295040779 0.3730745099165391 0 0 0
155 2 2 0.1428685580612705 1.0139679928322 9.923767426046874 0.4067145570955212 0 0 0
208 2 3 -0.8569304464310855 0.7384784588292239 1.0415950167132066 6.725457386663467 0 0 0
150 2 2 0.2016940154391833 0.7329155859487234 4.99345131980298 3.833082684074655 0 0 0
253 2 3 -0.8683776926848501 0.3754024940508919 12.135268321229287 6.331010638208177 0 0 0
78 2 1 -0.644600573087258 0.9886432285672511 13.320138865428614 2.590453543833483 0 -1 0
139 2 2 0.2084489218853074 2.077120498146823 0.894770603116009 2.1636751329779007 0 0 0
74 2 1 -0.7141448083116334 0.31738366588401423 5.917805391971929 3.5788850133058965 0 0 0
163 2 2 0.181288989097699 1.550238194560925 12.626284439029916 1.907939298499101 0 -1 0
115 2 2 0.06239107178272071 -0.2478979610022477 13.90004423093268 1.7858093813867109 0 -1 0
151 2 2 0.1945196788411739 0.556193158569897 6.239783522815757 2.4889740551763766 0 0 0
212 2 3 -0.8316934718519445 0.6901007968243351 3.6920588800308893 7.067619815014265 0 0 0
141 2 2 0.1575134623969018 4.002488360388276 1.1034771375920462 1.8700174824145752 0 0 0
233 2 3 -0.744785811333987 4.1968475775708205 2.684661464680695 8.418396985868581 0 0 0
9 2 4 1.45709957878262 0.4583725416694094 2.3655844530723753 5.8409830514630645 0 0 0
23 2 4 1.414567803225176 3.06212025042588 2.2235580093030776 4.023151303030778 0 0 0
26 2 4 1.375297178659347 5.650269291076152 1.4353810918814371 5.403614189954833 0 0 0
30 2 4 1.218487086004551 4.83385544012841 4.564875815219247 2.663170333740011 0 0 0
31 2 4 1.310827757088035 1.4404024694284383 7.1450635330600685 4.446490396737574 0 0 0
32 2 4 1.20553665507465 3.847334980283268 7.055002053308566 0.5125157574243155 0 0 0
33 2 4 1.278457545044548 5.239327623245936 3.584598949990099 7.373256672494704 0 0 0
35 2 4 1.40768996970907 4.159440856573042 6.266196819784987 5.800721179988545 0 0 0
39 2 4 1.358210071506454 2.34949781765452 9.175774785097977 2.363979733199325 0 0 0
40 2 4 1.306699912494699 2.347738990083606 9.93686273906419 8.476640901142922 0 0 0
42 2 4 1.252610250819675 1.584605630287907 11.27844624355816 5.849676263525369 0 0 0
45 2 4 1.182176383292664 5.745330938394222 13.377948706115644 2.3694030630625393 0 0 0
50 2 4 1.23666517936117 6.448733455896839 6.434198642113471 3.9840347877297 0 0 0
58 2 4 1.465061055641527 3.906817373913838 11.564089829697215 3.9631049196106325 0 0 0
62 2 4 1.131573996470807 6.479831474409571 11.697242734797262 5.990883287292785 0 0 0
70 2 1 -0.6563180679422168 3.1483350657807 0.8800951833534192 2.640537899910259 0 0 0
75 2 1 -0.6836806727864803 0.8460561233803312 10.014767058025152 1.5254395402864116 0 0 0
76 2 1 -0.6454169397473357 4.0736610125002715 7.724748899840945 7.0284902018146544 0 0 0
83 2 1 -0.6847019553537336 6.321743654890858 9.344448118642166 2.286867043348862 0 0 0
88 2 1 -0.6818358716122576 5.4914526561806 13.312111199969518 6.3586285450836915 0 0 0
108 2 2 0.01936966705509255 5.5914722449726595 3.5495184854400437 1.4792204917155518 0 0 0
125 2 2 0.1581122559202146 6.232993733395765 10.451160050021164 2.6063223977424443 0 0 0
153 2 2 0.1769491631237722 0.9394144737570519 11.003966585261018 1.9805343611829862 0 0 0
156 2 2 0.1918862229037653 3.0640740737546373 7.363101170231089 7.511659727777888 0 0 0
158 2 2 0.1732556335593713 4.860936352302401 7.885418253220691 7.812327779859984 0 0 0
176 2 2 0.003752983143626701 6.559764995850475 7.45870413640701 2.5865634944197375 0 0 0
177 2 2 0.2050868153026983 5.337853548742156 8.850719722127637 2.5632240260628616 0 0 0
178 2 2 0.1408503202895605 6.459696548879146 9.414411452685497 1.1180727458851125 0 0 0
190 2 2 0.1705900060058576 5.114972753945993 13.33283950149742 7.416513873788055 0 0 0
191 2 2 0.2267921085534499 4.5786044942913 13.164226269418819 5.678110803813354 0 0 0
224 2 3 -0.8092528466563913 1.6197944006524065 2.543924246292782 4.615975306632446 0 0 0
226 2 3 -0.8144250394379161 4.025542060384502 1.6640940144526932 5.125474644705471 0 0 0
230 2 3 -0.844911330774499 3.8240960585232453 3.413955817861068 3.204056165680556 0 0 0
232 2 3 -0.8223058883917198 4.465111742733036 5.907813545321083 1.8586112625271032 0 0 0
234 2 3 -0.7714713577276644 6.352634166494366 2.6371954927742154 6.48431622518605 0 0 0
237 2 3 -0.820764067159079 2.662741024405972 6.349714869340934 5.1999585907068875 0 0 0
238 2 3 -0.7833689341543444 4.404255562611382 4.856987190582076 6.5800860431019625 0 0 0
246 2 3 -0.8848107843933951 1.8173222620881149 8.163745499426922 3.3487258924004397 0 0 0
247 2 3 -0.8137128344896565 3.263029797736023 8.481001305878554 1.0492243875997744 0 0 0
252 2 3 -0.8219211987556789 2.3307811561454996 10.217270231227168 6.955313169163538 0 0 0
257 2 3 -0.8170152530216286 6.7227903000169 1.159142380822032 4.180979242873215 0 0 0
262 2 3 -0.7614409931677533 6.269384965983108 4.848339792064837 3.5401396066688924 0 0 0
263 2 3 -0.8408236989677598 5.329277599391621 6.937195503593412 4.986393895173389 0 0 0
277 2 3 -0.8283710755730778 3.061924213861136 10.416215400549145 3.0971549421713784 0 0 0
278 2 3 -0.8389573902909843 4.336918318032565 12.807988361277543 3.071718295648294 0 0 0
279 2 3 -0.8226029657439574 2.8648619623911906 11.953611928981326 5.066307848136722 0 0 0
280 2 3 -0.8480349572474752 6.39258042312539 12.673697886005296 1.1883789720116409 0 0 0
285 2 3 -0.7332454923383402 5.288376438372935 10.96148461080091 4.994191568028287 0 0 0
286 2 3 -0.772765490652529 6.769165960500566 10.763386097034436 7.272883499662781 0 0 0
300 4 1 -0.6893665428216249 1.399323895623147 3.901106517337668 1.3752595060886457 0 0 0
157 2 2 0.2442462147263338 3.9671854443819803 8.715773209600847 6.411450563086928 0 0 0
336 14 2 -0.03079160478898787 8.123234524472933 0.3028596566110588 7.336220930043757 0 0 0
302 4 2 0.1900781787321339 2.187227412151721 3.315308741338003 0.9007473602836521 0 0 0
340 18 2 0.1806428174676073 11.900002534965086 1.637100537319733 3.489182868043314 -1 0 0
173 2 2 0.1864301962094431 6.688144498837348 5.21154591287643 8.019875910079874 0 0 0
303 4 2 0.2094097618435854 1.6290960681446627 3.9504152322073525 2.48840923858134 0 0 0
350 28 2 0.1883064572017784 6.0585950719076465 14.18923055237633 6.122982305297313 0 -1 0
335 13 2 -0.01543044053261158 -0.5744743231439011 9.421229297840933 0.25835101190957027 0 0 1
162 2 2 0.1100979398735294 2.2189421260612185 14.123541405996823 3.540777163795651 0 -1 0
46 2 4 1.073458937581289 7.767387987671027 1.0096908880438686 3.0025725816795727 0 0 0
118 2 2 0.04412335369303137 11.073799369644012 5.937096555567844 0.06778716951537964 0 0 0
188 2 2 0.1715769269855452 8.199557700288553 12.862423226663285 5.422528779695368 0 0 0
87 2 1 -0.6485682021265222 7.90494659078125 11.785872287269013 4.794001531362991 0 0 0
189 2 2 0.1887032526041537 7.137514138682892 11.8780032226156 3.9095823166225787 0 0 0
199 2 2 0.2303356767057281 4.320911474235973 10.958593744052813 0.3848055413450218 0 0 1
169 2 2 0.1466593370019978 10.011047572369058 2.5220815514234793 8.412909202556293 0 0 0
183 2 2 0.2537689618334097 8.804355032984843 8.247619698837347 8.169205919347782 0 0 0
179 2 2 0.2266474468763559 10.631790166027905 8.622482035458528 5.082284464583048 0 0 0
267 2 3 -0.7977645154453918 10.55335774272411 6.075351694836148 5.385519879684416 0 0 0
181 2 2 0.1684663926194006 8.824749916232452 9.035649613206058 5.067016227624268 0 0 0
301 4 2 0.2316639640018303 1.3825249765685383 4.934724365367591 0.9023108214322665 0 0 0
264 2 3 -0.8624559065021312 9.049494262958039 4.875929070431324 1.6901074847519606 0 0 0
120 2 2 0.009961291756849075 9.953596784682333 4.167560696629771 8.023732624787588 0 0 0
94 2 2 -0.005690911074731986 -1.08099555836898 1.5959929438089717 8.199065453537036 1 0 0
342 20 2 0.180349905294954 -2.137782035801809 4.647641371908934 5.560951713350081 0 0 0
1 1 4 1.201050868931568 14.29014158732108 1.4158789240200467 3.494487966598721 0 0 0
187 2 2 0.1790157390067295 8.414052616644058 10.733298057296645 4.8905009420457235 0 0 0
269 2 3 -0.8126599672090148 8.820293450448043 6.405629189039795 7.833996070865574 0 0 0
166 2 2 0.1426193655354422 11.280729170044062 1.3902536596053434 0.33516312955802197 0 0 1
268 2 3 -0.7705120285758764 7.89399144102646 6.600437017877866 4.900413463376674 0 0 0
5 1 3 -0.7857532126260556 6.772281923791012 14.000087795842395 3.604829607824779 0 -1 0
337 15 2 0.002668436725323818 12.112020846234463 0.5970918602678107 1.7570533894614626 0 0 0
132 2 2 0.1765558618278612 11.991517681793518 4.289573646938026 6.520068106171257 0 0 0
57 2 4 0.9550556560099843 8.503060931693321 9.03675972816232 2.568476333242825 0 0 0
276 2 3 -0.7824777132853332 9.669584515054678 10.080080342956615 3.1392079839934675 -1 0 0
124 2 2 0.03015084586614654 7.331720202328923 8.818174056414275 3.8707494537047045 0 0 0
2 1 1 -0.7106882109059031 12.600826705342351 2.184356971217618 2.924351001440942 0 0 0
67 2 1 -0.644943527134022 12.469452912467034 4.160857505404292 5.52339822632896 0 0 0
131 2 2 0.1826215323607795 12.617488996915906 2.961940485597067 5.056186789639414 0 0 0
4 1 2 0.1608154083230825 12.515055309379097 2.222901282441016 1.7500403395558348 0 0 0
260 2 3 -0.7936353094262678 8.497171204881727 2.212220048586801 2.3925208146116193 0 0 0
180 2 2 0.2000239458405841 9.621329346938484 9.054020993536591 6.691312298396274 0 0 0
51 2 4 1.010226456616725 9.370899084073809 6.2648160892837605 1.0685620799622817 0 0 0
122 2 2 -0.05343419433563642 7.764275043936781 10.249553355704052 1.426501205058965 0 0 0
261 2 3 -0.7531575214892744 10.256491760241204 3.766901055195579 3.7858508212504614 0 0 0
84 2 1 -0.6421295999547145 9.619448158003499 8.498106504524493 5.674839190011235 0 0 0
49 2 4 1.210213285425826 9.555692475595698 3.58870825406401 2.2358050614375418 0 0 0
54 2 4 1.256344607661143 9.184389856493468 6.721381174394566 5.883416546402174 0 0 0
95 2 2 -0.002165300716531596 13.558966956740392 3.1480861650936838 6.937605967338986 0 0 0
11 2 4 1.241364965322062 11.281923053846528 5.036986406241447 4.336533469785745 0 0 0
275 2 3 -0.794908438258761 9.054289059984406 7.780770193330762 1.8293298233825528 0 0 0
182 2 2 0.1928025443988058 9.445221635215598 10.014702584042473 7.67727827398663 0 0 0
117 2 2 -0.001422766643400172 10.774412571006943 3.1005300919375234 1.0560007328206684 0 0 0
243 2 3 -0.8359794700657887 -0.27961631803802306 6.468996238131432 0.07493520196784478 0 0 1
82 2 1 -0.6739228546430379 6.2745841311863995 4.426679842453882 8.804957579602766 0 0 0
110 2 2 0.02678970410992094 3.8119272404148967 9.050399133053084 8.567906700394394 0 0 0
85 2 1 -0.6732655482328912 8.844331932765135 9.37868686102593 8.523962275254224 0 0 0
142 2 2 0.1573418079803719 5.280725080979302 2.00209385575736 0.33039904942002873 0 0 1
106 2 2 0.05554100941748823 4.142326437860843 3.9885953704110193 0.04847946133087487 0 0 1
321 7 2 0.1890550272711404 -6.310875227227829 14.020390820079868 0.44291151273376134 0 0 1
17 2 4 1.341124756048927 -0.9275630372878234 7.594499674418178 11.47974067833092 0 0 0
21 2 4 0.6048890394664717 -3.219380881741121 10.275736521689572 13.76847609775379 0 0 0
22 2 4 1.238487937377154 -3.4991098453547065 12.38284929599094 11.699449320112695 0 0 0
41 2 4 1.237922704864016 -1.416655342356913 11.845918392225148 9.48914439683256 0 0 0
68 2 1 -0.6629033925985615 -4.179799266136601 10.247368023822919 15.691205142909986 0 0 0
101 2 2 -0.008604183093079046 -1.8169148430951076 9.626039426935389 12.941470747234375 0 0 0
102 2 2 -0.03279625239819491 -2.3660798603360806 10.839951154606085 15.153965587819085 0 0 0
103 2 2 0.06187228200148192 -4.684460659878078 13.805725068182198 11.799474600567793 0 0 0
133 2 2 0.02264370524112883 -4.1546968938912805 8.94040711969125 14.175586293661526 0 0 0
215 2 3 -0.8182912063501386 -2.319070447948867 7.420755496184861 10.683264055771335 0 0 0
216 2 3 -0.8336858497215832 -0.9269181921009972 7.17617406332709 13.050910153200551 0 0 0
222 2 3 -0.7501463440781955 -4.209490766549588 11.424151123852445 12.579086571944295 0 0 0
223 2 3 -0.7685531966959207 -2.3893530572284245 12.826778145815226 12.78094719421616 0 0 0
251 2 3 -0.8458105786532364 -2.598377584147112 12.432071644933856 10.433757251995681 0 0 0
334 12 2 -0.007864011194554401 -3.0689897452854478 8.629852053242356 16.051555676130892 0 0 0
127 2 2 0.03539698511075338 -6.712882945886832 13.78243240731757 14.253005629411144 1 0 0
135 2 2 0.1422465776419085 -4.414080565310804 11.32540217071312 15.445168518168094 0 0 0
320 7 1 -0.6444212621939208 -6.832644001256645 14.516373371029385 17.015272712650784 0 0 0
298 3 2 0.1315543377535391 -1.6277110073723993 13.368901777068208 16.032914514313376 0 -1 0
10 2 4 1.006064600011918 -0.7843155131271777 3.102455158680751 13.331738273254654 0 0 0
69 2 1 -0.6834945074839879 -0.5590280127296745 9.5566361829154 11.43339712684153 0 0 0
214 2 3 -0.8660663173018219 -0.629311674259326 4.621238742187799 13.625736298834653 0 0 0
293 3 1 -0.6551444392397211 -2.4307587352704463 14.191980779285593 15.976213205391748 0 -1 0
291 3 4 0.6564626424263371 -3.230917548551865 13.960204076906251 14.233999981946923 0 -1 0
295 3 2 0.03584059092080532 -4.818368961390441 13.189465751873124 14.768063088656188 0 -1 0
91 2 1 -0.6750459090431682 2.7563185358082314 11.799130772393518 17.177920518437006 0 0 0
137 2 2 0.1412694767977271 -1.547575533852645 10.1491991347075 11.494716942655662 0 0 0
134 2 2 0.1475401071156907 -5.158921888294477 9.720337018989126 15.626210476118942 0 0 0
345 23 2 0.1092587925498246 5.080537727445681 1.1056314405807117 15.404811424073339 0 1 0
14 2 4 1.490646797052282 -3.919554575682428 7.584128980209288 10.07430255698213 0 0 0
344 22 2 0.1566929730002205 -3.199607796352254 14.327953303815072 16.79466268995088 0 0 0
114 2 2 0.09537618129723283 -0.8961105089016537 13.012011059381118 12.119609692186925 0 0 0
113 2 2 0.00625461624563927 -0.24701736840211397 11.289542263949826 10.615508977427792 0 0 0
211 2 3 -0.7134215498624037 -0.8848650765828139 4.354336698250298 9.123251309419317 0 0 0
174 2 2 0.1683732976899524 6.963883562990181 3.6065752995240583 8.936734721866657 0 0 0
305 4 3 -0.7979477225698768 -1.006669849768339 2.611751612067541 17.525348697727704 0 0 -1
123 2 2 0.1544244227147503 -5.642966548903449 14.471942002711328 16.98815177949234 1 0 -1
265 2 3 -0.7630031706718475 11.26893510701091 6.096996912838311 9.12047598247119 0 0 0
105 2 2 -0.01343315235965617 -0.5771909693624744 14.219661873410454 15.328067741217188 0 -1 0
317 6 2 0.01504784242426295 9.688264050307735 10.918121253846456 9.398241958742464 -1 0 0
310 5 2 0.02545928809593039 -4.125064456547756 10.862979926021 17.554207092057563 0 0 -1
96 2 2 0.1608434533063944 -2.777145422589545 6.632947530536169 14.912031775628927 0 0 0
71 2 1 -0.6628003190109901 4.391573572463905 3.414868132989791 17.213473677404497 0 0 0
327 9 2 0.1354834980316588 4.778621465234744 7.329486045513136 16.756673642140402 0 0 0
16 2 4 1.309339253890434 -0.09932976027149909 6.024933448942469 13.854245359030623 0 0 0
217 2 3 -0.8241826726943413 -4.205172315182663 8.848821774752505 9.069184663703085 0 0 0
330 10 2 0.1699121555295798 8.900120635546656 7.92785891038319 16.3126798550847 0 0 0
146 2 2 0.1613687968138195 2.020032932441726 2.4576087160089637 11.75576171595122 0 0 0
292 3 1 -0.635055178108434 -5.074994332234236 14.508192554422335 13.5533360222998 0 -1 0
147 2 2 0.2178359237727332 7.6005512440419665 4.868743141892027 11.861147203835353 0 0 0
112 2 2 -0.0247802782775874 0.2864715687250633 8.982051161889402 16.50498580052517 0 0 0
136 2 2 0.2020835359709034 0.21130198434055514 10.260060290926264 12.039220305950227 0 0 0
37 2 4 1.143103354918932 0.19397188457977432 7.36093338850461 16.74238407605841 0 0 0
241 2 3 -0.8272679132893197 0.005809096055561569 6.598160921970928 15.33960163245593 0 0 0
175 2 2 0.1683029640729953 5.529218513250484 4.747165556843722 9.62179019225605 0 0 0
209 2 3 -0.7740831923815336 -0.5166013522262605 2.0100209763953663 14.617096573500573 0 0 0
297 3 2 0.1623406961516582 1.4749630077780904 0.6553113356870731 12.689522580547475 0 0 0
144 2 2 0.05822106890483614 3.9552605830683145 1.2606665269960153 11.033981447456615 0 0 0
138 2 2 0.2260612034300777 -0.08756204226889619 9.41216395944608 10.307959817255016 0 0 0
130 2 2 0.1758657880158779 0.8606993492388071 3.654199162580218 11.823667216011303 0 0 0
6 2 4 1.189561277931646 0.09842868947829775 2.0692511813249985 16.274551034263876 0 0 0
271 2 3 -0.7939678446270779 11.192354374624191 4.523954103345385 11.700462204727884 0 0 0
236 2 3 -0.8342878019906758 0.5436768890788308 6.938059411609039 10.852700626934434 0 0 0
128 2 2 0.2272012364523617 -0.10687897759490528 2.932619464030023 10.496541891776532 0 0 0
66 2 1 -0.6508929425257346 -0.04506249631212389 2.9038724977784147 11.559396615498452 0 0 0
25 2 4 0.9846647237471926 3.0902211375915725 1.8028062224971981 9.360827240604483 0 0 0
296 3 2 0.0228307821381952 3.5637535640441262 1.2939867568805132 13.518293480096414 0 0 0
294 3 2 0.1655537805975097 1.8226119145830615 1.2665172515858747 14.145106924787006 0 0 0
28 2 4 0.9623839131066415 2.789317142295069 3.7735701405794946 16.173941797803607 0 0 0
29 2 4 1.058351440188389 6.015891886663166 3.234498335881445 12.523304187461855 0 0 0
34 2 4 1.424870866591925 1.589384622689166 7.237767496196209 9.800036034694914 0 0 0
36 2 4 1.207566460839582 4.142254999759144 5.49587693966403 13.82879282615829 0 0 0
38 2 4 1.393252101124624 3.7319771481754946 7.551744768844424 11.865160072368104 0 0 0
43 2 4 1.168332640611482 2.4437052509353183 10.31265013956621 13.64258938586906 0 0 0
44 2 4 1.272659068428725 0.8869662102294414 12.963422113985349 12.340496395094513 0 0 0
53 2 4 1.22092989996119 6.552615104401459 7.458116933196984 10.547762330555168 0 0 0
61 2 4 1.036149371556711 2.645998843571076 12.834528313813124 10.02672082199177 0 0 0
64 2 4 0.996229576821289 3.95147793777383 11.874368488406034 15.716203853823702 0 0 0
72 2 1 -0.6660799770617725 3.0066965054704218 2.5624733518945915 11.244667189040834 0 0 0
77 2 1 -0.6802147682980861 1.4132330349477935 9.78135849032728 15.058246807910123 0 0 0
90 2 1 -0.6230026379805318 3.812342076764839 13.694589543256084 15.074220675603545 0 0 0
331 10 2 0.0742332127714567 7.189299998849339 6.807998485616503 16.97976812421489 0 0 0
93 2 1 -0.670601051172139 6.596466264150286 13.524666859711598 13.267492769430635 0 0 0
98 2 2 0.1418742881983018 1.3726029406340468 6.124373998844399 12.976896102275514 0 0 0
104 2 2 0.2138144424300819 3.4385666617349244 3.445335867853642 11.599149641484116 0 0 0
109 2 2 0.004225313420087506 5.143504480033694 6.888947436148863 14.141955026316792 0 0 0
159 2 2 0.1566113025822821 1.6552301629469868 9.875905379768955 16.17271241299976 0 0 0
160 2 2 0.1514763458179539 1.411455683079166 8.625249383943183 14.72381284227769 0 0 0
161 2 2 0.1327801374486069 0.3786453912816883 10.386977455516098 14.820494542426095 0 0 0
195 2 2 0.2608468064876426 2.9042033218638736 13.914410589521363 14.554203572561633 0 0 0
196 2 2 0.1731759383164144 4.814817346501785 13.795410483570908 14.273437992407787 0 0 0
197 2 2 0.1429659265029679 3.8565407281131594 14.117091697831615 16.26269786290314 0 0 0
202 2 2 0.216622670818708 4.751964404150778 12.071106598354213 10.659734882811994 0 0 0
204 2 2 0.1217444371621286 13.844986752928609 0.5094327061748127 12.874644688578066 0 1 0
228 2 3 -0.8309431274218503 1.6519449883143187 2.7002060551807565 16.342267494364464 0 0 0
239 2 3 -0.7737104994959361 3.193532694243726 5.155979365513175 14.97355330383286 0 0 0
240 2 3 -0.8246983431094236 5.202224471089959 4.317295372836711 13.173033685025345 0 0 0
244 2 3 -0.8175271328504337 3.2265918752536376 7.230727945316696 10.35803435275386 0 0 0
245 2 3 -0.7605062867660779 3.038522756428014 5.975940136820744 12.79334541157255 0 0 0
254 2 3 -0.788109551180708 3.0648843000689805 8.779991412754566 12.641585065076258 0 0 0
255 2 3 -0.8202250478172631 1.32210996289876 11.566209510727552 12.8516809098698 0 0 0
256 2 3 -0.8647207147559681 1.091026734918111 14.029535240111734 13.380823817902773 0 0 0
266 2 3 -0.8206505626188103 5.39460623881339 7.397310274411438 11.777437123054456 0 0 0
281 2 3 -0.8074592897067069 6.738787381507968 8.757594685115432 9.843260286114084 0 0 0
284 2 3 -0.839059310344185 1.3650961113318696 13.344613083903509 10.828803365331062 0 0 0
288 2 3 -0.7467136492956147 3.7559036950063547 11.054847093595097 14.235567065085597 0 0 0
289 2 3 -0.7853964873763422 5.60771845784384 11.642576725627288 16.866656417817875 0 0 0
107 2 2 0.07174064891630803 1.8492911235688254 2.999004265401532 9.907392540106883 0 0 0
346 24 2 0.09225016288661236 4.444353172138692 2.726525722912998 15.845296496507347 0 0 -1
229 2 3 -0.7890809681842473 6.50306047417157 2.02624932519335 13.56340300152445 0 0 0
192 2 2 0.2222278302722692 6.601738977613784 10.43234538407666 16.011507070768232 0 0 0
145 2 2 0.003877390025993723 5.020260048097528 2.669889062394322 11.306702273614832 0 0 0
193 2 2 0.1685486825923111 6.859531098937255 8.537427068598678 16.124110654034972 0 0 0
194 2 2 0.166148434952085 6.161087130290584 9.11828663600205 14.648753010620696 0 0 0
283 2 3 -0.8144228521654027 2.509202464994407 11.277732895994028 9.347821603410447 0 0 0
326 9 1 -0.6642843289295018 3.962779223676507 8.147801227195737 16.68713099410559 0 0 0
282 2 3 -0.7340151471580498 7.210267266835665 11.601790870660604 9.925575753178435 0 0 0
92 2 1 -0.697877048261051 4.4058231286633465 13.15259211607548 10.409995027638546 0 0 0
206 2 2 0.2018124881216654 5.898657285086387 12.997293599752949 12.568511480077294 0 0 0
347 25 2 0.1781553766835528 3.2733079956584374 8.029450344927836 15.69953561604145 0 0 -1
89 2 1 -0.6778641973822641 7.071012763200206 9.381439752802718 15.475869525131518 0 0 0
328 9 2 0.1780143136317623 4.281200683955052 9.253653182526039 16.87073189270392 0 0 0
200 2 2 0.1742157537916395 1.9782738071000094 10.924463023724707 17.136869807861096 0 0 0
121 2 2 0.01779873744599519 6.195503994822909 6.308611319660697 9.357277314855825 0 0 0
205 2 2 0.1689019368204073 6.282439481020435 13.444008842305701 14.343808162851037 0 0 0
148 2 2 0.140222062119906 7.775256650594106 3.370775051704943 10.684344111414116 0 0 0
339 17 2 0.004423963498131131 8.933445122787129 9.906988543488842 15.770932840418748 -1 0 0
27 2 4 1.172852895119815 7.5300149791054505 0.9025139283928154 14.311800420295514 0 0 0
73 2 1 -0.6878797058621821 7.627891860691895 3.793061003885994 11.793456089835976 0 0 0
201 2 2 0.1666016878337077 4.341941710591826 13.88092999134605 11.22660254027387 0 0 0
248 2 3 -0.8383251243124203 1.3245669847771273 8.92002713633437 9.02830021077587 0 0 0
242 2 3 -0.7998265158329813 1.584527623804678 6.877323009174607 17.416481016112556 0 0 -1
81 2 1 -0.6452583714670467 11.699610578851367 1.9020775121360254 12.1219103236745 0 0 0
259 2 3 -0.7687735521033076 12.859021692549897 2.844162826673052 9.719152918459807 0 0 0
319 6 3 -0.7823621890903507 -6.5995493579391065 12.674527853799708 11.41407161546635 0 0 0
332 10 2 0.1934685213115598 8.799354063934667 6.253178210337701 15.851957977242476 0 0 0
168 2 2 0.1402730839780135 9.680199664722748 1.9330445156912177 10.189470248340696 0 0 0
324 8 2 0.1444348965501032 -1.9147849221982882 4.753831212957083 15.865986974057211 1 0 -1
164 2 2 0.02425517671118054 8.932665758042464 3.7950028718488507 16.59352916968503 0 0 0
129 2 2 0.1042719550853833 0.2160623630086308 1.6677434700488345 11.73750072278186 0 0 0
149 2 2 0.2114994333834347 8.354213102458077 3.4784773710075414 12.627107815360208 0 0 0
272 2 3 -0.8987563892259091 10.688550002546654 7.711840833189393 11.227794547771781 0 0 0
170 2 2 0.1589728225343976 12.532022674043226 1.1640162060051689 12.314134988493837 0 0 0
341 19 2 0.1412806262258699 -7.351466700470059 13.938530257990308 16.133500539459163 0 0 -1
338 16 2 0.03245619318880071 -3.209027534345488 5.684432752256577 13.786222688279143 0 0 0
172 2 2 0.1866568993065203 11.646914679213046 2.717022088475825 13.000039869060492 0 0 0
325 8 2 0.156553049063858 11.652730187873205 5.184564355691958 15.850723867084401 0 0 -1
56 2 4 1.441726133408608 9.445826271993733 7.5130407090377425 12.070018508388019 0 0 0
274 2 3 -0.7673290672817423 9.927353303833181 6.297725738722648 13.262306700317183 0 0 0
63 2 4 1.140130430970284 8.25048622042014 9.843313937054033 14.086180752198132 0 0 0
167 2 2 0.1128051681354083 8.978766908015034 3.6949500750675437 9.732777012718797 0 0 0
270 2 3 -0.7986217045791698 10.391351693208934 4.121703105468501 14.135809303757815 0 0 0
290 2 3 -0.8070514796657108 8.13408248134179 11.253781789099735 13.522072956652531 0 0 0
119 2 2 0.06920759304481497 8.991848106726229 5.344946630865908 10.243735083443617 0 0 0
80 2 1 -0.6576280598551252 9.845487309865497 2.8480951712703217 9.51533218976122 0 0 0
55 2 4 1.273244847863346 10.995861183593028 5.169922410187051 13.108370007073582 0 0 0
316 6 4 1.190659896557413 8.678810831858714 12.264700102264657 9.92784654971255 -1 0 0
79 2 1 -0.6243582819960649 10.515443278760905 2.8692390446684617 17.120419817261837 0 0 0
171 2 2 0.1412490878174946 10.581538171925532 1.4042856066948424 11.88953908379225 0 0 0
65 2 4 1.050612401830682 8.23802288966247 12.70750112181355 13.028009840354125 0 0 0
116 2 2 0.09585225493995236 11.361683349291464 2.1609056585426014 16.079859783089137 0 0 0
198 2 2 0.1506212669062071 2.323217610785298 12.880310263842327 17.164951385883516 0 0 0
329 10 1 -0.6542301405547633 8.651897663954184 6.923511503914724 16.754228469381633 0 0 0
48 2 4 1.058476800225662 11.512897284068515 3.1335242643354406 10.676789447539942 0 0 0
273 2 3 -0.7909487631810682 8.150315346635034 6.900872169982021 10.978024562422995 0 0 0
184 2 2 0.2214434300723766 9.424948999125954 9.347494855347158 9.520925524498017 0 0 0
333 11 2 0.05263962294422866 13.7603563170303 2.7816010598446335 12.077325194324503 0 0 0