LAMMPS (2 Aug 2023 - Update 2)
  using 1 OpenMP thread(s) per MPI task
Reading data file ...
  triclinic box = (0 0 0) to (17.3186 12.8149 18.6403) with tilt (-8.851 0.4589 0.2054)
WARNING: Triclinic box skew is large. LAMMPS will run inefficiently. (src/domain.cpp:220)
  2 by 2 by 2 MPI processor grid
  reading atoms ...
  371 atoms
  reading velocities ...
  371 velocities
Finding 1-2 1-3 1-4 neighbors ...
  special bond factors lj:    0        0        0       
  special bond factors coul:  0        0        0       
     0 = max # of 1-2 neighbors
     0 = max # of 1-3 neighbors
     0 = max # of 1-4 neighbors
     1 = max # of special neighbors
  special bonds CPU = 0.001 seconds
  read_data CPU = 0.008 seconds
WARNING: Van der Waals parameters for element SI indicate inner wall+shielding, but earlier atoms indicate a different van der Waals method. This may cause division-by-zero errors. Keeping van der Waals setting for earlier atoms. (src/REAXFF/reaxff_ffield.cpp:251)
System init for write_restart ...
Neighbor list info ...
  update: every = 1 steps, delay = 0 steps, check = yes
  max neighbors/atom: 2000, page size: 100000
  master list distance cutoff = 12
  ghost atom cutoff = 12
  binsize = 6, bins = 5 3 4
  2 neighbor lists, perpetual/occasional/extra = 2 0 0
  (1) pair reaxff, perpetual
      attributes: half, newton off, ghost
      pair build: half/bin/newtoff/ghost
      stencil: full/ghost/bin/3d
      bin: standard
  (2) fix qeq/reaxff, perpetual, copy from (1)
      attributes: half, newton off
      pair build: copy
      stencil: none
      bin: none
  using 1 OpenMP thread(s) per MPI task
Reading restart file ...
  restart file = 2 Aug 2023, LAMMPS = 2 Aug 2023
  restoring atom style full from restart
  triclinic box = (0 0 0) to (17.3186 12.8149 18.6403) with tilt (-8.851 0.4589 0.2054)
WARNING: Triclinic box skew is large. LAMMPS will run inefficiently. (src/domain.cpp:220)
  2 by 2 by 2 MPI processor grid
  pair style reaxff stores no restart info
  371 atoms
Finding 1-2 1-3 1-4 neighbors ...
  special bond factors lj:    0        0        0       
  special bond factors coul:  0        0        0       
     0 = max # of 1-2 neighbors
     0 = max # of 1-3 neighbors
     0 = max # of 1-4 neighbors
     1 = max # of special neighbors
  special bonds CPU = 0.000 seconds
  read_restart CPU = 0.008 seconds
*****debug*****
xy = -8.8510000000000008669, deltaxy = 0.08851
xz = 0.4588999999999999746, deltaxz = -0.004589
yz = 0.20539999999999999925, deltayz = -0.002054
*****
*****Negative-deform 1 starts.*****
WARNING: Van der Waals parameters for element SI indicate inner wall+shielding, but earlier atoms indicate a different van der Waals method. This may cause division-by-zero errors. Keeping van der Waals setting for earlier atoms. (src/REAXFF/reaxff_ffield.cpp:251)

CITE-CITE-CITE-CITE-CITE-CITE-CITE-CITE-CITE-CITE-CITE-CITE-CITE

Your simulation uses code contributions which should be cited:
- pair reaxff command: doi:10.1016/j.parco.2011.08.005
- fix qeq/reaxff command: doi:10.1016/j.parco.2011.08.005
The log file lists these citations in BibTeX format.

CITE-CITE-CITE-CITE-CITE-CITE-CITE-CITE-CITE-CITE-CITE-CITE-CITE

Neighbor list info ...
  update: every = 10 steps, delay = 0 steps, check = yes
  max neighbors/atom: 2000, page size: 100000
  master list distance cutoff = 12
  ghost atom cutoff = 12
  binsize = 6, bins = 5 3 4
  2 neighbor lists, perpetual/occasional/extra = 2 0 0
  (1) pair reaxff, perpetual
      attributes: half, newton off, ghost
      pair build: half/bin/newtoff/ghost
      stencil: full/ghost/bin/3d
      bin: standard
  (2) fix qeq/reaxff, perpetual, copy from (1)
      attributes: half, newton off
      pair build: copy
      stencil: none
      bin: none
Setting up Verlet run ...
  Unit style    : real
  Current step  : 0
  Time step     : 0.5
Per MPI rank memory allocation (min/avg/max) = 131 | 133.4 | 135.3 Mbytes
   Step          Temp          PotEng         Press          Volume    
         0   300           -37819.86      -1880.9868      4136.956     
       100   303.8681      -37820.576     -6260.9828      4136.5423    
       200   288.26245     -37801.203     -6863.1696      4136.1286    
       300   307.85096     -37822.615      6123.4471      4135.7149    
       400   308.03225     -37837.066     -6777.4912      4135.3012    
       500   284.82846     -37836.3       -15818.656      4134.8875    
       600   294.83305     -37856         -5913.1844      4134.4738    
       700   300.10808     -37850.761     -15699.666      4134.0601    
       800   308.21488     -37820.841      3093.3038      4133.6464    
       900   310.74892     -37823.038     -6853.0302      4133.2327    
      1000   306.01316     -37840.994     -16782.139      4132.819     
      1100   291.48555     -37840.24      -5444.6524      4132.4053    
      1200   303.56481     -37848.928     -25421.015      4131.9916    
      1300   291.23345     -37829.154     -9692.7304      4131.5779    
      1400   287.93521     -37823.664      2609.7022      4131.1643    
      1500   293.82361     -37829.464     -1833.3903      4130.7506    
      1600   301.96229     -37842.789      12176.651      4130.3369    
      1700   307.16593     -37862.841     -12303.605      4129.9232    
      1800   280.27536     -37846.095     -6070.6129      4129.5095    
      1900   290.58001     -37838.563     -1577.6498      4129.0958    
      2000   299.29733     -37818.946      10732.3        4128.6821    
      2100   297.20548     -37818.898     -14703.184      4128.2684    
      2200   287.40092     -37825.089     -7618.804       4127.8547    
      2300   299.99643     -37849.369     -14481.244      4127.441     
      2400   283.56527     -37842.653     -5003.474       4127.0273    
      2500   286.87353     -37860.879     -5130.0435      4126.6136    
      2600   299.29122     -37866.096     -22574.674      4126.1999    
      2700   298.18038     -37834.269     -4002.7363      4125.7862    
      2800   314.23523     -37843.867     -3494.5439      4125.3725    
      2900   312.31954     -37848.971     -432.50429      4124.9588    
      3000   299.71281     -37854.876      7500.0573      4124.5451    
      3100   279.4694      -37862.8       -12653.113      4124.1314    
      3200   294.03867     -37868.153     -10809.456      4123.7177    
      3300   292.06494     -37843.387     -5599.6389      4123.304     
      3400   301.40333     -37841.598     -8375.9324      4122.8903    
      3500   301.54        -37842.638     -15724.993      4122.4766    
      3600   287.24219     -37836.339     -23567.36       4122.0629    
      3700   271.68747     -37840.018     -15416.074      4121.6493    
      3800   279.66159     -37864.728     -10347.104      4121.2356    
      3900   290.61984     -37858.778     -9345.6428      4120.8219    
      4000   302.60564     -37838.111     -4773.5911      4120.4082    
      4100   307.91368     -37835.16      -3398.2527      4119.9945    
      4200   297.2095      -37830.818     -20229.125      4119.5808    
      4300   291.15822     -37844.192      18925.328      4119.1671    
      4400   270.86751     -37852.372      9256.3543      4118.7534    
      4500   288.37668     -37863.389      2162.0821      4118.3397    
      4600   295.48584     -37851.247     -17154.271      4117.926     
      4700   322.18939     -37874.875     -9790.2855      4117.5123    
      4800   311.66898     -37867.775     -11237.817      4117.0986    
      4900   293.10094     -37851.46      -15272.975      4116.6849    
      5000   276.44053     -37844.212     -7534.885       4116.2712    
      5100   287.83685     -37860.094     -27771.067      4115.8575    
      5200   291.19028     -37838.901     -11726.972      4115.4438    
      5300   306.46961     -37835.035      8071.6612      4115.0301    
      5400   313.73336     -37845.213      6466.4562      4114.6164    
      5500   304.71409     -37858.913     -8108.7872      4114.2027    
      5600   290.19388     -37864.825     -2809.186       4113.789     
      5700   276.91112     -37868.549     -8923.5964      4113.3753    
      5800   275.96088     -37871.728     -1329.3539      4112.9616    
      5900   289.1434      -37853.596     -5366.2538      4112.548     
      6000   299.15852     -37842.937     -11295.071      4112.1343    
      6100   302.80403     -37839.609     -9813.738       4111.7206    
      6200   296.93481     -37844.28      -14875.745      4111.3069    
      6300   287.34574     -37855.149     -13.917652      4110.8932    
      6400   279.95219     -37862.579      5034.9578      4110.4795    
      6500   296.65603     -37858.164      3878.9275      4110.0658    
      6600   294.94356     -37827.244     -2830.0372      4109.6521    
      6700   294.27358     -37829.47      -5357.5119      4109.2384    
      6800   299.71441     -37856.757     -7013.657       4108.8247    
      6900   297.53061     -37868.496     -8874.6902      4108.411     
      7000   277.98902     -37847.639     -4009.5403      4107.9973    
      7100   303.51691     -37847.801     -8727.8304      4107.5836    
      7200   296.07885     -37823.112     -22325.512      4107.1699    
      7300   321.0919      -37844.101     -2974.11        4106.7562    
      7400   304.1835      -37855.287      8823.9761      4106.3425    
      7500   292.66551     -37860.348     -3355.745       4105.9288    
      7600   293.28156     -37852.204      11038.184      4105.5151    
      7700   293.00867     -37837.948     -3995.6913      4105.1014    
      7800   312.44663     -37850.072     -1428.2976      4104.6877    
      7900   261.95246     -37830.123     -5272.6706      4104.274     
      8000   297.75351     -37884.573     -4845.61        4103.8603    
      8100   289.51403     -37857.265      4361.1646      4103.4466    
      8200   300.42049     -37842.284      12890.839      4103.033     
      8300   314.50101     -37858.583     -12308.703      4102.6193    
      8400   289.19791     -37852.112     -22508.739      4102.2056    
      8500   280.80756     -37850.183     -9650.4677      4101.7919    
      8600   298.98532     -37857.21       4934.0035      4101.3782    
      8700   332.00985     -37851.467     -11048.889      4100.9645    
      8800   297.99985     -37824.41      -4159.9728      4100.5508    
      8900   297.61048     -37850.576      2490.1686      4100.1371    
      9000   295.67705     -37861.161      10133.589      4099.7234    
      9100   289.61805     -37850.771      3399.152       4099.3097    
      9200   305.25658     -37845.45      -21474.207      4098.896     
      9300   324.80929     -37831.372     -1438.4899      4098.4823    
      9400   314.41437     -37830.08      -10499.318      4098.0686    
      9500   305.33301     -37842.349     -7702.1698      4097.6549    
      9600   294.38724     -37841.71      -12760.272      4097.2412    
      9700   297.38081     -37854.805     -2090.4311      4096.8275    
      9800   290.19413     -37860.26       2033.0516      4096.4138    
      9900   288.22155     -37886.107      10301.099      4096.0001    
     10000   293.14172     -37880.37       170.75327      4095.5864    
Loop time of 458.894 on 8 procs for 10000 steps with 371 atoms

Performance: 0.941 ns/day, 25.494 hours/ns, 21.792 timesteps/s, 8.085 katom-step/s
98.7% CPU use with 8 MPI tasks x 1 OpenMP threads

MPI task timing breakdown:
Section |  min time  |  avg time  |  max time  |%varavg| %total
---------------------------------------------------------------
Pair    | 333.88     | 389.18     | 411.82     | 112.4 | 84.81
Bond    | 0.027962   | 0.03091    | 0.03649    |   1.4 |  0.01
Neigh   | 3.2705     | 3.7919     | 3.9746     |  10.8 |  0.83
Comm    | 3.9546     | 26.583     | 81.946     | 430.5 |  5.79
Output  | 0.033758   | 0.089879   | 0.20597    |  20.2 |  0.02
Modify  | 38.799     | 38.952     | 39.474     |   3.3 |  8.49
Other   |            | 0.2657     |            |       |  0.06

Nlocal:         46.375 ave          52 max          34 min
Histogram: 1 0 0 0 1 0 1 1 1 3
Nghost:        3428.75 ave        3470 max        3380 min
Histogram: 1 0 0 0 2 1 2 1 0 1
Neighs:        29246.1 ave       32511 max       21777 min
Histogram: 1 0 0 0 1 0 1 1 1 3

Total # of neighbors = 233969
Ave neighs/atom = 630.6442
Ave special neighs/atom = 0
Neighbor list builds = 137
Dangerous builds = 0
  using 1 OpenMP thread(s) per MPI task
Reading restart file ...
  restart file = 2 Aug 2023, LAMMPS = 2 Aug 2023
  restoring atom style full from restart
  triclinic box = (0 0 0) to (17.3186 12.8149 18.6403) with tilt (-8.851 0.4589 0.2054)
WARNING: Triclinic box skew is large. LAMMPS will run inefficiently. (src/domain.cpp:220)
  2 by 2 by 2 MPI processor grid
  pair style reaxff stores no restart info
  371 atoms
Finding 1-2 1-3 1-4 neighbors ...
  special bond factors lj:    0        0        0       
  special bond factors coul:  0        0        0       
     0 = max # of 1-2 neighbors
     0 = max # of 1-3 neighbors
     0 = max # of 1-4 neighbors
     1 = max # of special neighbors
  special bonds CPU = 0.000 seconds
  read_restart CPU = 0.003 seconds
*****Positive-deform 1 starts.*****
WARNING: Van der Waals parameters for element SI indicate inner wall+shielding, but earlier atoms indicate a different van der Waals method. This may cause division-by-zero errors. Keeping van der Waals setting for earlier atoms. (src/REAXFF/reaxff_ffield.cpp:251)
Neighbor list info ...
  update: every = 10 steps, delay = 0 steps, check = yes
  max neighbors/atom: 2000, page size: 100000
  master list distance cutoff = 12
  ghost atom cutoff = 12
  binsize = 6, bins = 5 3 4
  2 neighbor lists, perpetual/occasional/extra = 2 0 0
  (1) pair reaxff, perpetual
      attributes: half, newton off, ghost
      pair build: half/bin/newtoff/ghost
      stencil: full/ghost/bin/3d
      bin: standard
  (2) fix qeq/reaxff, perpetual, copy from (1)
      attributes: half, newton off
      pair build: copy
      stencil: none
      bin: none
Setting up Verlet run ...
  Unit style    : real
  Current step  : 0
  Time step     : 0.5
Per MPI rank memory allocation (min/avg/max) = 131.1 | 133.4 | 135.3 Mbytes
   Step          Temp          PotEng         Press          Volume    
         0   300           -37819.86      -1880.9868      4136.956     
       100   303.87028     -37820.587     -6259.3007      4137.3697    
       200   288.24878     -37801.09      -7084.6265      4137.7834    
       300   308.25682     -37821.791      5860.2088      4138.1971    
       400   307.97438     -37835.658     -6561.958       4138.6108    
       500   285.63101     -37836.36      -15576.774      4139.0245    
       600   292.93245     -37852.793     -6743.5991      4139.4382    
       700   302.34403     -37851.137     -16375.375      4139.8519    
       800   307.7353      -37817.678      3350.0582      4140.2656    
       900   308.32673     -37819.641     -6121.2054      4140.6793    
      1000   304.99097     -37837.91      -16856.748      4141.0929    
      1100   297.22939     -37843.444     -6476.1356      4141.5066    
      1200   304.12109     -37849.659     -23241.185      4141.9203    
      1300   296.35389     -37834.479     -9502.0772      4142.334     
      1400   294.96519     -37829.289      1768.5999      4142.7477    
      1500   281.15823     -37816.861      1621.8107      4143.1614    
      1600   309.19828     -37853.496      4500.2468      4143.5751    
      1700   296.58779     -37844.054     -18434.459      4143.9888    
      1800   304.10465     -37835.146     -8272.3992      4144.4025    
      1900   319.6214      -37827.851      5389.6411      4144.8162    
      2000   302.32299     -37803.586      12955.401      4145.2299    
      2100   285.27285     -37823.619     -3102.3713      4145.6436    
      2200   286.87272     -37843.505     -9788.7573      4146.0573    
      2300   283.2367      -37829.604     -8301.5315      4146.471     
      2400   301.51        -37822.347      4170.518       4146.8847    
      2500   293.70815     -37809.998     -2369.0441      4147.2984    
      2600   317.86879     -37848.041     -8525.3944      4147.7121    
      2700   293.03469     -37840.806     -2732.2003      4148.1258    
      2800   309.85628     -37859.654     -6040.5448      4148.5395    
      2900   291.7198      -37834.881     -5844.4403      4148.9532    
      3000   303.36592     -37833.692     -4881.3204      4149.3669    
      3100   313.41322     -37835.998     -4184.2652      4149.7806    
      3200   310.08009     -37834.586     -11690.77       4150.1942    
      3300   278.41378     -37824.302      166.59928      4150.6079    
      3400   271.38995     -37827.242      3508.3864      4151.0216    
      3500   301.47588     -37853.096      16055.319      4151.4353    
      3600   313.46204     -37832.301     -686.87828      4151.849     
      3700   304.70523     -37812.442     -14006.671      4152.2627    
      3800   303.74057     -37827.607     -3111.5368      4152.6764    
      3900   326.41628     -37861.47       5486.0869      4153.0901    
      4000   282.40024     -37822.362     -13281.17       4153.5038    
      4100   297.22351     -37833.289     -11007.835      4153.9175    
      4200   296.68114     -37828.289      2149.201       4154.3312    
      4300   310.12762     -37834.312     -184.54106      4154.7449    
      4400   343.7379      -37892.845      9785.6578      4155.1586    
      4500   319.05886     -37903.46       462.85703      4155.5723    
      4600   309.02132     -37910.761     -1830.16        4155.986     
      4700   279.40382     -37887.046     -10341.724      4156.3997    
      4800   300.15082     -37895.341     -1008.3317      4156.8134    
      4900   322.4827      -37898.632     -6604.4837      4157.2271    
      5000   314.74361     -37907.648     -3728.249       4157.6408    
      5100   288.24777     -37913.741     -360.70955      4158.0545    
      5200   306.33858     -37934.43      -3492.4793      4158.4682    
      5300   318.07565     -37934.073     -4426.6475      4158.8819    
      5400   317.35705     -37931.724      4125.6433      4159.2956    
      5500   294.16579     -37930.907     -12274.166      4159.7092    
      5600   286.18117     -37943.868     -4157.9147      4160.1229    
      5700   304.66711     -37950.411     -2891.0056      4160.5366    
      5800   321.49835     -37930.823     -8211.5266      4160.9503    
      5900   304.23486     -37912.317     -16298.874      4161.364     
      6000   318.60503     -37945.93      -1004.1073      4161.7777    
      6100   277.58584     -37923.445     -2967.8174      4162.1914    
      6200   281.45747     -37927.913      5607.9165      4162.6051    
      6300   305.18657     -37937.684     -3191.0396      4163.0188    
      6400   337.67677     -37931.202     -11997.191      4163.4325    
      6500   335.08735     -37934.323     -8254.9996      4163.8462    
      6600   300.28385     -37919.218     -10603.718      4164.2599    
      6700   301.8442      -37937.772      14418.976      4164.6736    
      6800   302.26164     -37944.826     -14163.749      4165.0873    
      6900   295.17237     -37949.292     -5736.805       4165.501     
      7000   276.13176     -37959.302     -14308.384      4165.9147    
      7100   270.82523     -37953.85      -3826.8803      4166.3284    
      7200   289.44325     -37937.911     -4643.5555      4166.7421    
      7300   289.07701     -37922.592      507.82201      4167.1558    
      7400   291.24482     -37911.056     -14100.171      4167.5695    
      7500   300.43362     -37918.065     -8605.844       4167.9832    
      7600   307.95361     -37945.954     -6482.6193      4168.3969    
      7700   280.7891      -37942.149      1057.0338      4168.8106    
      7800   296.97111     -37959.692     -8179.1622      4169.2242    
      7900   324.93807     -37970.337     -15404.33       4169.6379    
      8000   318.31875     -37920.714     -11585.381      4170.0516    
      8100   325.60538     -37929.539      1934.0581      4170.4653    
      8200   319.08242     -37943          2939.3299      4170.879     
      8300   298.24212     -37941.462     -419.206        4171.2927    
      8400   280.39429     -37928.015     -12209.948      4171.7064    
      8500   304.85418     -37952.199     -16302.105      4172.1201    
      8600   301.49844     -37923.209     -11236.169      4172.5338    
      8700   319.8084      -37923.604     -4869.1912      4172.9475    
      8800   309.94462     -37938.82      -6717.5485      4173.3612    
      8900   306.53975     -37953.391     -14357.301      4173.7749    
      9000   289.96263     -37938.038     -3164.2776      4174.1886    
      9100   300.28905     -37935.674     -6458.5519      4174.6023    
      9200   331.95075     -37947.638      448.95297      4175.016     
      9300   328.74459     -37922.354     -21274.257      4175.4297    
      9400   302.98563     -37923.245      1222.7228      4175.8434    
      9500   284.45701     -37933.007     -5239.2248      4176.2571    
      9600   299.66957     -37949.123     -2478.1425      4176.6708    
      9700   318.45582     -37964.809      8061.5846      4177.0845    
      9800   311.54886     -37948.606     -183.99356      4177.4982    
      9900   304.67319     -37937.575     -663.9127       4177.9119    
     10000   294.85386     -37934.303     -12597.866      4178.3256    
Loop time of 450.374 on 8 procs for 10000 steps with 371 atoms

Performance: 0.959 ns/day, 25.021 hours/ns, 22.204 timesteps/s, 8.238 katom-step/s
98.8% CPU use with 8 MPI tasks x 1 OpenMP threads

MPI task timing breakdown:
Section |  min time  |  avg time  |  max time  |%varavg| %total
---------------------------------------------------------------
Pair    | 360.76     | 388.42     | 403.36     |  65.0 | 86.24
Bond    | 0.027996   | 0.030422   | 0.034151   |   1.1 |  0.01
Neigh   | 3.8192     | 4.0596     | 4.2085     |   5.5 |  0.90
Comm    | 4.1511     | 19.149     | 46.829     | 293.0 |  4.25
Output  | 0.033339   | 0.088104   | 0.20052    |  19.9 |  0.02
Modify  | 38.133     | 38.243     | 38.465     |   1.5 |  8.49
Other   |            | 0.3872     |            |       |  0.09

Nlocal:         46.375 ave          52 max          40 min
Histogram: 1 0 1 1 1 0 1 1 1 1
Nghost:        3361.75 ave        3415 max        3306 min
Histogram: 1 0 1 1 0 2 1 0 1 1
Neighs:        28685.5 ave       31992 max       25102 min
Histogram: 1 0 1 2 0 0 1 2 0 1

Total # of neighbors = 229484
Ave neighs/atom = 618.55526
Ave special neighs/atom = 0
Neighbor list builds = 147
Dangerous builds = 0
  using 1 OpenMP thread(s) per MPI task
Reading restart file ...
  restart file = 2 Aug 2023, LAMMPS = 2 Aug 2023
  restoring atom style full from restart
  triclinic box = (0 0 0) to (17.3186 12.8149 18.6403) with tilt (-8.851 0.4589 0.2054)
WARNING: Triclinic box skew is large. LAMMPS will run inefficiently. (src/domain.cpp:220)
  2 by 2 by 2 MPI processor grid
  pair style reaxff stores no restart info
  371 atoms
Finding 1-2 1-3 1-4 neighbors ...
  special bond factors lj:    0        0        0       
  special bond factors coul:  0        0        0       
     0 = max # of 1-2 neighbors
     0 = max # of 1-3 neighbors
     0 = max # of 1-4 neighbors
     1 = max # of special neighbors
  special bonds CPU = 0.000 seconds
  read_restart CPU = 0.003 seconds
*****debug*****
xy = -8.8510000000000008669, deltaxy = 0.08851
xz = 0.4588999999999999746, deltaxz = -0.004589
yz = 0.20539999999999999925, deltayz = -0.002054
*****
*****Negative-deform 2 starts.*****
WARNING: Van der Waals parameters for element SI indicate inner wall+shielding, but earlier atoms indicate a different van der Waals method. This may cause division-by-zero errors. Keeping van der Waals setting for earlier atoms. (src/REAXFF/reaxff_ffield.cpp:251)
Neighbor list info ...
  update: every = 10 steps, delay = 0 steps, check = yes
  max neighbors/atom: 2000, page size: 100000
  master list distance cutoff = 12
  ghost atom cutoff = 12
  binsize = 6, bins = 5 3 4
  2 neighbor lists, perpetual/occasional/extra = 2 0 0
  (1) pair reaxff, perpetual
      attributes: half, newton off, ghost
      pair build: half/bin/newtoff/ghost
      stencil: full/ghost/bin/3d
      bin: standard
  (2) fix qeq/reaxff, perpetual, copy from (1)
      attributes: half, newton off
      pair build: copy
      stencil: none
      bin: none
Setting up Verlet run ...
  Unit style    : real
  Current step  : 0
  Time step     : 0.5
Per MPI rank memory allocation (min/avg/max) = 131 | 133.4 | 135.3 Mbytes
   Step          Temp          PotEng         Press          Volume    
         0   300           -37819.86      -1880.9868      4136.956     
       100   303.86877     -37820.576     -6256.347       4136.5423    
       200   288.12186     -37801.024     -6852.6333      4136.1286    
       300   308.41659     -37822.877      6143.4008      4135.7149    
       400   307.96493     -37836.498     -7089.2789      4135.3012    
       500   284.95628     -37836.184     -15236.799      4134.8875    
       600   294.57833     -37854.893     -5222.852       4134.4738    
       700   299.75528     -37850.054     -15186.747      4134.0601    
       800   307.36247     -37818.937      3588.1952      4133.6464    
       900   312.02046     -37822.645     -6891.7632      4133.2327    
      1000   303.85253     -37836.697     -16600.751      4132.819     
      1100   290.99927     -37838.499     -3732.0501      4132.4053    
      1200   305.37834     -37850.097     -24710.38       4131.9916    
      1300   287.08207     -37823.959     -10804.308      4131.5779    
      1400   289.08229     -37821.505      4115.2554      4131.1643    
      1500   292.44616     -37825.278     -6029.1129      4130.7506    
      1600   304.46795     -37847.107      5931.4309      4130.3369    
      1700   289.14572     -37859.291     -15474.063      4129.9232    
      1800   269.87631     -37851.375     -4785.0364      4129.5095    
      1900   293.63811     -37849.065     -4792.7107      4129.0958    
      2000   301.2236      -37842.493     -380.46869      4128.6821    
      2100   304.18362     -37843.057     -3730.1554      4128.2684    
      2200   273.01722     -37813.874     -11.301009      4127.8547    
      2300   289.33734     -37824.293     -2442.8226      4127.441     
      2400   316.16175     -37828.052     -5251.5798      4127.0273    
      2500   318.01195     -37832.392     -8494.2343      4126.6136    
      2600   294.07138     -37840.851     -2661.2734      4126.1999    
      2700   287.24347     -37840.814     -6212.7686      4125.7862    
      2800   286.69362     -37832.731     -4618.2435      4125.3725    
      2900   295.1142      -37824.456     -8778.9401      4124.9588    
      3000   326.5595      -37842.706      521.53738      4124.5451    
      3100   309.68466     -37814.963     -1213.2184      4124.1314    
      3200   288.87628     -37821.68      -503.44739      4123.7177    
      3300   285.27684     -37840.744     -15559.32       4123.304     
      3400   289.67319     -37853.393     -7426.3122      4122.8903    
      3500   300.36542     -37856.055      1157.2781      4122.4766    
      3600   315.65386     -37833.394      5046.8612      4122.0629    
      3700   311.00854     -37838.802     -11193.843      4121.6493    
      3800   308.20682     -37858.353     -9357.1026      4121.2356    
      3900   286.95064     -37850.191     -13502.768      4120.8219    
      4000   291.46912     -37852.05      -4993.7047      4120.4082    
      4100   321.04883     -37855.205     -2512.6257      4119.9945    
      4200   326.75103     -37838.222      590.85182      4119.5808    
      4300   297.85599     -37830.993      4535.2383      4119.1671    
      4400   287.39484     -37851.718     -3071.9803      4118.7534    
      4500   305.56748     -37866.386     -6872.076       4118.3397    
      4600   299.31263     -37849.99      -9096.3812      4117.926     
      4700   304.23528     -37845.999     -6908.2943      4117.5123    
      4800   310.50366     -37849.802     -305.03044      4117.0986    
      4900   301.72637     -37844.691      4080.0484      4116.6849    
      5000   286.27947     -37840.658     -8514.837       4116.2712    
      5100   280.86793     -37849.284      2318.3135      4115.8575    
      5200   281.82771     -37861.092     -7510.928       4115.4438    
      5300   298.19478     -37865.774     -2250.6569      4115.0301    
      5400   301.74035     -37841.496     -3055.7337      4114.6164    
      5500   304.60528     -37833.725     -19970.296      4114.2027    
      5600   301.59524     -37833.21      -10581.837      4113.789     
      5700   286.29793     -37847.726     -9927.9945      4113.3753    
      5800   282.24881     -37862.087      5282.5888      4112.9616    
      5900   298.61856     -37868.37      -6489.464       4112.548     
      6000   323.29766     -37865.088      4232.9477      4112.1343    
      6100   300.79915     -37834.966     -3545.2987      4111.7206    
      6200   322.56449     -37867.757     -6228.5786      4111.3069    
      6300   302.73837     -37865.678     -5554.4592      4110.8932    
      6400   281.15246     -37843.236      1402.9597      4110.4795    
      6500   319.64174     -37842.392     -5305.3003      4110.0658    
      6600   330.32488     -37846.286     -5206.9885      4109.6521    
      6700   287.42653     -37828.621     -5254.1461      4109.2384    
      6800   278.51522     -37838.601     -3780.047       4108.8247    
      6900   307.38116     -37870.739     -301.70825      4108.411     
      7000   311.63671     -37878.342     -323.9074       4107.9973    
      7100   283.53369     -37870.831     -10925.125      4107.5836    
      7200   294.95185     -37901.359     -7621.3862      4107.1699    
      7300   280.21036     -37880.939     -5690.5544      4106.7562    
      7400   300.26616     -37866.813     -1318.1499      4106.3425    
      7500   315.004       -37877.578      2495.9309      4105.9288    
      7600   298.5019      -37872.812      6230.0283      4105.5151    
      7700   294.31286     -37882.363      113.78204      4105.1014    
      7800   300.7179      -37903.405     -13664.233      4104.6877    
      7900   271.92159     -37901.241     -7582.0073      4104.274     
      8000   293.23415     -37907.793     -3337.5166      4103.8603    
      8100   315.00703     -37904.308      4328.3278      4103.4466    
      8200   298.24109     -37874.926     -5744.1215      4103.033     
      8300   306.87833     -37872.089     -958.76478      4102.6193    
      8400   295.66645     -37848.419     -9475.9407      4102.2056    
      8500   321.76615     -37863.691     -7683.3989      4101.7919    
      8600   327.49457     -37868.297      7139.0935      4101.3782    
      8700   297.98162     -37868.761     -3167.3441      4100.9645    
      8800   303.33402     -37894.825     -5409.3219      4100.5508    
      8900   296.85389     -37889.229     -1755.8222      4100.1371    
      9000   312.78849     -37887.372     -2710.2128      4099.7234    
      9100   320.13541     -37863.067     -81.099415      4099.3097    
      9200   312.0813      -37856.804     -10625.164      4098.896     
      9300   305.15915     -37869.133     -19662.808      4098.4823    
      9400   277.76242     -37858.314      4499.5429      4098.0686    
      9500   296.3653      -37887.745      5498.3134      4097.6549    
      9600   290.74214     -37872.488      12.096755      4097.2412    
      9700   317.98788     -37863.351      320.58874      4096.8275    
      9800   331.80582     -37872.816     -9694.5142      4096.4138    
      9900   309.09891     -37873.665     -20751.911      4096.0001    
     10000   293.65013     -37870.513     -19621.146      4095.5864    
Loop time of 460.789 on 8 procs for 10000 steps with 371 atoms

Performance: 0.938 ns/day, 25.599 hours/ns, 21.702 timesteps/s, 8.051 katom-step/s
98.7% CPU use with 8 MPI tasks x 1 OpenMP threads

MPI task timing breakdown:
Section |  min time  |  avg time  |  max time  |%varavg| %total
---------------------------------------------------------------
Pair    | 340.71     | 393.05     | 405.41     | 102.1 | 85.30
Bond    | 0.02828    | 0.030608   | 0.03605    |   1.2 |  0.01
Neigh   | 3.2058     | 3.8084     | 3.9767     |  12.0 |  0.83
Comm    | 12.048     | 24.405     | 76.744     | 409.9 |  5.30
Output  | 0.034447   | 0.090058   | 0.20556    |  20.1 |  0.02
Modify  | 38.976     | 39.138     | 39.726     |   3.6 |  8.49
Other   |            | 0.2685     |            |       |  0.06

Nlocal:         46.375 ave          50 max          38 min
Histogram: 1 0 0 1 0 0 1 0 1 4
Nghost:         3450.5 ave        3511 max        3389 min
Histogram: 2 1 0 0 0 1 1 2 0 1
Neighs:        29279.8 ave       31207 max       24277 min
Histogram: 1 0 0 1 0 0 1 0 0 5

Total # of neighbors = 234238
Ave neighs/atom = 631.36927
Ave special neighs/atom = 0
Neighbor list builds = 136
Dangerous builds = 0
  using 1 OpenMP thread(s) per MPI task
Reading restart file ...
  restart file = 2 Aug 2023, LAMMPS = 2 Aug 2023
  restoring atom style full from restart
  triclinic box = (0 0 0) to (17.3186 12.8149 18.6403) with tilt (-8.851 0.4589 0.2054)
WARNING: Triclinic box skew is large. LAMMPS will run inefficiently. (src/domain.cpp:220)
  2 by 2 by 2 MPI processor grid
  pair style reaxff stores no restart info
  371 atoms
Finding 1-2 1-3 1-4 neighbors ...
  special bond factors lj:    0        0        0       
  special bond factors coul:  0        0        0       
     0 = max # of 1-2 neighbors
     0 = max # of 1-3 neighbors
     0 = max # of 1-4 neighbors
     1 = max # of special neighbors
  special bonds CPU = 0.000 seconds
  read_restart CPU = 0.003 seconds
*****Positive-deform 2 starts.*****
WARNING: Van der Waals parameters for element SI indicate inner wall+shielding, but earlier atoms indicate a different van der Waals method. This may cause division-by-zero errors. Keeping van der Waals setting for earlier atoms. (src/REAXFF/reaxff_ffield.cpp:251)
Neighbor list info ...
  update: every = 10 steps, delay = 0 steps, check = yes
  max neighbors/atom: 2000, page size: 100000
  master list distance cutoff = 12
  ghost atom cutoff = 12
  binsize = 6, bins = 5 3 4
  2 neighbor lists, perpetual/occasional/extra = 2 0 0
  (1) pair reaxff, perpetual
      attributes: half, newton off, ghost
      pair build: half/bin/newtoff/ghost
      stencil: full/ghost/bin/3d
      bin: standard
  (2) fix qeq/reaxff, perpetual, copy from (1)
      attributes: half, newton off
      pair build: copy
      stencil: none
      bin: none
Setting up Verlet run ...
  Unit style    : real
  Current step  : 0
  Time step     : 0.5
Per MPI rank memory allocation (min/avg/max) = 131.1 | 133.4 | 135.3 Mbytes
   Step          Temp          PotEng         Press          Volume    
         0   300           -37819.86      -1880.9868      4136.956     
       100   303.86962     -37820.587     -6263.9002      4137.3697    
       200   288.3823      -37801.222     -7103.9247      4137.7834    
       300   307.73468     -37821.561      5938.0715      4138.1971    
       400   307.82621     -37835.769     -6699.3796      4138.6108    
       500   285.38393     -37836.365     -15707.316      4139.0245    
       600   292.70913     -37852.762     -7040.0953      4139.4382    
       700   301.32998     -37850.786     -16460.344      4139.8519    
       800   308.44749     -37819.206      3002.4362      4140.2656    
       900   308.19976     -37819.123     -6208.3815      4140.6793    
      1000   304.52932     -37837.172     -18510.531      4141.0929    
      1100   292.29816     -37838.556     -7029.7655      4141.5066    
      1200   308.86333     -37855.435     -23298.269      4141.9203    
      1300   295.8648      -37836.622     -3795.6031      4142.334     
      1400   291.18668     -37828.36       2689.7155      4142.7477    
      1500   283.27047     -37816.491     -1249.6477      4143.1614    
      1600   307.34869     -37843.938      5396.3785      4143.5751    
      1700   303.15062     -37858.156     -16127.708      4143.9888    
      1800   279.65865     -37848.861     -9262.824       4144.4025    
      1900   305.40454     -37854.21      -3170.2527      4144.8162    
      2000   293.05872     -37813.329      4429.9202      4145.2299    
      2100   301.87882     -37830.599     -3640.7618      4145.6436    
      2200   304.49808     -37852.934     -3058.1505      4146.0573    
      2300   289.22902     -37849.422     -11603.173      4146.471     
      2400   298.76898     -37837.852     -8409.7137      4146.8847    
      2500   295.62849     -37800.126     -13247.466      4147.2984    
      2600   303.22313     -37817.956     -22222.596      4147.7121    
      2700   293.58905     -37832.512     -4595.7342      4148.1258    
      2800   304.17593     -37857.508      3722.9647      4148.5395    
      2900   298.33256     -37854.744     -5649.8393      4148.9532    
      3000   299.44345     -37860.035     -5936.497       4149.3669    
      3100   304.40222     -37851.475     -5811.2943      4149.7806    
      3200   315.67363     -37840.569     -11857.588      4150.1942    
      3300   296.07792     -37822.466     -10102.353      4150.6079    
      3400   308.86079     -37842.749     -7717.4401      4151.0216    
      3500   309.88636     -37866.317     -2769.8227      4151.4353    
      3600   297.66639     -37868.001     -9989.9735      4151.849     
      3700   289.88772     -37857.138     -16456.773      4152.2627    
      3800   313.4341      -37848.817     -7087.6604      4152.6764    
      3900   298.95687     -37823.286     -5174.5377      4153.0901    
      4000   305.82669     -37837.509     -7040.4621      4153.5038    
      4100   297.21519     -37855.544     -1831.0263      4153.9175    
      4200   306.48378     -37887.584     -2026.8724      4154.3312    
      4300   283.78758     -37859.596     -8803.3803      4154.7449    
      4400   311.96225     -37841.879     -12536.163      4155.1586    
      4500   303.34944     -37829.012     -8218.649       4155.5723    
      4600   292.08236     -37818.011     -10703.979      4155.986     
      4700   300.46439     -37841.819     -15081.766      4156.3997    
      4800   286.03281     -37849.184      5992.6756      4156.8134    
      4900   304.07154     -37866.097     -7988.9373      4157.2271    
      5000   322.4419      -37854.931     -5520.3847      4157.6408    
      5100   313.30275     -37828.064     -16465.096      4158.0545    
      5200   305.83608     -37828.668     -2795.3463      4158.4682    
      5300   304.14367     -37852.209     -8705.9003      4158.8819    
      5400   284.96771     -37849.807     -2239.0106      4159.2956    
      5500   286.19345     -37844.487     -14686.901      4159.7092    
      5600   301.59404     -37847.313     -8119.2663      4160.1229    
      5700   317.73645     -37850.367     -3427.5686      4160.5366    
      5800   314.16397     -37842.968     -737.66786      4160.9503    
      5900   310.90859     -37859.801      660.17334      4161.364     
      6000   294.8767      -37869.106     -12158.336      4161.7777    
      6100   294.99841     -37863.113     -8590.246       4162.1914    
      6200   284.47349     -37824.416     -13024.66       4162.6051    
      6300   287.84556     -37819.737     -1540.7138      4163.0188    
      6400   317.94909     -37855.787     -3957.4241      4163.4325    
      6500   302.21925     -37851.638      856.69645      4163.8462    
      6600   291.1955      -37861.183     -8392.4286      4164.2599    
      6700   283.0896      -37878.003     -33949.001      4164.6736    
      6800   258.79441     -37841.406     -18276.716      4165.0873    
      6900   286.52661     -37833.387     -4809.9606      4165.501     
      7000   311.97106     -37845.829     -14536.334      4165.9147    
      7100   316.89387     -37837.273     -5461.0228      4166.3284    
      7200   318.14035     -37837.279      4083.8538      4166.7421    
      7300   313.9954      -37863.461     -2885.2687      4167.1558    
      7400   284.24899     -37847.635     -10953.495      4167.5695    
      7500   292.94953     -37849.09      -11549.349      4167.9832    
      7600   299.32533     -37830.783     -10980.154      4168.3969    
      7700   315.62727     -37841.62      -7267.3436      4168.8106    
      7800   312.26793     -37852.084     -18349.681      4169.2242    
      7900   293.89675     -37847.926     -5727.2411      4169.6379    
      8000   298.21435     -37853.177     -13088.311      4170.0516    
      8100   317.04842     -37855.513     -14497.417      4170.4653    
      8200   335.52699     -37841.935     -16993.4        4170.879     
      8300   326.84774     -37843.746     -5883.0344      4171.2927    
      8400   280.53731     -37831.155     -5850.1185      4171.7064    
      8500   306.27651     -37859.82      -3950.0006      4172.1201    
      8600   308.05222     -37865.249     -11356.612      4172.5338    
      8700   294.98472     -37847.63      -11922.594      4172.9475    
      8800   306.25596     -37838.108     -4798.9465      4173.3612    
      8900   313.52309     -37824.066      2886.7573      4173.7749    
      9000   302.13664     -37832.542      5592.5936      4174.1886    
      9100   306.62004     -37859.799      5289.9444      4174.6023    
      9200   294.72234     -37862.278     -768.17377      4175.016     
      9300   302.55484     -37880.227      1389.0237      4175.4297    
      9400   294.5512      -37890.023     -1068.6529      4175.8434    
      9500   289.81465     -37900.351     -16409.206      4176.2571    
      9600   325.11347     -37959.549     -8062.0147      4176.6708    
      9700   292.73965     -37955.235     -6788.9022      4177.0845    
      9800   288.52404     -37952.194      8012.0835      4177.4982    
      9900   316.14488     -37967.326     -3158.9403      4177.9119    
     10000   333.28719     -37954.743     -16991.596      4178.3256    
Loop time of 445.488 on 8 procs for 10000 steps with 371 atoms

Performance: 0.970 ns/day, 24.749 hours/ns, 22.447 timesteps/s, 8.328 katom-step/s
98.8% CPU use with 8 MPI tasks x 1 OpenMP threads

MPI task timing breakdown:
Section |  min time  |  avg time  |  max time  |%varavg| %total
---------------------------------------------------------------
Pair    | 366.66     | 383.92     | 396.39     |  51.4 | 86.18
Bond    | 0.027451   | 0.030206   | 0.034418   |   1.2 |  0.01
Neigh   | 4.2248     | 4.3341     | 4.4605     |   4.2 |  0.97
Comm    | 6.245      | 18.748     | 36.026     | 232.9 |  4.21
Output  | 0.033886   | 0.089761   | 0.20541    |  20.2 |  0.02
Modify  | 37.865     | 37.966     | 38.093     |   1.3 |  8.52
Other   |            | 0.3969     |            |       |  0.09

Nlocal:         46.375 ave          52 max          40 min
Histogram: 2 0 0 0 0 1 4 0 0 1
Nghost:        3361.25 ave        3394 max        3312 min
Histogram: 1 1 0 0 2 0 0 0 1 3
Neighs:        28672.2 ave       32101 max       24877 min
Histogram: 2 0 0 0 1 0 4 0 0 1

Total # of neighbors = 229378
Ave neighs/atom = 618.26954
Ave special neighs/atom = 0
Neighbor list builds = 158
Dangerous builds = 0
  using 1 OpenMP thread(s) per MPI task
Reading restart file ...
  restart file = 2 Aug 2023, LAMMPS = 2 Aug 2023
  restoring atom style full from restart
  triclinic box = (0 0 0) to (17.3186 12.8149 18.6403) with tilt (-8.851 0.4589 0.2054)
WARNING: Triclinic box skew is large. LAMMPS will run inefficiently. (src/domain.cpp:220)
  2 by 2 by 2 MPI processor grid
  pair style reaxff stores no restart info
  371 atoms
Finding 1-2 1-3 1-4 neighbors ...
  special bond factors lj:    0        0        0       
  special bond factors coul:  0        0        0       
     0 = max # of 1-2 neighbors
     0 = max # of 1-3 neighbors
     0 = max # of 1-4 neighbors
     1 = max # of special neighbors
  special bonds CPU = 0.000 seconds
  read_restart CPU = 0.003 seconds
*****debug*****
xy = -8.8510000000000008669, deltaxy = 0.08851
xz = 0.4588999999999999746, deltaxz = -0.004589
yz = 0.20539999999999999925, deltayz = -0.002054
*****
*****Negative-deform 3 starts.*****
WARNING: Van der Waals parameters for element SI indicate inner wall+shielding, but earlier atoms indicate a different van der Waals method. This may cause division-by-zero errors. Keeping van der Waals setting for earlier atoms. (src/REAXFF/reaxff_ffield.cpp:251)
Neighbor list info ...
  update: every = 10 steps, delay = 0 steps, check = yes
  max neighbors/atom: 2000, page size: 100000
  master list distance cutoff = 12
  ghost atom cutoff = 12
  binsize = 6, bins = 5 3 4
  2 neighbor lists, perpetual/occasional/extra = 2 0 0
  (1) pair reaxff, perpetual
      attributes: half, newton off, ghost
      pair build: half/bin/newtoff/ghost
      stencil: full/ghost/bin/3d
      bin: standard
  (2) fix qeq/reaxff, perpetual, copy from (1)
      attributes: half, newton off
      pair build: copy
      stencil: none
      bin: none
Setting up Verlet run ...
  Unit style    : real
  Current step  : 0
  Time step     : 0.5
Per MPI rank memory allocation (min/avg/max) = 131 | 133.4 | 135.3 Mbytes
   Step          Temp          PotEng         Press          Volume    
         0   300           -37819.86      -1880.9868      4136.956     
       100   303.86895     -37820.581     -6260.9554      4136.5423    
       200   288.23483     -37801.12      -6878.2706      4136.1286    
       300   309.62538     -37824.514      5734.4729      4135.7149    
       400   307.95898     -37837.215     -6186.3319      4135.3012    
       500   287.97698     -37840.785     -16031.898      4134.8875    
       600   295.2559      -37855.651     -4326.0617      4134.4738    
       700   301.94715     -37847.33      -16449.375      4134.0601    
       800   308.35029     -37817.599      2077.1707      4133.6464    
       900   311.38557     -37824.279     -3712.1559      4133.2327    
      1000   306.74274     -37841.892     -16402.171      4132.819     
      1100   289.60635     -37836.666     -6979.4492      4132.4053    
      1200   310.24872     -37856.821     -23907.197      4131.9916    
      1300   294.35782     -37834.615     -6926.4865      4131.5779    
      1400   304.46448     -37844.182     -4156.7028      4131.1643    
      1500   286.35504     -37826.313      603.36757      4130.7506    
      1600   311.36331     -37855.381      14366.242      4130.3369    
      1700   313.55845     -37864.621     -15560.329      4129.9232    
      1800   289.26623     -37864.54       1369.2548      4129.5095    
      1900   278.89711     -37867.679      357.50622      4129.0958    
      2000   299.09184     -37871.111     -17456.565      4128.6821    
      2100   294.30457     -37832.943     -12279.47       4128.2684    
      2200   306.99605     -37839.495     -7073.5437      4127.8547    
      2300   292.47926     -37830.219     -9065.332       4127.441     
      2400   310.65805     -37877.091     -584.19378      4127.0273    
      2500   283.2301      -37856.794     -16890.408      4126.6136    
      2600   288.78028     -37850.216     -8217.2698      4126.1999    
      2700   313.57941     -37849.207     -13016.943      4125.7862    
      2800   323.76034     -37819.153     -9086.6711      4125.3725    
      2900   314.50168     -37834.131     -11890.175      4124.9588    
      3000   297.39079     -37845.397     -6901.8221      4124.5451    
      3100   295.98274     -37884.069     -1043.9684      4124.1314    
      3200   296.91538     -37909.647      4190.7546      4123.7177    
      3300   303.71813     -37934.091     -10281.39       4123.304     
      3400   312.82984     -37945.25       4921.8586      4122.8903    
      3500   294.72642     -37916.905     -9196.9591      4122.4766    
      3600   321.46076     -37943.658     -860.99852      4122.0629    
      3700   289.3871      -37938.464      1949.3649      4121.6493    
      3800   290.47534     -37952.8       -5893.1871      4121.2356    
      3900   297.30483     -37954.025     -316.82921      4120.8219    
      4000   312.10063     -37942.998     -11200.865      4120.4082    
      4100   310.80133     -37912.778     -11482.226      4119.9945    
      4200   319.20176     -37911.682     -802.65112      4119.5808    
      4300   305.89353     -37942.141     -4969.1751      4119.1671    
      4400   273.04311     -37929.214     -6408.8959      4118.7534    
      4500   310.49295     -37969.246      3105.196       4118.3397    
      4600   281.30534     -37936.867     -1299.1613      4117.926     
      4700   293.84427     -37927.192     -8773.0254      4117.5123    
      4800   324.23397     -37935.877     -8750.9604      4117.0986    
      4900   340.56744     -37962.454     -11056.163      4116.6849    
      5000   297.46507     -37940.557     -286.52674      4116.2712    
      5100   299.36651     -37948.023      6372.8909      4115.8575    
      5200   296.47516     -37945.831      5261.3583      4115.4438    
      5300   299.67426     -37943.891      1512.5757      4115.0301    
      5400   307.35039     -37937.205     -9325.787       4114.6164    
      5500   301.52359     -37921.491     -6706.4206      4114.2027    
      5600   298.25795     -37939.63       5099.5619      4113.789     
      5700   293.47895     -37958.356     -7610.1549      4113.3753    
      5800   312.85123     -37977.597     -3292.996       4112.9616    
      5900   304.06339     -37950.582     -4117.6608      4112.548     
      6000   308.04847     -37946.241     -846.82732      4112.1343    
      6100   292.95519     -37932.818     -1789.8454      4111.7206    
      6200   295.03463     -37938.811      563.15839      4111.3069    
      6300   302.78241     -37956.38      -984.07872      4110.8932    
      6400   289.39445     -37942.685      1950.0954      4110.4795    
      6500   299.11466     -37934.535     -1276.3701      4110.0658    
      6600   313.45513     -37929.8        4445.8317      4109.6521    
      6700   332.68193     -37955.667     -10306.853      4109.2384    
      6800   280.05781     -37936.271      3174.1989      4108.8247    
      6900   293.38358     -37958.661     -6209.3734      4108.411     
      7000   290.4473      -37944.863     -14836.265      4107.9973    
      7100   299.15768     -37930.692     -17784.5        4107.5836    
      7200   336.77847     -37960.062     -12003.681      4107.1699    
      7300   288.09866     -37936.882     -8571.1907      4106.7562    
      7400   299.13255     -37971.637     -1460.7307      4106.3425    
      7500   276.14057     -37944.108     -9279.2337      4105.9288    
      7600   310.01133     -37954.848     -4346.7821      4105.5151    
      7700   300.82935     -37933.477     -686.98156      4105.1014    
      7800   306.60686     -37937.586     -3190.4068      4104.6877    
      7900   292.6328      -37934.542     -1693.2908      4104.274     
      8000   281.59885     -37960.966     -12286.876      4103.8603    
      8100   291.34805     -37959.687     -5079.3134      4103.4466    
      8200   315.55182     -37962.142     -1690.6859      4103.033     
      8300   295.47941     -37932.226     -2241.3794      4102.6193    
      8400   311.37333     -37951.011      402.99128      4102.2056    
      8500   273.10353     -37944.536     -5625.1045      4101.7919    
      8600   286.72846     -37969.239     -6392.7631      4101.3782    
      8700   294.72127     -37957.634     -16496.713      4100.9645    
      8800   302.22659     -37950.511     -3734.2951      4100.5508    
      8900   298.73173     -37937.247     -1466.1791      4100.1371    
      9000   309.09109     -37940.884      466.25918      4099.7234    
      9100   300.68571     -37946.517     -7838.2436      4099.3097    
      9200   302.82202     -37982.034     -4885.6257      4098.896     
      9300   298.67625     -37973.953     -10824.481      4098.4823    
      9400   294.0788      -37954.458     -14791.698      4098.0686    
      9500   294.36021     -37940.422      63.433051      4097.6549    
      9600   309.60408     -37943.005      2748.4755      4097.2412    
      9700   331.65518     -37951.713      3088.9132      4096.8275    
      9800   314.87696     -37931.043     -6236.143       4096.4138    
      9900   296.56915     -37940.185      2636.3914      4096.0001    
     10000   288.03841     -37952.843     -2791.5646      4095.5864    
Loop time of 455.296 on 8 procs for 10000 steps with 371 atoms

Performance: 0.949 ns/day, 25.294 hours/ns, 21.964 timesteps/s, 8.149 katom-step/s
98.9% CPU use with 8 MPI tasks x 1 OpenMP threads

MPI task timing breakdown:
Section |  min time  |  avg time  |  max time  |%varavg| %total
---------------------------------------------------------------
Pair    | 293.69     | 366.76     | 409.86     | 190.0 | 80.56
Bond    | 0.027861   | 0.029978   | 0.032989   |   0.8 |  0.01
Neigh   | 3.0148     | 3.7949     | 4.1681     |  18.9 |  0.83
Comm    | 3.1875     | 46.299     | 119.36     | 534.3 | 10.17
Output  | 0.031792   | 0.079642   | 0.17904    |  18.3 |  0.02
Modify  | 37.681     | 38.073     | 38.858     |   6.1 |  8.36
Other   |            | 0.2557     |            |       |  0.06

Nlocal:         46.375 ave          51 max          40 min
Histogram: 1 0 0 2 1 0 0 0 3 1
Nghost:        3409.38 ave        3502 max        3327 min
Histogram: 2 0 0 0 3 0 1 1 0 1
Neighs:        29309.8 ave       31920 max       25500 min
Histogram: 1 0 0 1 2 0 0 0 3 1

Total # of neighbors = 234478
Ave neighs/atom = 632.01617
Ave special neighs/atom = 0
Neighbor list builds = 145
Dangerous builds = 0
  using 1 OpenMP thread(s) per MPI task
Reading restart file ...
  restart file = 2 Aug 2023, LAMMPS = 2 Aug 2023
  restoring atom style full from restart
  triclinic box = (0 0 0) to (17.3186 12.8149 18.6403) with tilt (-8.851 0.4589 0.2054)
WARNING: Triclinic box skew is large. LAMMPS will run inefficiently. (src/domain.cpp:220)
  2 by 2 by 2 MPI processor grid
  pair style reaxff stores no restart info
  371 atoms
Finding 1-2 1-3 1-4 neighbors ...
  special bond factors lj:    0        0        0       
  special bond factors coul:  0        0        0       
     0 = max # of 1-2 neighbors
     0 = max # of 1-3 neighbors
     0 = max # of 1-4 neighbors
     1 = max # of special neighbors
  special bonds CPU = 0.000 seconds
  read_restart CPU = 0.003 seconds
*****Positive-deform 3 starts.*****
WARNING: Van der Waals parameters for element SI indicate inner wall+shielding, but earlier atoms indicate a different van der Waals method. This may cause division-by-zero errors. Keeping van der Waals setting for earlier atoms. (src/REAXFF/reaxff_ffield.cpp:251)
Neighbor list info ...
  update: every = 10 steps, delay = 0 steps, check = yes
  max neighbors/atom: 2000, page size: 100000
  master list distance cutoff = 12
  ghost atom cutoff = 12
  binsize = 6, bins = 5 3 4
  2 neighbor lists, perpetual/occasional/extra = 2 0 0
  (1) pair reaxff, perpetual
      attributes: half, newton off, ghost
      pair build: half/bin/newtoff/ghost
      stencil: full/ghost/bin/3d
      bin: standard
  (2) fix qeq/reaxff, perpetual, copy from (1)
      attributes: half, newton off
      pair build: copy
      stencil: none
      bin: none
Setting up Verlet run ...
  Unit style    : real
  Current step  : 0
  Time step     : 0.5
Per MPI rank memory allocation (min/avg/max) = 131 | 133.4 | 135.3 Mbytes
   Step          Temp          PotEng         Press          Volume    
         0   300           -37819.86      -1880.9868      4136.956     
       100   303.86943     -37820.582     -6259.3737      4137.3697    
       200   288.23905     -37801.116     -7069.8041      4137.7834    
       300   307.22347     -37820.712      6708.7674      4138.1971    
       400   309.23413     -37836.631     -6845.381       4138.6108    
       500   283.4326      -37833.125     -14774.713      4139.0245    
       600   294.21264     -37853.772     -6939.4418      4139.4382    
       700   299.94046     -37852.158     -16370.251      4139.8519    
       800   306.5097      -37818.572      3824.0993      4140.2656    
       900   312.84005     -37822.325     -8360.7044      4140.6793    
      1000   302.99673     -37833.654     -17672.666      4141.0929    
      1100   295.91405     -37842.679     -4388.7676      4141.5066    
      1200   304.84391     -37851.726     -23353.951      4141.9203    
      1300   295.15451     -37837.977     -8909.2929      4142.334     
      1400   292.60486     -37829.58       4956.6196      4142.7477    
      1500   277.83323     -37813.005     -3370.7746      4143.1614    
      1600   317.99971     -37857.337      4650.2194      4143.5751    
      1700   299.52177     -37842.457     -24645.183      4143.9888    
      1800   292.64187     -37848.328     -9869.8377      4144.4025    
      1900   298.50985     -37854.249      4813.1513      4144.8162    
      2000   300.66139     -37830.465     -8008.935       4145.2299    
      2100   295.65025     -37808.819     -4382.8383      4145.6436    
      2200   295.37159     -37822.223     -12082.759      4146.0573    
      2300   285.6362      -37831.223     -13017.33       4146.471     
      2400   285.80343     -37842.078     -6373.5342      4146.8847    
      2500   295.55418     -37838.829     -2322.0462      4147.2984    
      2600   316.12175     -37829.032     -17376.528      4147.7121    
      2700   312.035       -37830.649     -9453.5304      4148.1258    
      2800   284.98995     -37823.092     -2671.2604      4148.5395    
      2900   292.87395     -37844.915      8568.4106      4148.9532    
      3000   295.97617     -37852.108     -5259.9205      4149.3669    
      3100   308.53484     -37866.843     -1221.9532      4149.7806    
      3200   294.91472     -37845.712     -8819.7754      4150.1942    
      3300   304.47579     -37831.698     -21208.175      4150.6079    
      3400   299.83119     -37818.062     -6615.1415      4151.0216    
      3500   316.48763     -37852.74      -662.64518      4151.4353    
      3600   302.5749      -37874.043      5358.0936      4151.849     
      3700   288.4625      -37858.475      5877.8422      4152.2627    
      3800   287.37313     -37835.254     -12736.983      4152.6764    
      3900   302.00385     -37831.667     -2048.2831      4153.0901    
      4000   297.35482     -37825.95      -7942.0359      4153.5038    
      4100   308.93677     -37850.495     -1364.1029      4153.9175    
      4200   291.06989     -37856.471     -13097.859      4154.3312    
      4300   292.15368     -37884.984     -12734.634      4154.7449    
      4400   260.46151     -37883.552     -6068.7185      4155.1586    
      4500   273.73546     -37872.946     -2963.5644      4155.5723    
      4600   292.24639     -37866.396      2758.5838      4155.986     
      4700   296.36049     -37849.375     -7389.6456      4156.3997    
      4800   290.5676      -37820.811     -6939.5442      4156.8134    
      4900   288.92937     -37825.583     -18464.35       4157.2271    
      5000   299.58421     -37860.472     -15285.982      4157.6408    
      5100   303.09769     -37866.152     -4783.3631      4158.0545    
      5200   306.96638     -37844.658     -1058.2784      4158.4682    
      5300   332.79027     -37845.882      1029.8931      4158.8819    
      5400   311.45162     -37830.382     -10366.096      4159.2956    
      5500   282.00677     -37831.982     -14125.95       4159.7092    
      5600   302.5784      -37864.291      2385.4801      4160.1229    
      5700   295.51169     -37852.132     -12052.938      4160.5366    
      5800   322.83081     -37866.045     -7337.2099      4160.9503    
      5900   322.0804      -37865.057      92.371024      4161.364     
      6000   287.21838     -37855.048     -6050.7461      4161.7777    
      6100   290.63011     -37887.909      2316.1028      4162.1914    
      6200   275.52602     -37861.86      -15027.088      4162.6051    
      6300   281.99796     -37847.56       4972.372       4163.0188    
      6400   323.72479     -37876.706     -8186.6697      4163.4325    
      6500   298.88684     -37861.432     -8780.6785      4163.8462    
      6600   285.81401     -37857.2       -13326.386      4164.2599    
      6700   285.76019     -37853.529     -14481.171      4164.6736    
      6800   319.55853     -37864.149     -6412.9472      4165.0873    
      6900   316.6933      -37847.272     -10167.995      4165.501     
      7000   305.47153     -37862.927     -6400.8412      4165.9147    
      7100   315.5883      -37891.11      -5938.4418      4166.3284    
      7200   306.44756     -37886.275     -4455.6633      4166.7421    
      7300   302.86546     -37880.209     -7591.3659      4167.1558    
      7400   291.52454     -37861.125     -7503.2112      4167.5695    
      7500   308.51368     -37861.015     -10082.243      4167.9832    
      7600   310.5404      -37853.397     -4865.0252      4168.3969    
      7700   303.86945     -37867.686     -18462.555      4168.8106    
      7800   292.11109     -37877.822     -10727.084      4169.2242    
      7900   289.89108     -37871.163     -10014.6        4169.6379    
      8000   286.70033     -37849.941      0.28271102     4170.0516    
      8100   305.27817     -37859.717     -8389.2266      4170.4653    
      8200   302.30283     -37857.403     -21009.87       4170.879     
      8300   301.94559     -37862.12      -11013.995      4171.2927    
      8400   310.35168     -37880.025     -6708.7694      4171.7064    
      8500   286.73137     -37874.996     -507.60981      4172.1201    
      8600   273.70869     -37880.903     -9659.3348      4172.5338    
      8700   312.24861     -37912.179      5621.068       4172.9475    
      8800   309.39258     -37868.959     -6521.9533      4173.3612    
      8900   281.89733     -37830.042     -12132.977      4173.7749    
      9000   294.76745     -37835.521      1186.541       4174.1886    
      9100   328.82718     -37854.666     -10270.304      4174.6023    
      9200   313.33149     -37861.203     -16083.57       4175.016     
      9300   294.21145     -37870.98      -7556.6523      4175.4297    
      9400   295.38116     -37881.72      -13562.187      4175.8434    
      9500   295.69081     -37880.459     -12210.873      4176.2571    
      9600   335.43768     -37894.47      -2871.4732      4176.6708    
      9700   311.40606     -37872.047     -18145.169      4177.0845    
      9800   317.9441      -37909.224     -15853.136      4177.4982    
      9900   294.14279     -37912.842     -6403.6125      4177.9119    
     10000   298.06903     -37939.9       -5345.9071      4178.3256    
Loop time of 452.658 on 8 procs for 10000 steps with 371 atoms

Performance: 0.954 ns/day, 25.148 hours/ns, 22.092 timesteps/s, 8.196 katom-step/s
98.9% CPU use with 8 MPI tasks x 1 OpenMP threads

MPI task timing breakdown:
Section |  min time  |  avg time  |  max time  |%varavg| %total
---------------------------------------------------------------
Pair    | 281.59     | 360.97     | 407.6      | 229.5 | 79.74
Bond    | 0.027611   | 0.030134   | 0.033205   |   0.9 |  0.01
Neigh   | 2.6949     | 3.478      | 3.9066     |  24.3 |  0.77
Comm    | 3.248      | 49.896     | 129.26     | 617.6 | 11.02
Output  | 0.032095   | 0.08831    | 0.20511    |  20.4 |  0.02
Modify  | 37.534     | 37.939     | 38.719     |   7.4 |  8.38
Other   |            | 0.2559     |            |       |  0.06

Nlocal:         46.375 ave          55 max          37 min
Histogram: 1 1 0 1 0 0 3 1 0 1
Nghost:           3385 ave        3456 max        3312 min
Histogram: 2 0 0 1 0 1 2 1 0 1
Neighs:        28640.4 ave       33529 max       23193 min
Histogram: 1 1 0 1 0 0 3 1 0 1

Total # of neighbors = 229123
Ave neighs/atom = 617.58221
Ave special neighs/atom = 0
Neighbor list builds = 135
Dangerous builds = 0
  using 1 OpenMP thread(s) per MPI task
Reading restart file ...
  restart file = 2 Aug 2023, LAMMPS = 2 Aug 2023
  restoring atom style full from restart
  triclinic box = (0 0 0) to (17.3186 12.8149 18.6403) with tilt (-8.851 0.4589 0.2054)
WARNING: Triclinic box skew is large. LAMMPS will run inefficiently. (src/domain.cpp:220)
  2 by 2 by 2 MPI processor grid
  pair style reaxff stores no restart info
  371 atoms
Finding 1-2 1-3 1-4 neighbors ...
  special bond factors lj:    0        0        0       
  special bond factors coul:  0        0        0       
     0 = max # of 1-2 neighbors
     0 = max # of 1-3 neighbors
     0 = max # of 1-4 neighbors
     1 = max # of special neighbors
  special bonds CPU = 0.000 seconds
  read_restart CPU = 0.004 seconds
*****debug*****
xy = -8.8510000000000008669, deltaxy = 0.08851
xz = 0.4588999999999999746, deltaxz = -0.004589
yz = 0.20539999999999999925, deltayz = -0.002054
*****
*****Negative-deform 4 starts.*****
WARNING: Van der Waals parameters for element SI indicate inner wall+shielding, but earlier atoms indicate a different van der Waals method. This may cause division-by-zero errors. Keeping van der Waals setting for earlier atoms. (src/REAXFF/reaxff_ffield.cpp:251)
Neighbor list info ...
  update: every = 10 steps, delay = 0 steps, check = yes
  max neighbors/atom: 2000, page size: 100000
  master list distance cutoff = 12
  ghost atom cutoff = 12
  binsize = 6, bins = 5 3 4
  2 neighbor lists, perpetual/occasional/extra = 2 0 0
  (1) pair reaxff, perpetual
      attributes: half, newton off, ghost
      pair build: half/bin/newtoff/ghost
      stencil: full/ghost/bin/3d
      bin: standard
  (2) fix qeq/reaxff, perpetual, copy from (1)
      attributes: half, newton off
      pair build: copy
      stencil: none
      bin: none
Setting up Verlet run ...
  Unit style    : real
  Current step  : 0
  Time step     : 0.5
Per MPI rank memory allocation (min/avg/max) = 131 | 133.4 | 135.3 Mbytes
   Step          Temp          PotEng         Press          Volume    
         0   300           -37819.86      -1880.9868      4136.956     
       100   303.86725     -37820.58      -6260.0094      4136.956     
       200   288.28749     -37801.197     -6986.4168      4136.956     
       300   308.53132     -37822.16       5957.2763      4136.956     
       400   308.57845     -37835.868     -6996.2581      4136.956     
       500   285.22461     -37835.899     -15756.95       4136.956     
       600   294.76759     -37854.71      -6035.1158      4136.956     
       700   300.36801     -37850.965     -15570.087      4136.956     
       800   308.48338     -37819.622      3445.0348      4136.956     
       900   309.42513     -37819.52      -5871.0534      4136.956     
      1000   304.451       -37836.464     -17301.799      4136.956     
      1100   295.54012     -37841.4       -5707.3744      4136.956     
      1200   306.25734     -37850.484     -25404.806      4136.956     
      1300   290.56465     -37829.466     -8979.6793      4136.956     
      1400   286.73003     -37822.482      5516.7881      4136.956     
      1500   288.78648     -37823.17      -3903.7896      4136.956     
      1600   303.86681     -37845.28       11248.634      4136.956     
      1700   305.65139     -37859.286     -17521.144      4136.956     
      1800   275.04251     -37839.374     -6065.755       4136.956     
      1900   297.46573     -37845.25       2551.7492      4136.956     
      2000   296.55058     -37817.767      3589.4025      4136.956     
      2100   298.58819     -37814.788     -11149.731      4136.956     
      2200   296.7164      -37829.127     -1381.5489      4136.956     
      2300   270.32154     -37832.563     -5965.5164      4136.956     
      2400   285.72374     -37848.479     -6646.7719      4136.956     
      2500   290.7446      -37843.358     -21279.55       4136.956     
      2600   304.33966     -37851.608     -8118.4176      4136.956     
      2700   291.68666     -37836.124      2155.1257      4136.956     
      2800   296.29506     -37824.124      1775.4476      4136.956     
      2900   323.20168     -37833.407      1378.7574      4136.956     
      3000   295.70577     -37826.605     -9117.9675      4136.956     
      3100   278.97176     -37833.3        4468.2686      4136.956     
      3200   302.9864      -37856.88      -10604.978      4136.956     
      3300   309.5107      -37853.553     -15250.342      4136.956     
      3400   305.11117     -37822.125      1243.851       4136.956     
      3500   319.39642     -37821.79      -6570.6441      4136.956     
      3600   297.75605     -37831.133     -14267.721      4136.956     
      3700   304.57451     -37847.876     -15859.26       4136.956     
      3800   285.03212     -37837.539     -11378.307      4136.956     
      3900   297.67844     -37856.651     -8543.6154      4136.956     
      4000   288.23471     -37834.765     -9480.1629      4136.956     
      4100   313.6349      -37831.378     -11285.346      4136.956     
      4200   315.47455     -37827.288     -6086.6997      4136.956     
      4300   295.90818     -37828.219     -2780.8869      4136.956     
      4400   285.96527     -37840.452     -4286.6748      4136.956     
      4500   285.07182     -37837.659     -5591.0233      4136.956     
      4600   291.00019     -37834         -542.18812      4136.956     
      4700   303.73248     -37833.475     -1998.0056      4136.956     
      4800   305.02791     -37815.534      2638.2245      4136.956     
      4900   324.20447     -37827.009     -5629.1513      4136.956     
      5000   309.77017     -37837.357     -1907.3095      4136.956     
      5100   289.77596     -37846.342     -3550.2762      4136.956     
      5200   309.22015     -37864.86      -12013.776      4136.956     
      5300   306.04421     -37843.379      7468.8505      4136.956     
      5400   308.62868     -37827.81       298.98075      4136.956     
      5500   313.02843     -37813.31      -5319.5401      4136.956     
      5600   319.50794     -37844.274     -3189.3237      4136.956     
      5700   291.81143     -37842.376     -15280.644      4136.956     
      5800   297.09712     -37840.446     -16129.766      4136.956     
      5900   312.23759     -37840.739      4784.654       4136.956     
      6000   323.13215     -37836.719     -5585.3008      4136.956     
      6100   312.40018     -37836.255     -3087.5307      4136.956     
      6200   277.13849     -37834.224     -7332.6469      4136.956     
      6300   303.76388     -37859.989     -8604.772       4136.956     
      6400   294.68376     -37840.864      2505.1033      4136.956     
      6500   301.36403     -37836.265     -8432.6368      4136.956     
      6600   321.81994     -37832.667     -18132.088      4136.956     
      6700   318.62946     -37817.907     -4603.3652      4136.956     
      6800   308.8319      -37834.253     -7026.9384      4136.956     
      6900   293.38483     -37845.258      3582.9086      4136.956     
      7000   303.82407     -37855.948     -9488.4295      4136.956     
      7100   295.4382      -37835.604     -8721.3019      4136.956     
      7200   301.84146     -37811.4       -8638.1484      4136.956     
      7300   307.18508     -37815.735     -12071.97       4136.956     
      7400   308.17458     -37831.27      -8755.8517      4136.956     
      7500   304.3859      -37840.689     -10071.704      4136.956     
      7600   311.62824     -37854.073     -1613.4539      4136.956     
      7700   289.11831     -37851.575     -6962.1108      4136.956     
      7800   277.3753      -37854.967     -8929.4418      4136.956     
      7900   306.77121     -37853.929     -3008.3336      4136.956     
      8000   292.7139      -37813.786      8543.1028      4136.956     
      8100   317.01611     -37849.685      9478.4141      4136.956     
      8200   305.86699     -37861.407      1698.9948      4136.956     
      8300   273.20378     -37831.397     -13737.617      4136.956     
      8400   291.49543     -37839.207     -3538.6099      4136.956     
      8500   307.84696     -37819.757     -2011.6872      4136.956     
      8600   308.89244     -37822.556      6982.7432      4136.956     
      8700   308.65266     -37848.187      229.49036      4136.956     
      8800   294.51119     -37841.756     -4776.3057      4136.956     
      8900   292.94212     -37840.206     -11410.15       4136.956     
      9000   300.00093     -37835.78      -3525.6228      4136.956     
      9100   308.35413     -37808.206     -10437.59       4136.956     
      9200   323.78687     -37817.348     -13065.387      4136.956     
      9300   310.71229     -37835.235     -12426.004      4136.956     
      9400   296.21513     -37833.308     -12161.462      4136.956     
      9500   298.98297     -37843.055     -1742.7664      4136.956     
      9600   294.35399     -37847.632     -730.0016       4136.956     
      9700   297.33956     -37863.93      -2999.9684      4136.956     
      9800   282.91468     -37865.212     -18761.968      4136.956     
      9900   284.67497     -37868.314     -3443.1992      4136.956     
     10000   298.1081      -37847.314     -12009.973      4136.956     
Loop time of 456.209 on 8 procs for 10000 steps with 371 atoms

Performance: 0.947 ns/day, 25.345 hours/ns, 21.920 timesteps/s, 8.132 katom-step/s
98.8% CPU use with 8 MPI tasks x 1 OpenMP threads

MPI task timing breakdown:
Section |  min time  |  avg time  |  max time  |%varavg| %total
---------------------------------------------------------------
Pair    | 295.77     | 369.26     | 408.31     | 199.2 | 80.94
Bond    | 0.027847   | 0.030052   | 0.033812   |   1.1 |  0.01
Neigh   | 2.688      | 3.4058     | 3.6891     |  20.4 |  0.75
Comm    | 5.8316     | 44.877     | 118.34     | 571.2 |  9.84
Output  | 0.033133   | 0.085596   | 0.19538    |  19.4 |  0.02
Modify  | 38.009     | 38.294     | 39.02      |   6.2 |  8.39
Other   |            | 0.2597     |            |       |  0.06

Nlocal:         46.375 ave          54 max          38 min
Histogram: 1 0 0 2 0 1 3 0 0 1
Nghost:        3423.88 ave        3461 max        3384 min
Histogram: 2 1 0 0 0 2 0 0 1 2
Neighs:        28931.5 ave       33263 max       24102 min
Histogram: 1 0 1 1 0 1 3 0 0 1

Total # of neighbors = 231452
Ave neighs/atom = 623.85984
Ave special neighs/atom = 0
Neighbor list builds = 130
Dangerous builds = 0
  using 1 OpenMP thread(s) per MPI task
Reading restart file ...
  restart file = 2 Aug 2023, LAMMPS = 2 Aug 2023
  restoring atom style full from restart
  triclinic box = (0 0 0) to (17.3186 12.8149 18.6403) with tilt (-8.851 0.4589 0.2054)
WARNING: Triclinic box skew is large. LAMMPS will run inefficiently. (src/domain.cpp:220)
  2 by 2 by 2 MPI processor grid
  pair style reaxff stores no restart info
  371 atoms
Finding 1-2 1-3 1-4 neighbors ...
  special bond factors lj:    0        0        0       
  special bond factors coul:  0        0        0       
     0 = max # of 1-2 neighbors
     0 = max # of 1-3 neighbors
     0 = max # of 1-4 neighbors
     1 = max # of special neighbors
  special bonds CPU = 0.000 seconds
  read_restart CPU = 0.003 seconds
*****Positive-deform 4 starts.*****
WARNING: Van der Waals parameters for element SI indicate inner wall+shielding, but earlier atoms indicate a different van der Waals method. This may cause division-by-zero errors. Keeping van der Waals setting for earlier atoms. (src/REAXFF/reaxff_ffield.cpp:251)
Neighbor list info ...
  update: every = 10 steps, delay = 0 steps, check = yes
  max neighbors/atom: 2000, page size: 100000
  master list distance cutoff = 12
  ghost atom cutoff = 12
  binsize = 6, bins = 5 3 4
  2 neighbor lists, perpetual/occasional/extra = 2 0 0
  (1) pair reaxff, perpetual
      attributes: half, newton off, ghost
      pair build: half/bin/newtoff/ghost
      stencil: full/ghost/bin/3d
      bin: standard
  (2) fix qeq/reaxff, perpetual, copy from (1)
      attributes: half, newton off
      pair build: copy
      stencil: none
      bin: none
Setting up Verlet run ...
  Unit style    : real
  Current step  : 0
  Time step     : 0.5
Per MPI rank memory allocation (min/avg/max) = 131.1 | 133.4 | 135.3 Mbytes
   Step          Temp          PotEng         Press          Volume    
         0   300           -37819.86      -1880.9868      4136.956     
       100   303.86913     -37820.583     -6260.5189      4136.956     
       200   288.22565     -37801.065     -6972.7417      4136.956     
       300   307.788       -37822.168      6133.8913      4136.956     
       400   307.76767     -37836.556     -6453.5003      4136.956     
       500   285.18363     -37836.689     -15514.262      4136.956     
       600   292.90624     -37853.511     -6624.1341      4136.956     
       700   301.87976     -37850.594     -16221.532      4136.956     
       800   307.413       -37818.133      3154.2058      4136.956     
       900   310.15964     -37822.641     -6046.6443      4136.956     
      1000   304.54829     -37839.109     -16952.978      4136.956     
      1100   295.44192     -37843.118     -5503.8518      4136.956     
      1200   304.08739     -37849.631     -25277.508      4136.956     
      1300   293.73656     -37832.52      -9840.6147      4136.956     
      1400   292.68969     -37829.346      3509.5523      4136.956     
      1500   288.12176     -37825.106     -277.75715      4136.956     
      1600   300.56398     -37841.948      6697.5866      4136.956     
      1700   303.10573     -37845.932     -20990.644      4136.956     
      1800   301.89647     -37826.533     -6519.4779      4136.956     
      1900   309.6281      -37817.061      4582.1263      4136.956     
      2000   300.28423     -37818.411      1373.8147      4136.956     
      2100   287.00969     -37837.723     -17117.035      4136.956     
      2200   297.77665     -37855.294     -1298.4004      4136.956     
      2300   291.27094     -37835.56      -7694.8602      4136.956     
      2400   307.04071     -37838.81      -8838.988       4136.956     
      2500   299.71776     -37825.484     -4941.6567      4136.956     
      2600   300.7427      -37848.892     -8280.5947      4136.956     
      2700   290.60555     -37865.335     -12300.808      4136.956     
      2800   302.36509     -37872.095      8016.5557      4136.956     
      2900   312.44753     -37857.54       4213.6102      4136.956     
      3000   308.29869     -37840.352     -11573.911      4136.956     
      3100   301.53469     -37829.511      381.37026      4136.956     
      3200   295.81831     -37841.637     -3345.6958      4136.956     
      3300   285.829       -37860.91      -4429.8869      4136.956     
      3400   301.73539     -37863.059      2520.1883      4136.956     
      3500   305.46415     -37841.084      7001.4354      4136.956     
      3600   298.1223      -37822.991     -10089.712      4136.956     
      3700   309.32919     -37843.789     -4616.9914      4136.956     
      3800   286.21291     -37850.21      -1875.4429      4136.956     
      3900   268.30904     -37840.996      5972.3799      4136.956     
      4000   284.08685     -37848.472     -1534.0813      4136.956     
[...]
*****
*****Negative-deform 6 starts.*****
WARNING: Van der Waals parameters for element SI indicate inner wall+shielding, but earlier atoms indicate a different van der Waals method. This may cause division-by-zero errors. Keeping van der Waals setting for earlier atoms. (src/REAXFF/reaxff_ffield.cpp:251)
Neighbor list info ...
  update: every = 10 steps, delay = 0 steps, check = yes
  max neighbors/atom: 2000, page size: 100000
  master list distance cutoff = 12
  ghost atom cutoff = 12
  binsize = 6, bins = 5 3 4
  2 neighbor lists, perpetual/occasional/extra = 2 0 0
  (1) pair reaxff, perpetual
      attributes: half, newton off, ghost
      pair build: half/bin/newtoff/ghost
      stencil: full/ghost/bin/3d
      bin: standard
  (2) fix qeq/reaxff, perpetual, copy from (1)
      attributes: half, newton off
      pair build: copy
      stencil: none
      bin: none
Setting up Verlet run ...
  Unit style    : real
  Current step  : 0
  Time step     : 0.5
Per MPI rank memory allocation (min/avg/max) = 131 | 133.4 | 135.3 Mbytes
   Step          Temp          PotEng         Press          Volume    
         0   300           -37819.86      -1880.9868      4136.956     
       100   303.87048     -37820.59      -6260.1331      4136.956     
       200   288.27077     -37801.147     -6971.1382      4136.956     
       300   308.4171      -37822.116      5984.7469      4136.956     
       400   308.48523     -37835.709     -6534.6308      4136.956     
       500   285.49061     -37836.112     -15432.368      4136.956     
       600   293.08675     -37853.232     -6518.964       4136.956     
       700   300.43944     -37851.091     -15918.557      4136.956     
       800   308.32376     -37819.668      3578.2445      4136.956     
       900   309.04432     -37820.106     -5676.6036      4136.956     
      1000   305.10424     -37838.022     -16558.209      4136.956     
      1100   294.62395     -37841.301     -5091.4237      4136.956     
      1200   304.62617     -37849.613     -26245.916      4136.956     
      1300   288.92762     -37826.221     -9696.9946      4136.956     
      1400   288.29713     -37824.613      4919.3312      4136.956     
      1500   284.50226     -37822.098      786.80727      4136.956     
      1600   302.82532     -37847.692      7178.6086      4136.956     
      1700   304.17773     -37852.063     -17719.804      4136.956     
      1800   298.33201     -37830.787     -8716.7828      4136.956     
      1900   310.99867     -37823.122      2628.3578      4136.956     
      2000   300.85023     -37805.853      3548.1204      4136.956     
      2100   298.60204     -37837.135      5333.7251      4136.956     
      2200   284.86928     -37842.069     -5254.0301      4136.956     
      2300   291.77795     -37837.53      -7027.5825      4136.956     
      2400   309.22677     -37836.566      2692.5999      4136.956     
      2500   300.74567     -37828.062     -7272.4529      4136.956     
      2600   288.63562     -37853.151     -15968.132      4136.956     
      2700   289.60297     -37852.927     -5515.9377      4136.956     
      2800   296.89245     -37843.451      2971.6818      4136.956     
      2900   291.70881     -37830.147      2279.3791      4136.956     
      3000   314.91534     -37845.212      2929.0761      4136.956     
      3100   317.11577     -37836.072     -14025.3        4136.956     
      3200   297.39259     -37819.745     -9160.949       4136.956     
      3300   296.20614     -37841.471     -10959.668      4136.956     
      3400   293.6088      -37850.53      -4534.4639      4136.956     
      3500   316.88929     -37855.385     -8675.9868      4136.956     
      3600   309.60022     -37821.214     -717.98814      4136.956     
      3700   303.50008     -37827.631     -13454.424      4136.956     
      3800   292.89205     -37828.003     -7838.0446      4136.956     
      3900   313.64261     -37860.271     -2041.3616      4136.956     
      4000   289.59258     -37835.862     -13423.241      4136.956     
      4100   282.30758     -37818.722     -19849.306      4136.956     
      4200   305.26812     -37804.817     -22797.464      4136.956     
      4300   303.29451     -37815.324      1008.3345      4136.956     
      4400   316.35435     -37852.88       9078.9099      4136.956     
      4500   276.81252     -37824.019     -7842.2451      4136.956     
      4600   294.50719     -37841.92      -7562.8043      4136.956     
      4700   312.28726     -37849.836     -12661.83       4136.956     
      4800   304.78308     -37814.784     -1547.0106      4136.956     
      4900   311.43249     -37808.109     -9891.6548      4136.956     
      5000   312.57305     -37837.913     -13102.142      4136.956     
      5100   287.24042     -37833.732     -17166.321      4136.956     
      5200   304.84475     -37850.557     -12737.036      4136.956     
      5300   314.90413     -37858.511      43.973863      4136.956     
      5400   294.39089     -37857.688     -4807.7912      4136.956     
      5500   267.73481     -37844.314     -11176.807      4136.956     
      5600   297.19596     -37855.919     -184.90269      4136.956     
      5700   303.23358     -37831.122      6651.9706      4136.956     
      5800   320.43329     -37852.853     -7889.9698      4136.956     
      5900   309.21139     -37865.819     -3249.3236      4136.956     
      6000   288.05181     -37855.845     -7183.243       4136.956     
      6100   288.45754     -37844.987     -6101.1699      4136.956     
      6200   307.59796     -37848.659     -7648.9937      4136.956     
      6300   303.17824     -37840.764     -8806.229       4136.956     
      6400   302.22981     -37846.387      6798.4876      4136.956     
      6500   296.26125     -37852.403     -8857.3515      4136.956     
      6600   275.26247     -37835.301      2187.7219      4136.956     
      6700   307.69879     -37848.215      5510.3425      4136.956     
      6800   304.97995     -37827.312     -10977.248      4136.956     
      6900   318.89632     -37855.268     -12732.325      4136.956     
      7000   294.42172     -37864.032     -9639.924       4136.956     
      7100   289.81583     -37858.197     -17262.403      4136.956     
      7200   293.36222     -37868.579     -6455.6313      4136.956     
      7300   301.31668     -37905.618      1472.4948      4136.956     
      7400   283.22768     -37901.515     -10684.247      4136.956     
      7500   287.67262     -37898.048     -4247.3207      4136.956     
      7600   312.27864     -37912.062      226.85509      4136.956     
      7700   298.05662     -37895.878     -4305.0793      4136.956     
      7800   292.47168     -37914.807     -17882.587      4136.956     
      7900   287.92011     -37936.628     -6077.9728      4136.956     
      8000   284.72674     -37919.087     -1178.4116      4136.956     
      8100   285.8644      -37898.559     -9329.6052      4136.956     
      8200   307.51054     -37908.716     -6679.7531      4136.956     
      8300   292.63476     -37894.218     -4201.8414      4136.956     
      8400   299.88026     -37922.212     -6438.8122      4136.956     
      8500   272.81716     -37921.225     -1630.9915      4136.956     
      8600   280.59178     -37918.914      7166.1203      4136.956     
      8700   293.96492     -37914.985     -1172.8802      4136.956     
      8800   291.66504     -37902.219      9965.4876      4136.956     
      8900   331.3826      -37939.161      1338.7826      4136.956     
      9000   290.62477     -37920.381     -7524.5328      4136.956     
      9100   299.79858     -37951.978     -8814.8159      4136.956     
      9200   287.74677     -37926.823     -12872.848      4136.956     
      9300   300.09884     -37918.595      4905.2983      4136.956     
      9400   300.60673     -37917.205     -479.0444       4136.956     
      9500   302.67188     -37928.586     -10990.409      4136.956     
      9600   290.70407     -37917.198     -25248.705      4136.956     
      9700   306.9301      -37916.518     -19824.753      4136.956     
      9800   313.13356     -37910.634     -6355.821       4136.956     
      9900   302.8604      -37911.591      4309.0103      4136.956     
     10000   293.539       -37934.355     -298.89805      4136.956     
Loop time of 467.259 on 8 procs for 10000 steps with 371 atoms

Performance: 0.925 ns/day, 25.959 hours/ns, 21.401 timesteps/s, 7.940 katom-step/s
98.7% CPU use with 8 MPI tasks x 1 OpenMP threads

MPI task timing breakdown:
Section |  min time  |  avg time  |  max time  |%varavg| %total
---------------------------------------------------------------
Pair    | 346.72     | 395.66     | 419.67     | 101.0 | 84.68
Bond    | 0.028126   | 0.030772   | 0.035892   |   1.4 |  0.01
Neigh   | 3.2315     | 3.7547     | 3.9922     |  11.1 |  0.80
Comm    | 3.6685     | 27.692     | 76.665     | 382.3 |  5.93
Output  | 0.034169   | 0.087594   | 0.19959    |  19.6 |  0.02
Modify  | 39.504     | 39.759     | 40.339     |   3.9 |  8.51
Other   |            | 0.2705     |            |       |  0.06

Nlocal:         46.375 ave          52 max          43 min
Histogram: 4 0 0 1 0 0 0 1 1 1
Nghost:        3386.62 ave        3431 max        3313 min
Histogram: 1 0 0 2 0 0 0 3 0 2
Neighs:        28988.6 ave       32200 max       26729 min
Histogram: 4 0 0 0 1 0 0 1 0 2

Total # of neighbors = 231909
Ave neighs/atom = 625.09164
Ave special neighs/atom = 0
Neighbor list builds = 134
Dangerous builds = 0
  using 1 OpenMP thread(s) per MPI task
Reading restart file ...
  restart file = 2 Aug 2023, LAMMPS = 2 Aug 2023
  restoring atom style full from restart
  triclinic box = (0 0 0) to (17.3186 12.8149 18.6403) with tilt (-8.851 0.4589 0.2054)
WARNING: Triclinic box skew is large. LAMMPS will run inefficiently. (src/domain.cpp:220)
  2 by 2 by 2 MPI processor grid
  pair style reaxff stores no restart info
  371 atoms
Finding 1-2 1-3 1-4 neighbors ...
  special bond factors lj:    0        0        0       
  special bond factors coul:  0        0        0       
     0 = max # of 1-2 neighbors
     0 = max # of 1-3 neighbors
     0 = max # of 1-4 neighbors
     1 = max # of special neighbors
  special bonds CPU = 0.000 seconds
  read_restart CPU = 0.004 seconds
*****Positive-deform 6 starts.*****
WARNING: Van der Waals parameters for element SI indicate inner wall+shielding, but earlier atoms indicate a different van der Waals method. This may cause division-by-zero errors. Keeping van der Waals setting for earlier atoms. (src/REAXFF/reaxff_ffield.cpp:251)
Neighbor list info ...
  update: every = 10 steps, delay = 0 steps, check = yes
  max neighbors/atom: 2000, page size: 100000
  master list distance cutoff = 12
  ghost atom cutoff = 12
  binsize = 6, bins = 5 3 4
  2 neighbor lists, perpetual/occasional/extra = 2 0 0
  (1) pair reaxff, perpetual
      attributes: half, newton off, ghost
      pair build: half/bin/newtoff/ghost
      stencil: full/ghost/bin/3d
      bin: standard
  (2) fix qeq/reaxff, perpetual, copy from (1)
      attributes: half, newton off
      pair build: copy
      stencil: none
      bin: none
Setting up Verlet run ...
  Unit style    : real
  Current step  : 0
  Time step     : 0.5
Per MPI rank memory allocation (min/avg/max) = 131.1 | 133.4 | 135.3 Mbytes
   Step          Temp          PotEng         Press          Volume    
         0   300           -37819.86      -1880.9868      4136.956     
       100   303.86793     -37820.573     -6260.1065      4136.956     
       200   288.20711     -37801.095     -6976.651       4136.956     
       300   307.78892     -37822.215      6031.7802      4136.956     
       400   307.70692     -37836.632     -6793.4649      4136.956     
       500   284.77241     -37836.236     -15705.763      4136.956     
       600   294.25833     -37854.648     -6267.4737      4136.956     
       700   301.66402     -37850.234     -15982.466      4136.956     
       800   308.23222     -37818.918      3045.0811      4136.956     
       900   310.50986     -37822.612     -6850.7155      4136.956     
      1000   305.89506     -37840.505     -17139.974      4136.956     
      1100   291.72133     -37839.033     -7858.6026      4136.956     
      1200   302.2362      -37847.258     -23424.818      4136.956     
      1300   290.17401     -37827.567     -9464.1594      4136.956     
      1400   288.99229     -37823.986      1360.2904      4136.956     
      1500   292.56074     -37828.926     -1661.3814      4136.956     
      1600   313.23079     -37856.068      3982.006       4136.956     
      1700   291.08095     -37851.717     -18231.82       4136.956     
      1800   282.22253     -37850.376     -2858.04        4136.956     
      1900   295.14767     -37834.848     -466.04916      4136.956     
      2000   301.51206     -37822.548      1315.2678      4136.956     
      2100   289.4164      -37812.604     -19528.558      4136.956     
      2200   306.854       -37849.957     -12940.61       4136.956     
      2300   277.32498     -37840.779     -11432.232      4136.956     
      2400   297.89207     -37855.876     -10809.693      4136.956     
      2500   293.876       -37841.095     -6395.785       4136.956     
      2600   307.89833     -37841.57      -17975.412      4136.956     
      2700   300.19744     -37826.667     -10146.216      4136.956     
      2800   300.69436     -37841.091     -10181.661      4136.956     
      2900   288.25306     -37860.525     -1266.5022      4136.956     
      3000   272.87112     -37840.944     -2013.6491      4136.956     
      3100   291.07862     -37839.535      7335.8036      4136.956     
      3200   305.99088     -37845.833     -8342.6239      4136.956     
      3300   302.17184     -37831.83      -11880.593      4136.956     
      3400   316.10137     -37840.493     -15742.682      4136.956     
      3500   294.81136     -37834.084      4483.6664      4136.956     
      3600   293.81968     -37860.504     -5218.3456      4136.956     
      3700   266.70226     -37831.814     -4432.9764      4136.956     
      3800   300.62603     -37838.582      9932.5398      4136.956     
      3900   310.4793      -37846.248     -11008.268      4136.956     
      4000   302.5721      -37840.909     -8524.5028      4136.956     
      4100   285.34619     -37822.348     -6789.8572      4136.956     
      4200   296.83063     -37836.412     -15617.8        4136.956     
      4300   296.60507     -37833.876     -9833.9279      4136.956     
      4400   284.60249     -37830.412      5653.5177      4136.956     
      4500   293.08877     -37848.077     -1926.191       4136.956     
      4600   300.93497     -37853.756     -11605.938      4136.956     
      4700   315.93129     -37842.447     -4338.6921      4136.956     
      4800   303.02964     -37819.901     -6714.5379      4136.956     
      4900   301.17083     -37841.887     -10725.278      4136.956     
      5000   279.34845     -37840.22      -7137.7237      4136.956     
      5100   304.91284     -37863.564     -7096.2591      4136.956     
      5200   290.13999     -37832.639      290.6347       4136.956     
      5300   303.34652     -37826.475      3567.4956      4136.956     
      5400   308.97742     -37829.345     -4268.5827      4136.956     
      5500   318.10667     -37860.86       2129.3818      4136.956     
      5600   291.97806     -37849.885     -1095.7087      4136.956     
      5700   283.52892     -37833.934     -117.89431      4136.956     
      5800   325.83908     -37860.904     -11390.695      4136.956     
      5900   319.83213     -37841.731     -13451.849      4136.956     
      6000   295.62069     -37827.664     -10160.466      4136.956     
      6100   295.08883     -37861.472      3499.7313      4136.956     
      6200   278.99301     -37847.302      402.37514      4136.956     
      6300   306.76917     -37860.707     -24075.875      4136.956     
      6400   306.05006     -37849.034     -17558.109      4136.956     
      6500   301.25455     -37838.88      -1894.3089      4136.956     
      6600   295.21518     -37832.851     -2387.5973      4136.956     
      6700   315.68682     -37845.001     -5625.5227      4136.956     
      6800   312.01641     -37827.365     -24542.51       4136.956     
      6900   298.37234     -37835.926     -1068.4001      4136.956     
      7000   296.88442     -37848.819      3397.2547      4136.956     
      7100   290.22402     -37833.621      8092.9268      4136.956     
      7200   310.04675     -37819.567     -8505.1098      4136.956     
      7300   319.33807     -37815.398     -24524.174      4136.956     
      7400   315.26453     -37826.551      1265.8146      4136.956     
      7500   296.1338      -37827.724     -4908.2647      4136.956     
      7600   303.64864     -37848.79      -4072.9944      4136.956     
      7700   301.34658     -37854.125      1284.8416      4136.956     
      7800   304.75153     -37851.345      1065.3554      4136.956     
      7900   291.61537     -37822.508     -6229.4347      4136.956     
      8000   314.40457     -37799.42      -8125.2026      4136.956     
      8100   320.61921     -37815.079      4992.6778      4136.956     
      8200   317.87159     -37848.539     -3290.1126      4136.956     
      8300   288.03711     -37840.611     -13171.865      4136.956     
      8400   302.85989     -37856.76      -2255.4804      4136.956     
      8500   300.25958     -37837.123     -11226.463      4136.956     
      8600   321.75359     -37838.901     -4478.2199      4136.956     
      8700   317.03301     -37839.181     -6362.4141      4136.956     
      8800   296.53401     -37855.146      569.77446      4136.956     
      8900   294.04561     -37861.903     -2770.2637      4136.956     
      9000   304.23539     -37859.252     -11865.226      4136.956     
      9100   304.71805     -37834.44      -572.34963      4136.956     
      9200   321.07113     -37829.284     -19858.825      4136.956     
      9300   308.54846     -37827.794     -13001.763      4136.956     
      9400   287.36865     -37815.938     -2935.4393      4136.956     
      9500   302.03775     -37846.838     -7414.4282      4136.956     
      9600   292.94059     -37857.931     -10749.197      4136.956     
      9700   297.28551     -37864.378     -11963.022      4136.956     
      9800   304.79331     -37834.234     -3821.0979      4136.956     
      9900   305.48788     -37817.449     -8010.8406      4136.956     
     10000   307.42318     -37839.334      9808.6028      4136.956     
Loop time of 357.762 on 8 procs for 10000 steps with 371 atoms

Performance: 1.208 ns/day, 19.876 hours/ns, 27.952 timesteps/s, 10.370 katom-step/s
98.8% CPU use with 8 MPI tasks x 1 OpenMP threads

MPI task timing breakdown:
Section |  min time  |  avg time  |  max time  |%varavg| %total
---------------------------------------------------------------
Pair    | 256.32     | 289.57     | 315.55     | 129.1 | 80.94
Bond    | 0.023928   | 0.02654    | 0.029247   |   0.9 |  0.01
Neigh   | 2.6508     | 2.969      | 3.2201     |  13.3 |  0.83
Comm    | 5.9176     | 31.906     | 65.154     | 388.8 |  8.92
Output  | 0.029026   | 0.078056   | 0.1795     |  19.0 |  0.02
Modify  | 32.599     | 32.862     | 33.21      |   4.2 |  9.19
Other   |            | 0.3481     |            |       |  0.10

Nlocal:         46.375 ave          55 max          41 min
Histogram: 2 1 1 2 0 0 0 0 0 2
Nghost:         3368.5 ave        3413 max        3329 min
Histogram: 1 2 0 0 2 1 0 0 0 2
Neighs:        28957.1 ave       34125 max       25822 min
Histogram: 2 1 1 2 0 0 0 0 1 1

Total # of neighbors = 231657
Ave neighs/atom = 624.4124
Ave special neighs/atom = 0
Neighbor list builds = 132
Dangerous builds = 0
Total wall time: 1:31:41
