ITEM: TIMESTEP
0
ITEM: NUMBER OF ATOMS
243
ITEM: BOX BOUNDS xy xz yz pp pp pp
-7.3456000000000001e+00 1.4691300000000000e+01 -7.3456000000000001e+00
0.0000000000000000e+00 1.2723000000000001e+01 0.0000000000000000e+00
0.0000000000000000e+00 1.5963100000000001e+01 0.0000000000000000e+00
ITEM: ATOMS id type q x y z
11 2 2.05219 -3.58897 6.21743 3.55042
3 2 2.04876 1.30839 2.26525 0.00105313
2 2 2.05344 -1.14106 1.97658 3.54873
6 2 2.04777 1.3075 2.26571 5.3208
10 2 2.05295 -0.167192 4.24085 1.77357
13 2 2.05391 -0.16726 4.24072 7.09604
140 1 -1.02585 3.85371 5.40572 6.46509
29 2 2.0491 3.75675 1.97601 3.54737
139 1 -1.02515 2.75504 6.03942 4.17785
37 2 2.05545 4.73029 4.24161 1.7731
38 2 2.05174 1.30741 6.21681 3.54864
40 2 2.05537 4.73059 4.24105 7.09527
82 1 -1.02535 1.40275 1.16409 1.14509
83 1 -1.02543 0.306856 1.79836 4.17697
84 1 -1.02448 1.40457 1.1647 6.46484
88 1 -1.02582 -1.04409 3.07565 2.40419
89 1 -1.02604 0.735477 3.60836 0.629747
90 1 -1.02521 -1.04557 5.4057 1.14586
91 1 -1.02775 -1.04396 3.07535 7.72514
92 1 -1.02512 0.735997 3.60943 5.95127
93 1 -1.02621 -2.14176 6.03956 4.17777
94 1 -1.02539 -1.04345 5.40655 6.46502
118 1 -1.02482 3.18477 0.632618 2.91714
119 1 -1.0245 2.75581 2.4417 4.69093
120 1 -1.02623 6.30064 1.16369 1.14573
123 1 -1.02435 5.20477 1.79941 4.17767
124 1 -1.02622 6.30251 1.16408 6.46507
130 1 -1.02576 3.8539 3.07686 2.40396
132 1 -1.02575 0.736112 4.87433 2.91732
134 1 -1.02712 3.85173 5.40523 1.14555
135 1 -1.02744 3.854 3.07633 7.72473
17 2 2.05409 -3.58816 6.21657 14.191
9 2 2.04776 1.30711 2.26575 10.6442
16 2 2.05508 -0.168449 4.24089 12.4168
32 2 2.04974 3.75628 1.97596 8.86632
14 2 2.05254 -3.58949 6.2174 8.86936
35 2 2.04828 3.75707 1.97515 14.1883
41 2 2.05218 1.30691 6.21666 8.86775
43 2 2.05541 4.72955 4.24126 12.4158
44 2 2.04958 1.30868 6.21551 14.1896
85 1 -1.02484 0.309612 1.7993 14.8188
86 1 -1.02383 0.306787 1.7984 9.49778
87 1 -1.02678 1.40479 1.16482 11.7853
95 1 -1.02753 -1.04448 3.07688 13.0483
96 1 -1.02661 0.735527 3.60836 11.2743
97 1 -1.02581 -2.1395 6.04021 14.819
98 1 -1.02476 -2.14181 6.03962 9.49856
99 1 -1.02738 -1.04344 5.40653 11.7854
121 1 -1.02647 3.18488 0.633135 8.23831
122 1 -1.02297 2.75612 2.44206 10.0119
125 1 -1.02612 3.18404 0.633307 13.5607
126 1 -1.02255 5.20728 1.79936 14.8188
127 1 -1.0235 2.75615 2.44226 15.3338
128 1 -1.02294 5.20469 1.79948 9.4985
129 1 -1.02829 6.30271 1.16417 11.7856
137 1 -1.02735 0.736126 4.87478 8.23844
141 1 -1.02655 3.85295 3.07767 13.0478
143 1 -1.0264 0.735641 4.87486 13.5607
144 1 -1.02394 2.75826 6.04014 14.8194
146 1 -1.0237 2.75496 6.03949 9.49866
147 1 -1.02725 3.85371 5.40592 11.7857
8 2 2.05239 -1.1395 1.9753 14.189
12 2 2.04893 -1.13965 6.50554 0.000625248
15 2 2.05068 -1.14009 6.50623 5.32101
19 2 2.04852 -2.61613 8.48147 1.77359
21 2 2.04904 -3.58815 10.7471 0.000376142
22 2 2.04921 -2.61591 8.48095 7.09588
24 2 2.0478 -3.58933 10.7476 5.32028
46 2 2.0509 2.28187 8.48179 1.7736
47 2 2.05136 -1.14002 10.4583 3.54782
49 2 2.05088 2.28181 8.48179 7.09601
100 1 -1.02427 -3.49329 7.31605 2.40397
101 1 -1.02423 -1.71217 7.84887 0.629433
102 1 -1.02627 -5.94112 11.5573 2.40408
103 1 -1.02436 -3.49508 9.64655 1.1449
104 1 -1.02532 -4.16136 12.0899 0.629822
105 1 -1.02608 -3.4932 7.31561 7.72487
106 1 -1.02437 -1.71149 7.8494 5.95054
107 1 -1.02841 -5.94101 11.5569 7.72512
108 1 -1.02602 -4.59043 10.2809 4.17671
109 1 -1.02343 -3.49311 9.64695 6.46462
110 1 -1.02454 -4.16087 12.0908 5.95132
133 1 -1.02649 0.307585 6.68236 4.69117
148 1 -1.02471 1.40359 7.31687 2.40419
150 1 -1.0241 -1.71113 9.11512 2.91786
151 1 -1.02627 -1.04412 11.5579 2.40343
152 1 -1.02517 -2.14078 10.9241 4.69043
153 1 -1.02433 1.40265 9.64624 1.14557
155 1 -1.02616 1.40375 7.31656 7.72495
158 1 -1.02802 -1.04398 11.5576 7.72405
160 1 -1.02593 0.307331 10.2817 4.17762
161 1 -1.02518 1.40455 9.6473 6.46449
1 2 2.05281 -5.06497 12.7223 1.77356
4 2 2.05335 -5.06496 12.722 7.09617
28 2 2.05586 -0.166942 12.7229 1.77403
31 2 2.05685 -0.166286 12.7221 7.09574
18 2 2.0504 -1.14048 6.50638 10.6441
25 2 2.04971 -2.61665 8.48103 12.4171
27 2 2.04688 -3.58993 10.7481 10.6432
50 2 2.05129 -1.14048 10.4582 8.86652
52 2 2.0515 2.28127 8.48214 12.4171
53 2 2.05074 -1.13973 10.458 14.1885
111 1 -1.02635 -3.4938 7.3169 13.0485
112 1 -1.02546 -1.71169 7.84872 11.2734
113 1 -1.02533 -4.58763 10.2818 14.8184
114 1 -1.02844 -5.94125 11.5584 13.0484
115 1 -1.02426 -4.5904 10.2806 9.49732
116 1 -1.02448 -3.49312 9.64699 11.7853
117 1 -1.02627 -4.16154 12.0901 11.2747
138 1 -1.02502 0.30783 6.68267 10.0121
145 1 -1.0242 0.308122 6.68324 15.3339
157 1 -1.02555 -1.71106 9.11553 8.23889
159 1 -1.0233 -2.14059 10.9244 10.0114
163 1 -1.0249 1.40309 7.31818 13.048
165 1 -1.02491 -1.71173 9.11583 13.5614
166 1 -1.02368 0.309755 10.2815 14.8186
167 1 -1.02813 -1.04421 11.5591 13.0474
168 1 -1.02457 -2.14069 10.9244 15.3331
169 1 -1.02424 0.307393 10.2813 9.49823
170 1 -1.02626 1.40454 9.64747 11.7851
26 2 2.05321 -6.03639 10.457 14.1887
7 2 2.05541 -5.06578 12.7224 12.4172
34 2 2.05858 -0.167204 12.7222 12.4166
204 1 -1.02422 8.75039 5.40783 6.46485
203 1 -1.0266 7.65202 6.04018 4.17803
30 2 2.04805 6.20568 2.26521 0.00251311
33 2 2.05048 6.20457 2.26538 5.32272
198 1 -1.02356 10.5325 3.60855 5.95019
56 2 2.05083 8.65438 1.97445 3.54968
57 2 2.04897 11.1032 2.26401 0.000493526
197 1 -1.02486 8.74914 3.07443 7.72481
60 2 2.05113 11.1022 2.26436 5.3209
64 2 2.04626 9.62644 4.24109 1.77327
65 2 2.052 6.20465 6.21615 3.5478
67 2 2.04687 9.62667 4.24069 7.09545
131 1 -1.02683 5.63239 3.60829 0.630332
136 1 -1.02675 5.633 3.60848 5.95089
172 1 -1.02584 12.9792 0.634125 2.91697
173 1 -1.02676 8.08088 0.63348 2.91682
174 1 -1.02547 7.65273 2.44145 4.69084
176 1 -1.02525 11.1977 1.16481 1.14555
180 1 -1.02695 12.55 2.44117 4.69024
181 1 -1.02724 10.1023 1.79878 4.17725
182 1 -1.02554 11.1997 1.16528 6.46498
190 1 -1.02293 8.74896 3.07467 2.40389
191 1 -1.02333 10.5314 3.6081 0.62922
192 1 -1.0231 10.532 4.87468 2.91726
193 1 -1.02669 5.63365 4.87389 2.91733
196 1 -1.0245 8.74837 5.40741 1.14529
5 2 2.05369 13.5497 1.97652 8.86771
213 1 -1.02599 8.75044 5.40771 11.7855
212 1 -1.02497 7.65197 6.04025 9.49886
209 1 -1.02486 7.65535 6.0404 14.8194
36 2 2.05033 6.20424 2.26543 10.6459
59 2 2.05096 8.65389 1.97445 8.86869
208 1 -1.0266 5.63261 4.87478 13.5609
62 2 2.05086 8.65499 1.9733 14.1897
63 2 2.0504 11.1018 2.26477 10.6439
68 2 2.05225 6.20417 6.21619 8.86673
70 2 2.04851 9.62603 4.2413 12.4167
71 2 2.05003 6.20552 6.21547 14.1891
142 1 -1.02796 5.63294 3.60768 11.2735
175 1 -1.02459 12.5509 2.442 15.3332
177 1 -1.02745 12.9792 0.634398 8.2378
178 1 -1.02822 8.08094 0.633716 8.23772
179 1 -1.02391 7.65305 2.44175 10.0119
183 1 -1.0269 12.9787 0.634629 13.5603
184 1 -1.02822 8.0806 0.633742 13.5602
185 1 -1.02588 10.1035 1.79915 14.8188
186 1 -1.02338 7.65379 2.44202 15.3337
187 1 -1.02539 12.5503 2.44152 10.0113
188 1 -1.02569 10.1022 1.79886 9.49806
189 1 -1.02714 11.1997 1.16499 11.7856
199 1 -1.02458 10.532 4.87499 8.23819
200 1 -1.02793 5.63381 4.87423 8.23832
205 1 -1.02478 8.74883 3.07628 13.048
206 1 -1.02507 10.532 3.60774 11.2735
207 1 -1.02495 10.5313 4.8759 13.5612
20 2 2.05393 8.65329 10.458 3.54863
39 2 2.04919 3.7579 6.50552 0.00174634
42 2 2.04786 3.75745 6.50559 5.32103
48 2 2.048 1.30887 10.7472 0.00119772
51 2 2.05184 1.30761 10.7474 5.32152
58 2 2.05239 4.72985 12.7222 7.0971
69 2 2.05287 8.6539 6.50663 5.31968
73 2 2.05124 7.1797 8.48222 1.77314
74 2 2.052 3.75742 10.4581 3.54965
75 2 2.047 6.20549 10.7468 0.000505182
76 2 2.0523 7.17998 8.48174 7.09534
78 2 2.04889 6.20498 10.7473 5.3213
149 1 -1.02531 3.18486 7.8487 0.629574
154 1 -1.02633 0.735719 12.0897 0.63035
156 1 -1.02394 3.18504 7.8492 5.95073
162 1 -1.0274 0.735892 12.0897 5.95118
194 1 -1.02548 5.20648 6.68288 4.69175
202 1 -1.02817 10.1018 6.68334 4.69104
214 1 -1.02424 6.30098 7.31654 2.40376
215 1 -1.02663 8.08192 7.84764 0.630083
216 1 -1.02602 8.082 9.1158 2.91734
217 1 -1.02476 3.18506 9.11623 2.91737
218 1 -1.02524 3.85227 11.5569 2.40335
219 1 -1.02668 2.75589 10.9238 4.69041
221 1 -1.02407 6.2991 9.64669 1.14607
222 1 -1.02409 5.63312 12.0901 0.62977
223 1 -1.02602 6.30114 7.31622 7.72442
224 1 -1.02627 8.08232 7.84806 5.95121
227 1 -1.02746 3.85257 11.5568 7.7242
229 1 -1.02665 7.6531 10.9235 4.68988
230 1 -1.02606 5.20501 10.2805 4.17689
231 1 -1.02439 6.30103 9.6472 6.46548
232 1 -1.02446 5.63412 12.0906 5.9508
55 2 2.05129 4.72955 12.7227 1.77496
23 2 2.05448 8.65265 10.4581 8.86756
243 1 -1.02595 5.63378 12.09 11.2738
45 2 2.04762 3.75701 6.5059 10.644
54 2 2.05081 1.30707 10.7478 10.6444
72 2 2.05238 8.65351 6.5068 10.6429
77 2 2.05202 3.75719 10.4582 8.86855
79 2 2.05219 7.17887 8.48184 12.4159
80 2 2.05343 3.75842 10.4572 14.1894
81 2 2.0485 6.20454 10.7477 10.6442
164 1 -1.02517 3.18483 7.84855 11.2738
171 1 -1.0289 0.735503 12.0893 11.2744
195 1 -1.02763 10.1024 6.68313 15.3333
201 1 -1.0239 5.20673 6.68319 10.0127
210 1 -1.02409 5.20568 6.68324 15.3339
211 1 -1.02658 10.1021 6.68368 10.012
220 1 -1.02414 7.654 10.9243 15.3328
225 1 -1.02761 8.08203 9.11617 8.23836
226 1 -1.02595 3.18537 9.11638 8.23879
228 1 -1.02491 2.75613 10.924 10.0115
233 1 -1.02485 6.30023 7.31772 13.0475
234 1 -1.02745 8.08217 7.84732 11.2741
235 1 -1.02678 8.08177 9.11638 13.561
236 1 -1.02626 3.18512 9.11669 13.5614
237 1 -1.02565 5.20624 10.281 14.8187
238 1 -1.02814 3.85205 11.5583 13.0476
239 1 -1.02448 2.75709 10.9242 15.3329
240 1 -1.02531 7.65336 10.9238 10.0108
241 1 -1.02475 5.20496 10.2805 9.49771
242 1 -1.02597 6.3011 9.64726 11.7859
61 2 2.05368 4.72866 12.7221 12.4178
66 2 2.05241 8.65554 6.50655 15.9629
ITEM: TIMESTEP
100
ITEM: NUMBER OF ATOMS
243
ITEM: BOX BOUNDS xy xz yz pp pp pp
-7.3456000000000001e+00 1.4691300000000000e+01 -7.3456000000000001e+00
0.0000000000000000e+00 1.2723000000000001e+01 0.0000000000000000e+00
0.0000000000000000e+00 1.5963100000000001e+01 0.0000000000000000e+00
ITEM: ATOMS id type q x y z
11 2 1.95901 -3.49281 6.09581 3.48814
1 2 1.99739 2.38514 0.048841 1.74378
135 1 -0.961196 3.7562 2.95077 7.51028
6 2 2.08117 1.32833 2.15545 5.32477
10 2 1.92527 -0.192212 4.22668 1.81641
13 2 2.00913 -0.080763 4.10597 7.1718
140 1 -0.972237 3.85069 5.3833 6.49448
29 2 1.99759 3.87014 1.93572 3.50808
139 1 -0.974704 2.82466 5.96254 4.16318
37 2 2.0376 4.65497 4.27019 1.81534
38 2 1.94451 1.34023 6.1907 3.56522
40 2 1.90563 4.75441 4.14284 7.03603
82 1 -0.970546 1.53253 1.29584 1.19196
83 1 -0.995018 0.220392 1.80419 4.22878
84 1 -1.04257 1.43749 1.02812 6.40159
88 1 -0.949108 -1.16111 3.07175 2.41428
89 1 -0.972787 0.761875 3.6018 0.694279
90 1 -0.991268 -1.00302 5.45565 1.22354
91 1 -1.02299 -0.975771 2.98235 7.86436
92 1 -1.01756 0.863393 3.49887 6.0679
93 1 -0.97131 -2.00726 6.00353 4.12286
94 1 -0.994566 -0.961215 5.28924 6.44432
118 1 -1.00617 3.32621 0.572176 2.90201
119 1 -0.989161 2.72972 2.2927 4.62068
120 1 -1.00147 6.22328 1.08153 0.993853
123 1 -1.01286 5.28826 1.75979 4.15407
124 1 -0.993654 6.26344 1.17178 6.57185
130 1 -1.01982 3.81627 3.0953 2.38831
132 1 -0.950479 0.759611 4.79771 3.00669
134 1 -1.01412 3.8305 5.47516 1.24976
31 2 1.92338 7.21595 0.0491054 7.13999
17 2 1.95695 -3.51776 6.24584 14.2203
9 2 1.88214 1.34143 2.30181 10.7162
16 2 1.9098 -0.190994 4.28408 12.4751
32 2 1.88753 3.74271 1.97565 8.77786
7 2 1.85769 2.29899 0.0829998 12.4072
35 2 2.06062 3.75264 2.05373 14.0452
41 2 2.00159 1.25677 6.20705 8.819
43 2 2.01709 4.68235 4.31274 12.3427
44 2 1.924 1.38973 6.2101 14.2045
85 1 -0.982703 0.24833 1.75342 14.7813
86 1 -0.95508 0.294298 1.72608 9.60577
87 1 -0.971423 1.38967 1.35393 11.9732
95 1 -0.975707 -1.18389 3.15145 13.0025
96 1 -0.92027 0.680124 3.6995 11.2589
97 1 -0.971876 -2.09043 5.9381 14.8182
98 1 -0.985066 -2.21379 5.96421 9.5779
99 1 -0.921684 -1.01134 5.57403 11.9098
121 1 -1.00186 3.1702 0.569475 8.28752
122 1 -0.930032 2.72154 2.57477 9.91306
125 1 -0.976129 3.34912 0.633315 13.5132
126 1 -1.03435 5.19912 1.99595 14.718
127 1 -1.00031 2.69204 2.41167 15.1859
128 1 -0.950046 5.24875 1.86916 9.35823
129 1 -0.92529 6.15169 1.22558 11.6881
137 1 -1.015 0.746443 4.80486 8.32565
141 1 -1.0468 3.78855 3.11523 12.9013
143 1 -0.947186 0.73623 4.81725 13.6712
144 1 -0.983856 2.80101 5.8814 14.8442
146 1 -1.01334 2.65057 6.14045 9.54275
147 1 -1.03375 3.83518 5.51254 11.7661
34 2 1.91771 7.12272 0.0553186 12.3299
3 2 1.96436 1.27997 2.2813 15.9112
12 2 1.96139 -1.09952 6.49775 0.0153209
15 2 1.98022 -1.02839 6.40207 5.33243
19 2 2.0492 -2.53291 8.50097 1.71539
21 2 2.0307 -3.59803 10.7097 0.0711646
22 2 2.00547 -2.58942 8.4439 7.04276
24 2 2.00267 -3.58661 10.7057 5.21339
46 2 1.96767 2.23202 8.47596 1.74958
47 2 2.09104 -1.0624 10.3887 3.51011
49 2 1.90089 2.22059 8.49313 7.13986
100 1 -0.955709 -3.34598 7.2804 2.38699
101 1 -1.00058 -1.6692 7.90046 0.552136
102 1 -0.993327 -5.9511 11.6025 2.30186
103 1 -1.04452 -3.48488 9.6381 1.22531
104 1 -1.03156 -4.13292 12.0794 0.601137
105 1 -0.992423 -3.48888 7.34597 7.76883
106 1 -0.992384 -1.67371 7.73603 5.96948
107 1 -0.952937 -5.92528 11.4643 7.66608
108 1 -1.00274 -4.70187 10.3619 4.08046
109 1 -0.963852 -3.54526 9.51311 6.31194
110 1 -0.979613 -4.01148 12.0169 5.98747
133 1 -0.992155 0.437576 6.67911 4.72957
148 1 -0.959725 1.32529 7.31163 2.37067
150 1 -1.0061 -1.53084 9.01959 2.8333
151 1 -1.0116 -1.00722 11.4501 2.33662
152 1 -1.04473 -2.15147 10.7899 4.54341
153 1 -0.967434 1.43426 9.67541 1.1114
155 1 -0.985922 1.28864 7.31173 7.65815
158 1 -0.962798 -1.04852 11.5536 7.70623
160 1 -1.00849 0.337303 10.3898 4.25891
161 1 -0.98611 1.32977 9.65884 6.50906
28 2 2.01609 -0.21673 12.71 1.70915
4 2 1.992 -4.99256 12.6914 7.10469
18 2 1.95394 -1.18399 6.57954 10.6517
25 2 1.90941 -2.66645 8.55129 12.3542
27 2 1.85356 -3.52061 10.9074 10.6704
50 2 1.99542 -1.12426 10.523 8.87731
52 2 1.87877 2.36609 8.53666 12.4462
53 2 1.89571 -1.19683 10.5038 14.1698
111 1 -0.968459 -3.42273 7.33424 13.035
112 1 -0.999959 -1.75219 7.95263 11.1866
113 1 -0.950304 -4.61446 10.2113 14.8877
114 1 -0.944815 -5.9655 11.612 13.0653
115 1 -0.911494 -4.56194 10.2809 9.54225
116 1 -0.957412 -3.55638 9.8444 11.8731
117 1 -0.95157 -4.21713 12.3009 11.1635
138 1 -0.955001 0.280357 6.69873 10.029
145 1 -0.969778 0.347815 6.68066 15.3274
157 1 -0.978054 -1.70872 9.16796 8.15107
159 1 -0.989997 -2.08405 11.1076 10.0232
163 1 -0.95097 1.51487 7.26815 13.0004
165 1 -0.895995 -1.73088 9.04123 13.54
166 1 -0.92852 0.150275 10.0424 14.7825
167 1 -0.987881 -1.08714 11.6147 13.006
168 1 -0.991245 -2.15452 10.9005 15.3703
169 1 -1.00361 0.30671 10.3448 9.46904
170 1 -0.958047 1.37542 9.69139 11.7949
23 2 1.88837 -6.03097 10.4513 8.8857
26 2 1.93618 -6.05931 10.5199 14.243
204 1 -1.03178 8.70356 5.5177 6.57128
203 1 -0.989236 7.59163 6.02529 4.29222
196 1 -0.968756 8.78195 5.38408 1.24366
33 2 1.93666 6.26168 2.22323 5.35318
198 1 -0.995216 10.3213 3.60795 5.97091
56 2 2.07147 8.61915 1.93507 3.58185
2 2 1.91032 13.4682 2.00098 3.6158
197 1 -0.98434 8.62578 3.12957 7.80245
60 2 1.92425 10.9811 2.25841 5.36332
64 2 1.99762 9.6543 4.18489 1.7684
65 2 2.07439 6.20121 6.25242 3.58007
67 2 2.00115 9.49186 4.31349 7.1139
131 1 -1.03887 5.58693 3.61599 0.687686
136 1 -0.969975 5.65803 3.62033 5.83321
172 1 -0.960764 13.0139 0.587708 2.94746
173 1 -1.04904 7.99638 0.718576 2.83585
174 1 -1.02718 7.73676 2.42389 4.77177
176 1 -0.964693 11.1743 1.1925 1.23034
180 1 -0.951484 12.4509 2.5411 4.77625
181 1 -1.00408 10.0853 1.70872 4.17359
182 1 -0.988765 11.1794 1.11813 6.51258
190 1 -0.993476 8.72178 3.1171 2.50349
191 1 -0.983544 10.5196 3.60023 0.51432
192 1 -1.01025 10.661 4.7487 2.82196
193 1 -0.974318 5.6186 4.87998 2.98374
207 1 -0.97391 10.5298 4.94467 13.5165
213 1 -1.03628 8.67439 5.3108 11.6428
212 1 -0.991851 7.55762 6.17145 9.40494
209 1 -1.00927 7.70214 5.79529 14.9541
36 2 1.89387 6.20824 2.37595 10.562
59 2 1.9272 8.64941 1.96614 8.92905
208 1 -1.00748 5.63046 4.8581 13.5008
62 2 1.95747 8.61765 1.98042 14.2657
63 2 1.9462 11.0662 2.23574 10.651
68 2 2.00393 6.11972 6.24401 8.70117
70 2 2.03575 9.60797 4.28083 12.4026
71 2 1.95566 6.27115 6.08219 14.2827
142 1 -0.97529 5.60483 3.74668 11.1446
175 1 -1.00491 12.4962 2.416 15.3053
177 1 -0.98795 13.0077 0.534813 8.27672
178 1 -0.975441 8.0775 0.584224 8.39253
179 1 -0.984998 7.74813 2.46746 10.148
183 1 -0.984456 13.0801 0.684584 13.4546
184 1 -0.967406 8.02307 0.681133 13.4983
185 1 -1.00382 10.0516 1.65404 14.8722
186 1 -1.02513 7.63281 2.43305 15.463
187 1 -1.00115 12.566 2.40135 10.1318
188 1 -0.972163 10.1289 1.70639 9.43212
189 1 -0.970552 11.0699 1.1185 11.769
199 1 -1.01382 10.5696 4.86727 8.20087
200 1 -1.0073 5.63153 4.82369 8.16171
205 1 -0.984364 8.79655 3.13125 13.1458
206 1 -0.987982 10.5851 3.58705 11.3581
5 2 2.01908 13.5422 1.90953 8.98892
14 2 1.99561 11.0581 6.19183 8.87598
8 2 2.0014 13.5084 2.03032 14.1392
61 2 1.94871 12.0883 0.0225865 12.3509
30 2 2.06741 6.15118 2.33401 15.9367
57 2 1.98783 11.057 2.20183 15.95
55 2 1.9558 4.75281 12.703 1.79731
20 2 2.07581 8.57614 10.5381 3.45264
42 2 2.012 3.75181 6.47034 5.33868
232 1 -0.985083 5.57672 12.0513 5.94795
51 2 2.01706 1.37503 10.7984 5.40191
58 2 2.00778 4.72876 12.6984 7.12868
69 2 1.93114 8.68525 6.55922 5.33777
73 2 2.01715 7.14895 8.50317 1.76448
74 2 1.94305 3.72943 10.4183 3.51166
231 1 -0.995301 6.31811 9.73871 6.51435
76 2 1.82472 7.20725 8.51711 7.02093
78 2 1.9802 6.19252 10.7225 5.30213
149 1 -0.977804 3.21976 7.896 0.635247
154 1 -0.969788 0.692161 12.0276 0.571477
156 1 -0.945263 3.06933 7.79847 5.8957
162 1 -0.997854 0.767928 12.1781 5.95169
194 1 -1.01281 5.18208 6.69998 4.69608
202 1 -0.959486 10.1344 6.61964 4.57399
214 1 -1.03168 6.2779 7.35837 2.47562
215 1 -0.970653 8.06333 7.86216 0.651029
216 1 -1.01625 8.12298 9.14932 2.83817
217 1 -0.971622 3.07261 9.05955 2.97893
218 1 -1.00181 3.84389 11.5566 2.38403
219 1 -0.999352 2.80536 10.8962 4.7379
221 1 -1.02504 6.24448 9.67998 1.17587
222 1 -1.00498 5.62026 12.1643 0.561119
223 1 -0.96703 6.24203 7.28992 7.54677
224 1 -0.94406 8.18905 7.99651 5.8157
227 1 -0.989285 3.82306 11.5403 7.80567
229 1 -1.01163 7.58211 11.0639 4.55588
230 1 -0.968639 5.19378 10.1612 4.17896
66 2 1.90907 8.66946 6.46224 0.0257499
75 2 1.981 6.22154 10.7929 0.0522571
39 2 1.92883 3.75719 6.4937 0.0291561
48 2 1.8518 1.256 10.7156 15.8616
243 1 -0.9858 5.63711 12.0661 11.2125
45 2 2.05622 3.72839 6.58871 10.6178
54 2 1.99798 1.29771 10.8145 10.6764
72 2 2.01524 8.58619 6.49774 10.6021
77 2 1.99838 3.75824 10.4022 8.93662
79 2 1.98521 7.25551 8.41347 12.6017
80 2 1.88825 3.82867 10.5469 14.1621
81 2 1.99039 6.18954 10.6643 10.7238
164 1 -0.9592 3.2585 8.00282 11.235
171 1 -1.00473 0.715586 12.1671 11.1878
195 1 -0.961262 10.1509 6.70726 15.3891
201 1 -0.99877 5.10494 6.73006 9.87952
210 1 -0.971028 5.25144 6.58632 15.4328
211 1 -1.00624 10.0283 6.73358 9.96856
220 1 -0.988823 7.7091 10.9888 15.4492
225 1 -0.898207 8.14004 9.03117 8.27506
226 1 -0.984568 3.21073 9.05421 8.30282
228 1 -0.983373 2.78854 10.8934 10.1082
233 1 -0.996609 6.33864 7.26059 13.2032
234 1 -0.999986 8.13264 7.76276 11.4552
235 1 -0.979092 8.18998 9.07595 13.7128
236 1 -0.948485 3.30452 9.10254 13.5947
237 1 -0.979351 5.258 10.2989 14.8431
238 1 -0.997093 3.917 11.5276 12.9104
239 1 -0.935141 2.74327 11.0301 15.2565
240 1 -0.966053 7.5807 10.8969 9.99966
241 1 -0.972129 5.1686 10.1241 9.59461
242 1 -0.986063 6.42074 9.60656 11.9209
ITEM: TIMESTEP
200
ITEM: NUMBER OF ATOMS
243
ITEM: BOX BOUNDS xy xz yz pp pp pp
-7.3456000000000001e+00 1.4691300000000000e+01 -7.3456000000000001e+00
0.0000000000000000e+00 1.2723000000000001e+01 0.0000000000000000e+00
0.0000000000000000e+00 1.5963100000000001e+01 0.0000000000000000e+00
ITEM: ATOMS id type q x y z
11 2 1.93925 -3.45527 6.10205 3.57155
31 2 1.92829 7.22324 0.0539979 7.11531
135 1 -0.943914 3.71384 3.04533 7.58563
6 2 1.92502 1.35306 2.12282 5.41096
10 2 1.99736 -0.201544 4.24554 1.75432
13 2 2.01467 -0.047334 4.12279 7.21393
140 1 -0.996574 3.70193 5.36791 6.403
29 2 1.92582 3.84093 1.83768 3.52905
139 1 -0.974321 2.80183 6.01086 4.12493
37 2 1.88875 4.74264 4.17018 1.89009
38 2 1.95693 1.31432 6.17678 3.53108
40 2 1.95201 4.65357 4.25801 6.99929
82 1 -0.910331 1.41559 1.21877 1.06202
83 1 -0.976666 0.275877 1.81597 4.22565
84 1 -0.994398 1.37062 0.936905 6.48016
88 1 -0.977472 -1.10268 3.05853 2.40625
89 1 -1.01516 0.733186 3.70483 0.601597
90 1 -1.05026 -1.00794 5.43593 1.1026
91 1 -1.02553 -0.934431 2.97327 7.84622
92 1 -0.994245 0.913548 3.49669 6.15903
93 1 -1.00268 -2.0381 5.85657 4.28663
94 1 -1.0061 -0.976828 5.25224 6.48438
118 1 -0.965704 3.2474 0.517075 2.85773
119 1 -0.941563 2.82291 2.23198 4.75668
120 1 -0.942801 6.06096 1.13375 1.05688
123 1 -0.974592 5.33595 1.7506 4.05295
124 1 -0.931292 6.29609 1.13343 6.37675
130 1 -0.97234 3.82562 2.99402 2.40761
132 1 -0.981386 0.714011 4.80936 2.94366
134 1 -0.954068 3.77751 5.27843 1.23032
28 2 1.86827 7.07136 0.027572 1.62659
17 2 1.94293 -3.61096 6.32636 14.1383
9 2 1.93407 1.31198 2.3349 10.7046
16 2 1.86849 -0.210633 4.35001 12.4251
32 2 1.98361 3.73926 1.99624 8.80811
7 2 1.97078 2.32561 0.0765274 12.4257
35 2 1.95081 3.73115 2.15809 14.061
41 2 1.9499 1.21613 6.21196 8.90219
43 2 2.05743 4.74528 4.37933 12.3258
44 2 2.00509 1.41108 6.21507 14.2185
85 1 -0.955671 0.288295 1.89804 14.8287
86 1 -0.988635 0.3279 1.59773 9.66284
87 1 -0.964188 1.35546 1.27978 11.8999
95 1 -0.935742 -1.14821 3.18295 13.0607
96 1 -0.955963 0.709861 3.7204 11.2334
97 1 -0.963687 -2.15341 6.04385 14.7699
98 1 -0.997147 -2.25393 5.92488 9.63146
99 1 -0.965343 -1.07089 5.6321 11.9333
121 1 -1.02989 3.29402 0.611357 8.17714
122 1 -0.986217 2.73552 2.48705 9.96106
125 1 -0.997452 3.26137 0.73736 13.5254
126 1 -0.99198 5.19739 1.97135 14.6844
127 1 -0.985981 2.77778 2.72438 15.2246
128 1 -0.998835 5.20492 1.94354 9.38197
129 1 -0.990437 6.12109 1.1045 11.6699
137 1 -1.01685 0.756498 4.77843 8.39829
141 1 -1.00182 3.77808 3.22694 12.8638
143 1 -0.951352 0.846329 4.8749 13.5122
144 1 -1.00154 2.84924 6.03017 14.8352
146 1 -0.9892 2.67011 6.11099 9.5089
147 1 -1.03934 3.99472 5.5996 11.6987
34 2 2.13819 7.08205 0.0493554 12.4009
3 2 1.93219 1.38161 2.42039 15.92
5 2 2.00467 -1.04729 1.83634 8.9345
4 2 1.98867 -4.97766 12.6323 7.13897
15 2 2.01622 -1.05735 6.37618 5.39272
19 2 1.83291 -2.48245 8.41904 1.73554
20 2 1.86891 -6.08251 10.5643 3.4612
22 2 1.96421 -2.55865 8.39463 7.07046
24 2 1.88228 -3.50078 10.6582 5.28207
46 2 1.87059 2.29213 8.45998 1.77965
47 2 1.87511 -1.04994 10.3749 3.47681
49 2 1.98957 2.16178 8.48843 7.09732
100 1 -0.921335 -3.41087 7.22208 2.4019
101 1 -0.961666 -1.69842 7.82977 0.454404
102 1 -0.932255 -6.11992 11.6739 2.29305
103 1 -0.970074 -3.31684 9.70662 1.19751
104 1 -0.974093 -4.08675 12.127 0.509403
105 1 -0.987645 -3.43087 7.20345 7.70161
106 1 -1.00217 -1.52095 7.75315 6.05022
107 1 -1.01589 -5.85827 11.4346 7.72657
108 1 -0.909647 -4.60111 10.3912 4.06518
109 1 -0.947939 -3.55377 9.42133 6.29585
110 1 -0.935009 -4.00369 12.0239 5.96327
133 1 -1.00764 0.37105 6.66601 4.69013
148 1 -0.970441 1.43813 7.228 2.32219
150 1 -0.937204 -1.43291 8.93227 2.85069
151 1 -0.920897 -1.10414 11.5062 2.29189
152 1 -0.979378 -2.04633 10.7999 4.64149
153 1 -0.948922 1.31386 9.60938 1.11534
155 1 -0.989416 1.29434 7.31557 7.72173
158 1 -0.994915 -1.02178 11.5605 7.7177
160 1 -0.977722 0.41372 10.2906 4.15699
161 1 -1.00841 1.3748 9.72439 6.50825
1 2 1.85458 -5.02826 12.712 1.68375
21 2 1.9857 -3.43359 10.7535 0.01769
18 2 1.99277 -1.26841 6.60438 10.6812
25 2 2.06031 -2.71561 8.6314 12.4046
27 2 1.97999 -3.6306 10.8294 10.5588
50 2 2.02965 -1.14922 10.5078 8.8935
52 2 1.93706 2.28276 8.46914 12.4372
53 2 1.97974 -1.02789 10.4964 14.1417
111 1 -1.00624 -3.58045 7.52963 13.0845
112 1 -1.0178 -1.91977 7.92275 11.2447
113 1 -0.974166 -4.45486 10.2131 14.8788
114 1 -0.967692 -5.78803 11.5764 13.1003
115 1 -0.941779 -4.56713 10.0935 9.46946
116 1 -0.963946 -3.67119 9.78285 11.7682
117 1 -0.991546 -4.25679 12.1914 11.1873
138 1 -0.956744 0.12719 6.87454 9.94234
145 1 -1.0386 0.332527 6.74219 15.2624
157 1 -0.977415 -1.81865 9.16394 8.24157
159 1 -1.03864 -2.21813 11.0044 9.95212
163 1 -0.988281 1.42678 7.25538 13.0282
165 1 -0.994131 -1.64536 9.15964 13.42
166 1 -0.969012 0.464897 10.3667 14.6249
167 1 -1.02933 -1.11658 11.6514 13.0459
168 1 -1.00583 -1.9931 10.919 15.3381
169 1 -1.02964 0.185987 10.2018 9.64672
170 1 -0.949637 1.36535 9.7105 11.9103
26 2 1.93963 -5.9385 10.5303 14.2998
12 2 2.04177 -1.06939 6.46956 15.8887
204 1 -1.05701 8.81551 5.49658 6.47585
203 1 -1.01577 7.68837 6.08989 4.17365
196 1 -1.00519 8.92803 5.54893 1.39073
33 2 1.88536 6.26614 2.32052 5.25324
198 1 -1.02087 10.3668 3.49711 5.99098
56 2 1.92295 8.64249 1.88253 3.5062
2 2 1.94137 13.5251 1.99598 3.59747
197 1 -0.956544 8.50741 3.27862 7.80757
60 2 1.94843 10.9584 2.15102 5.38251
64 2 1.98121 9.68204 4.25907 1.83774
65 2 1.96407 6.20032 6.29943 3.64978
67 2 2.03555 9.56098 4.27761 7.09528
131 1 -0.946992 5.69821 3.65426 0.687221
136 1 -0.977968 5.63732 3.65003 5.88073
172 1 -0.962973 12.8597 0.625814 3.04598
173 1 -0.990122 8.01053 0.613546 2.77272
174 1 -0.962727 7.78192 2.44948 4.72028
176 1 -0.98542 11.0671 1.10886 1.21171
180 1 -0.931602 12.4152 2.40975 4.7286
181 1 -0.962209 10.0613 1.55275 4.22225
182 1 -0.968012 11.0922 1.16073 6.67524
190 1 -0.965605 8.73709 3.13208 2.49932
191 1 -0.991424 10.3544 3.47995 0.576407
192 1 -0.980959 10.795 4.74817 2.84926
193 1 -0.922784 5.66447 4.85381 3.07094
57 2 1.96716 11.0371 2.17731 0.0136112
207 1 -0.978328 10.5243 4.97436 13.4274
213 1 -1.01842 8.60387 5.28932 11.7222
212 1 -0.980179 7.58564 6.07963 9.48161
209 1 -0.954331 7.75434 5.89766 14.8328
36 2 1.95968 6.14007 2.34939 10.6208
59 2 1.93055 8.60161 2.10966 8.91561
208 1 -1.00724 5.63862 4.84373 13.5561
62 2 2.09027 8.58042 2.0056 14.2368
63 2 2.00457 11.1354 2.25389 10.6632
68 2 1.97587 6.19986 6.25499 8.72653
70 2 2.06284 9.56284 4.21757 12.3994
71 2 1.91817 6.2438 6.1235 14.2796
142 1 -1.01857 5.63976 3.74834 11.2042
175 1 -1.01601 12.4279 2.42928 15.2506
177 1 -1.00095 13.0288 0.496261 8.25554
178 1 -0.984054 7.99842 0.750026 8.32863
179 1 -0.972301 7.6362 2.51791 10.1268
183 1 -0.991261 12.9673 0.705289 13.4388
184 1 -1.07054 7.85881 0.788062 13.5211
185 1 -0.962713 10.0222 1.6311 14.8164
186 1 -1.02252 7.64553 2.5045 15.4078
187 1 -0.999179 12.6214 2.32156 10.0684
188 1 -0.96248 10.1137 1.94992 9.45337
189 1 -1.00631 11.1165 1.07818 11.7114
199 1 -1.00739 10.4657 4.83921 8.31
200 1 -0.99777 5.53999 4.92057 8.13387
205 1 -1.06681 8.76298 3.1111 13.146
206 1 -1.00764 10.5082 3.58028 11.2669
8 2 1.9806 13.4969 2.00254 14.1822
14 2 2.02375 11.0353 6.17495 8.90779
30 2 1.94151 6.15229 2.31127 15.8889
39 2 1.93984 3.77795 6.42323 0.125988
75 2 2.02493 6.20697 10.8888 0.0622266
42 2 1.94222 3.70172 6.53726 5.33196
232 1 -0.992125 5.52492 12.1281 5.91791
51 2 1.95368 1.33765 10.8257 5.34547
58 2 2.00015 4.67675 12.6783 7.1759
69 2 2.00116 8.70988 6.50277 5.29669
73 2 1.9891 7.12078 8.46793 1.74947
74 2 2.03225 3.71158 10.3927 3.60033
231 1 -1.0219 6.29757 9.72134 6.48805
76 2 1.92845 7.22777 8.52448 6.92849
78 2 1.98268 6.15377 10.7791 5.34566
149 1 -0.951736 3.28008 7.84847 0.672245
154 1 -0.953132 0.65349 12.1904 0.420146
156 1 -0.970685 3.1694 7.92493 5.96488
162 1 -0.972239 0.926531 12.2188 6.05244
194 1 -0.983638 5.18585 6.79162 4.76838
202 1 -0.973154 10.2093 6.59187 4.69653
214 1 -1.00291 6.25948 7.29669 2.43643
215 1 -0.931886 7.97713 7.83749 0.555334
216 1 -0.950269 8.12365 9.16089 2.75836
217 1 -0.974944 3.23265 9.01367 2.98908
218 1 -1.03641 3.91198 11.4055 2.42378
219 1 -1.01955 2.77516 11.0116 4.70063
221 1 -0.99248 6.32418 9.68231 1.0894
222 1 -0.983079 5.73332 12.2317 0.758399
223 1 -0.977936 6.42559 7.27995 7.5087
224 1 -0.941463 8.24525 7.9916 5.78142
227 1 -1.02695 3.97617 11.4266 7.85786
229 1 -0.969126 7.59749 10.9157 4.6748
230 1 -0.966985 5.14501 10.1269 4.25817
66 2 1.8965 8.6777 6.42993 0.0746292
55 2 1.96164 4.65952 12.6966 1.87463
48 2 1.83591 1.285 10.7777 0.00772159
23 2 1.90468 8.67398 10.355 8.85603
243 1 -0.963609 5.66175 11.9932 11.2234
45 2 2.00804 3.77907 6.66874 10.542
54 2 2.02425 1.25467 10.7731 10.6867
72 2 2.0039 8.61228 6.45803 10.6613
77 2 2.04478 3.74632 10.3334 8.96073
79 2 1.89179 7.21042 8.49276 12.5083
80 2 1.89535 3.74092 10.3999 14.1833
81 2 1.95195 6.27625 10.6227 10.591
164 1 -0.981058 3.15766 8.01772 11.1873
171 1 -1.05405 0.690572 12.0763 11.3427
195 1 -0.943003 10.1125 6.69518 15.3798
201 1 -0.986193 5.14547 6.88128 9.81255
210 1 -0.945509 5.27956 6.54319 15.5333
211 1 -1.00697 10.0477 6.69361 10.0434
220 1 -0.977292 7.65128 11.0714 15.3276
225 1 -0.916043 8.15383 8.928 8.16951
226 1 -0.997922 3.07548 9.06074 8.27285
228 1 -1.0187 2.6694 10.9419 9.98872
233 1 -0.944176 6.33113 7.3093 13.1991
234 1 -0.961477 8.11817 7.82281 11.3658
235 1 -0.915605 8.0965 9.18169 13.6804
236 1 -0.96992 3.28726 8.96863 13.5487
237 1 -0.972515 5.13102 10.4304 14.9404
238 1 -0.978734 3.8732 11.5514 13.0291
239 1 -0.899048 2.79773 10.9475 15.4133
240 1 -1.02416 7.73444 10.7683 10.0788
241 1 -0.99623 5.16225 10.0084 9.61366
242 1 -0.935089 6.28271 9.6489 11.8772
61 2 2.00949 4.72073 12.6663 12.3441
ITEM: TIMESTEP
300
ITEM: NUMBER OF ATOMS
243
ITEM: BOX BOUNDS xy xz yz pp pp pp
-7.3456000000000001e+00 1.4691300000000000e+01 -7.3456000000000001e+00
0.0000000000000000e+00 1.2723000000000001e+01 0.0000000000000000e+00
0.0000000000000000e+00 1.5963100000000001e+01 0.0000000000000000e+00
ITEM: ATOMS id type q x y z
11 2 1.9963 -3.41073 6.14795 3.56929
31 2 2.03294 7.1953 0.00149857 7.04731
135 1 -0.998779 3.77318 3.22714 7.80995
6 2 2.03012 1.34283 2.17665 5.39705
10 2 2.0947 -0.241192 4.25095 1.72576
13 2 1.95778 -0.0531503 4.19951 7.20832
140 1 -1.00032 3.8126 5.48945 6.40394
29 2 2.06043 3.68167 1.87681 3.53348
139 1 -1.00581 2.81255 6.09826 4.02425
37 2 2.02948 4.6813 4.24454 1.89991
38 2 1.94566 1.30109 6.21564 3.49487
40 2 2.04581 4.6096 4.33589 7.09979
82 1 -1.01464 1.53788 1.20383 1.01913
83 1 -0.984131 0.306759 1.79256 4.25874
84 1 -1.01945 1.40169 1.02803 6.45799
88 1 -1.0169 -0.998214 3.05497 2.42452