ITEM: TIMESTEP
0
ITEM: NUMBER OF ATOMS
243
ITEM: BOX BOUNDS xy xz yz pp pp pp
-7.3456000000000001e+00 1.4691300000000000e+01 -7.3456000000000001e+00
0.0000000000000000e+00 1.2723000000000001e+01 0.0000000000000000e+00
0.0000000000000000e+00 1.5963100000000001e+01 0.0000000000000000e+00
ITEM: ATOMS id type q x y z
1 2 2.04147 2.313 0 1.774
3 2 2.04351 1.292 2.238 0
4 2 2.04086 2.313 0 7.095
6 2 2.04155 1.292 2.238 5.321
10 2 2.04064 -0.135 4.241 1.774
13 2 2.04003 -0.135 4.241 7.095
28 2 2.04138 7.21 0 1.774
29 2 2.04185 3.74 2.003 3.547
31 2 2.04076 7.21 0 7.095
37 2 2.04061 4.762 4.241 1.774
38 2 2.04207 1.292 6.244 3.547
40 2 2.04 4.762 4.241 7.095
82 1 -1.02036 1.394 1.118 1.121
83 1 -1.02048 0.271 1.766 4.2
84 1 -1.02065 1.394 1.118 6.442
88 1 -1.02026 -1.055 3.123 2.427
89 1 -1.02036 0.784 3.593 0.653
90 1 -1.01973 -1.055 5.359 1.121
91 1 -1.02055 -1.055 3.123 7.748
92 1 -1.02057 0.784 3.593 5.974
93 1 -1.02052 -2.178 6.007 4.2
94 1 -1.02002 -1.055 5.359 6.442
118 1 -1.02091 3.232 0.648 2.895
119 1 -1.02087 2.719 2.475 4.668
120 1 -1.02014 6.291 1.118 1.121
123 1 -1.0203 5.168 1.766 4.2
124 1 -1.02044 6.291 1.118 6.442
130 1 -1.02018 3.842 3.123 2.427
132 1 -1.02086 0.784 4.889 2.895
134 1 -1.01979 3.842 5.359 1.121
135 1 -1.02047 3.842 3.123 7.748
139 1 -1.0203 2.72 6.007 4.2
140 1 -1.02008 3.842 5.359 6.442
7 2 2.0401 2.313 0 12.416
9 2 2.04149 1.292 2.238 10.642
16 2 2.03927 -0.135 4.241 12.416
32 2 2.04181 3.74 2.003 8.868
34 2 2.04 7.21 0 12.416
35 2 2.03436 3.74 2.003 14.189
41 2 2.04203 1.292 6.244 8.868
43 2 2.03924 4.762 4.241 12.416
44 2 2.03458 1.292 6.244 14.189
85 1 -1.01979 0.271 1.766 14.842
86 1 -1.02035 0.271 1.766 9.521
87 1 -1.02055 1.394 1.118 11.763
95 1 -1.01979 -1.055 3.123 13.069
96 1 -1.02039 0.784 3.593 11.295
97 1 -1.01982 -2.178 6.007 14.842
98 1 -1.02039 -2.178 6.007 9.521
99 1 -1.01992 -1.055 5.359 11.763
121 1 -1.02091 3.232 0.648 8.216
122 1 -1.02082 2.719 2.475 9.989
125 1 -1.02008 3.232 0.648 13.537
126 1 -1.0196 5.168 1.766 14.842
127 1 -1.01839 2.719 2.475 15.32
128 1 -1.02017 5.168 1.766 9.521
129 1 -1.02034 6.291 1.118 11.763
137 1 -1.02085 0.784 4.889 8.216
141 1 -1.01972 3.842 3.123 13.069
143 1 -1.02003 0.784 4.889 13.537
144 1 -1.01961 2.72 6.007 14.842
146 1 -1.02017 2.72 6.007 9.521
147 1 -1.01998 3.842 5.359 11.763
12 2 2.0426 -1.156 6.479 0
15 2 2.04063 -1.156 6.479 5.321
19 2 2.04212 -2.584 8.482 1.774
21 2 2.0435 -3.605 10.72 0
22 2 2.04151 -2.584 8.482 7.095
24 2 2.04153 -3.605 10.72 5.321
46 2 2.04208 2.313 8.482 1.774
47 2 2.042 -1.157 10.485 3.547
49 2 2.04146 2.313 8.482 7.095
100 1 -1.021 -3.503 7.364 2.427
101 1 -1.02027 -1.665 7.834 0.653
102 1 -1.02068 -5.952 11.605 2.427
103 1 -1.02049 -3.503 9.6 1.121
104 1 -1.02028 -4.113 12.075 0.653
105 1 -1.02129 -3.503 7.364 7.748
106 1 -1.02048 -1.665 7.834 5.974
107 1 -1.02098 -5.952 11.605 7.748
108 1 -1.02053 -4.626 10.248 4.2
109 1 -1.02078 -3.503 9.6 6.442
110 1 -1.02049 -4.113 12.075 5.974
133 1 -1.02097 0.271 6.716 4.668
148 1 -1.02087 1.394 7.364 2.427
150 1 -1.02109 -1.665 9.13 2.895
151 1 -1.02061 -1.055 11.605 2.427
152 1 -1.02094 -2.178 10.957 4.668
153 1 -1.02029 1.394 9.6 1.121
155 1 -1.02117 1.394 7.364 7.748
158 1 -1.02091 -1.055 11.605 7.748
160 1 -1.02035 0.271 10.248 4.2
161 1 -1.02058 1.394 9.6 6.442
18 2 2.04058 -1.156 6.479 10.642
25 2 2.04075 -2.584 8.482 12.416
27 2 2.04148 -3.605 10.72 10.642
50 2 2.04197 -1.157 10.485 8.868
52 2 2.0407 2.313 8.482 12.416
53 2 2.03451 -1.157 10.485 14.189
111 1 -1.02054 -3.503 7.364 13.069
112 1 -1.0203 -1.665 7.834 11.295
113 1 -1.01984 -4.626 10.248 14.842
114 1 -1.02022 -5.952 11.605 13.069
115 1 -1.0204 -4.626 10.248 9.521
116 1 -1.02068 -3.503 9.6 11.763
117 1 -1.02031 -4.113 12.075 11.295
138 1 -1.02092 0.271 6.716 9.989
145 1 -1.01849 0.271 6.716 15.32
157 1 -1.02109 -1.665 9.13 8.216
159 1 -1.02089 -2.178 10.957 9.989
163 1 -1.02041 1.394 7.364 13.069
165 1 -1.02026 -1.665 9.13 13.537
166 1 -1.01966 0.271 10.248 14.842
167 1 -1.02015 -1.055 11.605 13.069
168 1 -1.01847 -2.178 10.957 15.32
169 1 -1.02022 0.271 10.248 9.521
170 1 -1.02048 1.394 9.6 11.763
2 2 2.04208 13.5343 2.003 3.547
11 2 2.0428 11.0863 6.244 3.547
30 2 2.04249 6.189 2.238 0
33 2 2.04054 6.189 2.238 5.321
55 2 2.04213 12.107 0 1.774
56 2 2.0426 8.638 2.003 3.547
57 2 2.04288 11.086 2.238 0
58 2 2.04151 12.107 0 7.095
60 2 2.04093 11.086 2.238 5.321
64 2 2.04219 9.659 4.241 1.774
65 2 2.04207 6.189 6.244 3.547
67 2 2.04157 9.659 4.241 7.095
131 1 -1.02028 5.681 3.593 0.653
136 1 -1.02049 5.681 3.593 5.974
172 1 -1.02104 13.026 0.648 2.895
173 1 -1.02086 8.129 0.648 2.895
174 1 -1.02032 7.617 2.475 4.668
176 1 -1.02041 11.188 1.118 1.121
180 1 -1.02059 12.514 2.475 4.668
181 1 -1.02107 10.065 1.766 4.2
182 1 -1.0207 11.188 1.118 6.442
190 1 -1.02098 8.74 3.123 2.427
191 1 -1.02047 10.578 3.593 0.653
192 1 -1.0211 10.578 4.889 2.895
193 1 -1.0209 5.681 4.889 2.895
196 1 -1.02044 8.74 5.359 1.121
197 1 -1.02127 8.74 3.123 7.748
198 1 -1.02068 10.578 3.593 5.974
203 1 -1.02043 7.617 6.007 4.2
204 1 -1.02073 8.74 5.359 6.442
5 2 2.04204 13.5343 2.003 8.868
8 2 2.03458 13.5343 2.003 14.189
14 2 2.04276 11.0863 6.244 8.868
17 2 2.03531 11.0863 6.244 14.189
36 2 2.04048 6.189 2.238 10.642
59 2 2.04256 8.638 2.003 8.868
61 2 2.04075 12.107 0 12.416
62 2 2.03511 8.638 2.003 14.189
63 2 2.04087 11.086 2.238 10.642
68 2 2.04203 6.189 6.244 8.868
70 2 2.04081 9.659 4.241 12.416
71 2 2.03458 6.189 6.244 14.189
142 1 -1.02031 5.681 3.593 11.295
175 1 -1.0181 12.514 2.475 15.32
177 1 -1.02103 13.026 0.648 8.216
178 1 -1.02086 8.129 0.648 8.216
179 1 -1.02028 7.617 2.475 9.989
183 1 -1.0202 13.026 0.648 13.537
184 1 -1.02003 8.129 0.648 13.537
185 1 -1.02038 10.065 1.766 14.842
186 1 -1.01784 7.617 2.475 15.32
187 1 -1.02054 12.514 2.475 9.989
188 1 -1.02094 10.065 1.766 9.521
189 1 -1.0206 11.188 1.118 11.763
199 1 -1.0211 10.578 4.889 8.216
200 1 -1.0209 5.681 4.889 8.216
205 1 -1.02052 8.74 3.123 13.069
206 1 -1.0205 10.578 3.593 11.295
207 1 -1.02027 10.578 4.889 13.537
208 1 -1.02007 5.681 4.889 13.537
209 1 -1.01973 7.617 6.007 14.842
212 1 -1.0203 7.617 6.007 9.521
213 1 -1.02063 8.74 5.359 11.763
20 2 2.04222 8.6373 10.485 3.547
39 2 2.04305 3.741 6.479 0
42 2 2.04109 3.741 6.479 5.321
48 2 2.04248 1.292 10.72 0
51 2 2.04053 1.292 10.72 5.321
66 2 2.0433 8.638 6.479 0
69 2 2.04134 8.638 6.479 5.321
73 2 2.04208 7.21 8.482 1.774
74 2 2.04271 3.741 10.485 3.547
75 2 2.04282 6.189 10.72 0
76 2 2.04146 7.21 8.482 7.095
78 2 2.04087 6.189 10.72 5.321
149 1 -1.02035 3.232 7.834 0.653
154 1 -1.02015 0.784 12.075 0.653
156 1 -1.02056 3.232 7.834 5.974
162 1 -1.02036 0.784 12.075 5.974
194 1 -1.02101 5.168 6.716 4.668
202 1 -1.02092 10.065 6.716 4.668
214 1 -1.02091 6.291 7.364 2.427
215 1 -1.02042 8.129 7.834 0.653
216 1 -1.02108 8.129 9.13 2.895
217 1 -1.021 3.232 9.13 2.895
218 1 -1.02123 3.843 11.605 2.427
219 1 -1.02037 2.72 10.957 4.668
221 1 -1.02035 6.291 9.6 1.121
222 1 -1.02029 5.681 12.075 0.653
223 1 -1.02121 6.291 7.364 7.748
224 1 -1.02063 8.129 7.834 5.974
227 1 -1.02152 3.843 11.605 7.748
229 1 -1.02064 7.617 10.957 4.668
230 1 -1.02108 5.168 10.248 4.2
231 1 -1.02065 6.291 9.6 6.442
232 1 -1.0205 5.681 12.075 5.974
23 2 2.04218 8.6373 10.485 8.868
26 2 2.03472 8.6373 10.485 14.189
45 2 2.04103 3.741 6.479 10.642
54 2 2.04047 1.292 10.72 10.642
72 2 2.04128 8.638 6.479 10.642
77 2 2.04267 3.741 10.485 8.868
79 2 2.0407 7.21 8.482 12.416
80 2 2.03522 3.741 10.485 14.189
81 2 2.04081 6.189 10.72 10.642
164 1 -1.02038 3.232 7.834 11.295
171 1 -1.02019 0.784 12.075 11.295
195 1 -1.01845 10.065 6.716 15.32
201 1 -1.02096 5.168 6.716 9.989
210 1 -1.01854 5.168 6.716 15.32
211 1 -1.02088 10.065 6.716 9.989
220 1 -1.01815 7.617 10.957 15.32
225 1 -1.02108 8.129 9.13 8.216
226 1 -1.02099 3.232 9.13 8.216
228 1 -1.02032 2.72 10.957 9.989
233 1 -1.02045 6.291 7.364 13.069
234 1 -1.02045 8.129 7.834 11.295
235 1 -1.02025 8.129 9.13 13.537
236 1 -1.02017 3.232 9.13 13.537
237 1 -1.02038 5.168 10.248 14.842
238 1 -1.02077 3.843 11.605 13.069
239 1 -1.01789 2.72 10.957 15.32
240 1 -1.02059 7.617 10.957 9.989
241 1 -1.02095 5.168 10.248 9.521
242 1 -1.02055 6.291 9.6 11.763
243 1 -1.02032 5.681 12.075 11.295
ITEM: TIMESTEP
1
ITEM: NUMBER OF ATOMS
243
ITEM: BOX BOUNDS xy xz yz pp pp pp
-7.3456000000000001e+00 1.4691300000000000e+01 -7.3456000000000001e+00
0.0000000000000000e+00 1.2723000000000001e+01 0.0000000000000000e+00
0.0000000000000000e+00 1.5963100000000001e+01 0.0000000000000000e+00
ITEM: ATOMS id type q x y z
1 2 2.05533 2.30949 -0.000319268 1.77372
3 2 2.05026 1.28856 2.23997 0.0031631
4 2 2.05479 2.30947 -0.000360407 7.09485
6 2 2.0575 1.29305 2.24071 5.32109
10 2 2.0554 -0.139501 4.24099 1.7739
13 2 2.05475 -0.139519 4.24095 7.09503
28 2 2.05417 7.2065 -0.000311819 1.77374
29 2 2.05607 3.74213 1.99995 3.54822
31 2 2.0534 7.20648 -0.000352607 7.09488
37 2 2.05454 4.75747 4.241 1.77391
38 2 2.05557 1.29416 6.24098 3.54819
40 2 2.05384 4.75746 4.24096 7.09505
82 1 -1.02837 1.39899 1.12834 1.12158
83 1 -1.02873 0.276029 1.77573 4.19927
84 1 -1.02785 1.39894 1.12805 6.44296
88 1 -1.02744 -1.04917 3.11507 2.425
89 1 -1.02842 0.773384 3.59214 0.652093
90 1 -1.02827 -1.04941 5.36884 1.12195
91 1 -1.02731 -1.04927 3.11496 7.74578
92 1 -1.02764 0.773676 3.59209 5.973
93 1 -1.02831 -2.17231 6.01652 4.20006
94 1 -1.02743 -1.04946 5.36855 6.44333
118 1 -1.02739 3.22155 0.648471 2.89573
119 1 -1.02824 2.72419 2.46567 4.66856
120 1 -1.02794 6.29599 1.12834 1.12159
123 1 -1.02824 5.17305 1.7752 4.1989
124 1 -1.02697 6.29594 1.12805 6.44296
130 1 -1.02725 3.84759 3.11407 2.42519
132 1 -1.02725 0.773493 4.8895 2.89573
134 1 -1.02811 3.8476 5.36884 1.12195
135 1 -1.02717 3.84749 3.11395 7.74598
139 1 -1.02836 2.72599 6.01645 4.19905
140 1 -1.02763 3.84755 5.36855 6.44332
7 2 2.05412 2.3095 -0.000373879 12.4157
9 2 2.0576 1.29302 2.24068 10.6421
16 2 2.05411 -0.13949 4.24094 12.4159
32 2 2.05612 3.74215 1.99999 8.86929
34 2 2.05274 7.20651 -0.00036601 12.4157
35 2 2.05796 3.73734 2.00228 14.1968
41 2 2.05563 1.29417 6.24101 8.86927
43 2 2.05324 4.75749 4.24094 12.4159
44 2 2.05814 1.28937 6.24331 14.1967
85 1 -1.02656 0.276871 1.77514 14.8405
86 1 -1.02872 0.276038 1.77572 9.52025
87 1 -1.02729 1.39892 1.1281 11.764
95 1 -1.02476 -1.04939 3.1154 13.0663
96 1 -1.02741 0.773744 3.59206 11.294
97 1 -1.02618 -2.17048 6.01622 14.8414
98 1 -1.0283 -2.1723 6.01651 9.52104
99 1 -1.02686 -1.04948 5.3686 11.7644
121 1 -1.02741 3.2216 0.648529 8.21668
122 1 -1.02839 2.72418 2.46568 9.98956
125 1 -1.02531 3.22136 0.648565 13.538
126 1 -1.02664 5.17389 1.77518 14.8405
127 1 -1.02904 2.73411 2.46354 15.3122
128 1 -1.02824 5.17306 1.77518 9.51988
129 1 -1.02641 6.29591 1.1281 11.764
137 1 -1.02726 0.773543 4.88955 8.21668
141 1 -1.02485 3.84736 3.11439 13.0665
143 1 -1.02518 0.773307 4.88959 13.538
144 1 -1.02667 2.72584 6.01614 14.8404
146 1 -1.02836 2.72599 6.01643 9.52003
147 1 -1.02715 3.84752 5.3686 11.7644
12 2 2.05009 -1.16035 6.48116 0.00271384
15 2 2.05555 -1.15586 6.4819 5.32064
19 2 2.05846 -2.58762 8.482 1.77389
21 2 2.04999 -3.60845 10.722 0.0031635
22 2 2.05781 -2.58764 8.48196 7.09502
24 2 2.05722 -3.60396 10.7227 5.32109
46 2 2.05729 2.30941 8.48201 1.7739
47 2 2.05551 -1.15488 10.482 3.5482
49 2 2.05665 2.30939 8.48197 7.09504
100 1 -1.02838 -3.49693 7.35632 2.42549
101 1 -1.02919 -1.67604 7.83356 0.65214
102 1 -1.02736 -5.94644 11.5968 2.42513
103 1 -1.02921 -3.49728 9.60963 1.12142
104 1 -1.02886 -4.12388 12.0743 0.652418
105 1 -1.02828 -3.49703 7.35621 7.74628
106 1 -1.02813 -1.67575 7.8335 5.97305
107 1 -1.02725 -5.94655 11.5967 7.74592
108 1 -1.02873 -4.62098 10.2577 4.19928
109 1 -1.02871 -3.49733 9.60934 6.44279
110 1 -1.02807 -4.12359 12.0742 5.97333
133 1 -1.02741 0.277098 6.70693 4.66878
148 1 -1.02772 1.39981 7.35531 2.42566
150 1 -1.02796 -1.67617 9.12977 2.89551
151 1 -1.02704 -1.04969 11.5958 2.42533
152 1 -1.02807 -2.1728 10.9477 4.66857
153 1 -1.02884 1.39971 9.60963 1.12143
155 1 -1.02764 1.39971 7.3552 7.74645
158 1 -1.02695 -1.04979 11.5957 7.74612
160 1 -1.02815 0.276031 10.2572 4.1989
161 1 -1.02786 1.39966 9.60934 6.44281
18 2 2.05569 -1.15589 6.48187 10.6416
25 2 2.05713 -2.58761 8.48195 12.4158
27 2 2.05733 -3.60399 10.7227 10.6421
50 2 2.05553 -1.15486 10.482 8.86927
52 2 2.05596 2.30942 8.48196 12.4159
53 2 2.05741 -1.15967 10.4843 14.1967
111 1 -1.02561 -3.49715 7.35664 13.0668
112 1 -1.02787 -1.67568 7.83348 11.294
113 1 -1.02655 -4.62014 10.2571 14.8405
114 1 -1.0247 -5.94667 11.5971 13.0665
115 1 -1.02873 -4.62097 10.2577 9.52026
116 1 -1.02815 -3.49735 9.60938 11.7638
117 1 -1.02783 -4.12352 12.0742 11.2943
138 1 -1.02755 0.277083 6.70694 9.98978
145 1 -1.02876 0.286035 6.70452 15.3122
157 1 -1.02796 -1.67612 9.12983 8.21645
159 1 -1.02822 -2.17281 10.9477 9.98957
163 1 -1.02544 1.39958 7.35563 13.067
165 1 -1.02582 -1.67636 9.12987 13.5378
166 1 -1.02656 0.276871 10.2572 14.8405
167 1 -1.02461 -1.04992 11.5961 13.0667
168 1 -1.02887 -2.16287 10.9455 15.3122
169 1 -1.02815 0.276039 10.2572 9.51988
170 1 -1.02728 1.39964 9.60938 11.7639
2 2 2.05379 13.5368 1.99969 3.5478
11 2 2.05508 11.0872 6.24108 3.54788
30 2 2.05031 6.1866 2.24011 0.00272148
33 2 2.05509 6.19107 2.24084 5.32066
55 2 2.05707 12.1039 0.000122253 1.77346
56 2 2.05576 8.6389 1.99978 3.54759
57 2 2.05099 11.0836 2.24012 0.00273261
58 2 2.05633 12.1039 8.12699e-05 7.09459
60 2 2.05572 11.0881 2.24085 5.32067
64 2 2.05981 9.6554 4.24103 1.77389
65 2 2.05528 6.19114 6.24099 3.5482
67 2 2.05918 9.65538 4.24098 7.09503
131 1 -1.02801 5.67043 3.59217 0.652078
136 1 -1.02695 5.67073 3.59211 5.97299
172 1 -1.02762 13.0146 0.646904 2.89576
173 1 -1.02766 8.11851 0.647814 2.89608
174 1 -1.02804 7.62305 2.46558 4.66902
176 1 -1.02872 11.193 1.12832 1.1216
180 1 -1.02761 12.5196 2.46569 4.66942
181 1 -1.02771 10.0701 1.77529 4.19954
182 1 -1.02768 11.1929 1.12803 6.44297
190 1 -1.02839 8.74609 3.11531 2.42548
191 1 -1.02919 10.5667 3.59284 0.652283
192 1 -1.02825 10.5666 4.88789 2.89575
193 1 -1.02712 5.67053 4.88948 2.89572
196 1 -1.02907 8.74598 5.36764 1.12161
197 1 -1.02823 8.74599 3.1152 7.74627
198 1 -1.02796 10.567 3.59278 5.97319
203 1 -1.02802 7.62299 6.01643 4.1991
204 1 -1.02841 8.74593 5.36735 6.44298
5 2 2.05382 13.5368 1.99972 8.86887
8 2 2.05464 13.532 2.00203 14.1964
14 2 2.05514 11.0872 6.24111 8.86896
17 2 2.05527 11.0824 6.2434 14.1964
36 2 2.05522 6.19104 2.24081 10.6416
59 2 2.05583 8.63891 1.99981 8.86867
61 2 2.05564 12.104 6.70643e-05 12.4154
62 2 2.05579 8.6341 2.00211 14.1961
63 2 2.05584 11.088 2.24082 10.6417
68 2 2.05529 6.19116 6.24102 8.86927
70 2 2.0584 9.65541 4.24097 12.4159
71 2 2.05797 6.18635 6.24332 14.1967
142 1 -1.02671 5.67079 3.59209 11.294
175 1 -1.02886 12.5276 2.46355 15.313
177 1 -1.02759 13.0147 0.646963 8.21671
178 1 -1.02762 8.11856 0.647872 8.21702
179 1 -1.02818 7.62303 2.4656 9.99002
183 1 -1.02512 13.0144 0.646998 13.5381
184 1 -1.02509 8.11832 0.647909 13.5384
185 1 -1.02569 10.072 1.77499 14.8409
186 1 -1.02925 7.63096 2.46345 15.3126
187 1 -1.02775 12.5196 2.4657 9.99042
188 1 -1.0277 10.0701 1.77528 9.52052
189 1 -1.02707 11.1929 1.12808 11.764
199 1 -1.02825 10.5667 4.88795 8.21669
200 1 -1.02712 5.67058 4.88954 8.21666
205 1 -1.02553 8.74586 3.11563 13.0668
206 1 -1.02767 10.5671 3.59276 11.2942
207 1 -1.02582 10.5664 4.88799 13.538
208 1 -1.02511 5.67035 4.88958 13.538
209 1 -1.02635 7.62284 6.01612 14.8405
212 1 -1.02802 7.623 6.01641 9.52008
213 1 -1.02786 8.74591 5.3674 11.764
20 2 2.05405 8.63977 10.4817 3.54778
39 2 2.04927 3.73722 6.48139 0.00323534
42 2 2.0566 3.74171 6.48213 5.32116
48 2 2.05001 1.28961 10.7221 0.00272086
51 2 2.05484 1.29407 10.7228 5.32066
66 2 2.04783 8.63434 6.4813 0.00332165
69 2 2.05434 8.63884 6.48204 5.32125
73 2 2.05757 7.20641 8.48201 1.77389
74 2 2.05518 3.74189 10.4818 3.54758
75 2 2.05138 6.18659 10.7221 0.00272929
76 2 2.05682 7.20639 8.48197 7.09503
78 2 2.05607 6.19106 10.7228 5.32067
149 1 -1.02904 3.22094 7.83355 0.652141
154 1 -1.0284 0.77316 12.0743 0.652399
156 1 -1.02829 3.22123 7.83349 5.97305
162 1 -1.02726 0.773452 12.0743 5.97331
194 1 -1.02787 5.17318 6.70667 4.66864
202 1 -1.02768 10.0713 6.70639 4.66821
214 1 -1.02783 6.29682 7.35531 2.42565
215 1 -1.02877 8.11769 7.83451 0.651952
216 1 -1.02779 8.11764 9.12888 2.89575
217 1 -1.02812 3.22078 9.12913 2.89585
218 1 -1.02774 3.8488 11.597 2.42564
219 1 -1.02788 2.72606 10.9476 4.66902
221 1 -1.02899 6.29672 9.60963 1.12142
222 1 -1.02928 5.67018 12.0743 0.652374
223 1 -1.02775 6.29672 7.35519 7.74644
224 1 -1.02797 8.11798 7.83445 5.97286
227 1 -1.02756 3.84869 11.5969 7.74643
229 1 -1.0276 7.62265 10.9477 4.66942
230 1 -1.02779 5.17311 10.2573 4.19954
231 1 -1.02798 6.29667 9.60934 6.4428
232 1 -1.02805 5.67048 12.0743 5.97328
23 2 2.0541 8.63979 10.4817 8.86885
26 2 2.0549 8.63496 10.484 14.1963
45 2 2.05668 3.74169 6.4821 10.6421
54 2 2.05495 1.29404 10.7228 10.6416
72 2 2.05446 8.63881 6.48201 10.6422
77 2 2.05524 3.74191 10.4818 8.86866
79 2 2.05624 7.20642 8.48195 12.4158
80 2 2.05523 3.7371 10.4841 14.1961
81 2 2.05622 6.19103 10.7228 10.6416
164 1 -1.02806 3.2213 7.83347 11.294
171 1 -1.027 0.77352 12.0742 11.2943
195 1 -1.02844 10.0802 6.70455 15.312
201 1 -1.02802 5.17316 6.70668 9.98964
210 1 -1.02882 5.1831 6.70454 15.3122
211 1 -1.02782 10.0713 6.7064 9.98921
220 1 -1.02884 7.63059 10.9456 15.313
225 1 -1.02777 8.11769 9.12894 8.2167
226 1 -1.02811 3.22083 9.12918 8.2168
228 1 -1.02802 2.72604 10.9476 9.99001
233 1 -1.02558 6.29659 7.35563 13.067
234 1 -1.02775 8.11805 7.83443 11.2939
235 1 -1.02535 8.11745 9.12897 13.538
236 1 -1.02566 3.22059 9.12922 13.5381
237 1 -1.02579 5.17494 10.257 14.8409
238 1 -1.02485 3.84857 11.5973 13.067
239 1 -1.0291 2.73397 10.9455 15.3126
240 1 -1.02774 7.62264 10.9477 9.99042
241 1 -1.02778 5.17312 10.2573 9.52052
242 1 -1.02741 6.29665 9.60939 11.7638
243 1 -1.02779 5.67054 12.0743 11.2943
ITEM: TIMESTEP
2
ITEM: NUMBER OF ATOMS
243
ITEM: BOX BOUNDS xy xz yz pp pp pp
-7.3456000000000001e+00 1.4691300000000000e+01 -7.3456000000000001e+00
0.0000000000000000e+00 1.2723000000000001e+01 0.0000000000000000e+00
0.0000000000000000e+00 1.5963100000000001e+01 0.0000000000000000e+00
ITEM: ATOMS id type q x y z
1 2 2.08163 2.29847 0.00131153 1.77296
3 2 2.0752 1.3013 2.25033 -0.000855296
4 2 2.07895 2.29878 0.000835365 7.09397
6 2 2.08085 1.29852 2.2499 5.3205
10 2 2.08068 -0.150183 4.24234 1.77308
13 2 2.07772 -0.14986 4.24185 7.09409
28 2 2.07966 7.19498 0.000540026 1.77328
29 2 2.07869 3.74789 1.99116 3.54813
31 2 2.07638 7.19531 6.18523e-05 7.09432
37 2 2.07947 4.7463 4.24168 1.77341
38 2 2.07826 1.30094 6.23198 3.54829
40 2 2.07641 4.74661 4.2412 7.09445
82 1 -1.0389 1.40946 1.14026 1.1282
83 1 -1.04009 0.283142 1.79214 4.19568
84 1 -1.04002 1.40959 1.14178 6.44774
88 1 -1.03858 -1.03867 3.10037 2.42091
89 1 -1.03824 0.754431 3.5912 0.648971
90 1 -1.03932 -1.03881 5.38167 1.1279
91 1 -1.03821 -1.03896 3.10001 7.74155
92 1 -1.03949 0.755492 3.5899 5.96934
93 1 -1.0397 -2.16631 6.0326 4.19598
94 1 -1.03969 -1.03869 5.38317 6.44746
118 1 -1.03905 3.20395 0.650589 2.89913
119 1 -1.04019 2.7306 2.44947 4.67264
120 1 -1.03846 6.30654 1.14048 1.12805
123 1 -1.04044 5.18067 1.79141 4.1954
124 1 -1.03856 6.30663 1.14198 6.4476
130 1 -1.03872 3.85808 3.0993 2.42123
132 1 -1.03873 0.75564 4.892 2.89965
134 1 -1.03844 3.85823 5.3815 1.12804
135 1 -1.03843 3.85778 3.09893 7.74185
139 1 -1.04046 2.73303 6.03259 4.19467
140 1 -1.03961 3.85835 5.38301 6.44759
7 2 2.07246 2.2991 0.00116021 12.4148
9 2 2.08048 1.29846 2.24984 10.6415
16 2 2.07251 -0.149544 4.24218 12.4149
32 2 2.07843 3.74795 1.99124 8.86916
34 2 2.07039 7.19562 0.000375934 12.4152
35 2 2.08176 3.74929 1.9916 14.1905
41 2 2.078 1.301 6.23206 8.86932
43 2 2.0718 4.74694 4.24151 12.4153
44 2 2.08188 1.30119 6.23261 14.1906
85 1 -1.03866 0.282015 1.79092 14.8349
86 1 -1.04009 0.283193 1.79212 9.51663
87 1 -1.03889 1.40958 1.1419 11.7688
95 1 -1.03772 -1.04052 3.09835 13.0653
96 1 -1.03892 0.755711 3.58986 11.2902
97 1 -1.03825 -2.16666 6.03179 14.8346
98 1 -1.03969 -2.16626 6.03257 9.51694
99 1 -1.03882 -1.0387 5.38327 11.7685
121 1 -1.03854 3.20408 0.650744 8.22007
122 1 -1.04006 2.73052 2.4495 9.99363
125 1 -1.03803 3.20389 0.653292 13.5439
126 1 -1.0399 5.17922 1.79121 14.835
127 1 -1.04033 2.73212 2.448 15.3211
128 1 -1.04043 5.18072 1.79139 9.51636
129 1 -1.03757 6.30661 1.14208 11.7686
137 1 -1.03822 0.755766 4.89215 8.2206
141 1 -1.03845 3.85654 3.09745 13.065
143 1 -1.03797 0.755576 4.8943 13.5437
144 1 -1.03965 2.73088 6.03197 14.8348
146 1 -1.0405 2.73308 6.03257 9.51563
147 1 -1.03897 3.85834 5.38312 11.7686
12 2 2.07528 -1.14716 6.49202 0.000399464
15 2 2.07954 -1.14976 6.49147 5.32087
19 2 2.08343 -2.59848 8.48323 1.77278
21 2 2.07573 -3.59576 10.7322 -0.000422251
22 2 2.08051 -2.59817 8.48276 7.09381
24 2 2.08146 -3.59854 10.7318 5.32093
46 2 2.08228 2.29804 8.48249 1.77311
47 2 2.07877 -1.14949 10.4722 3.548
49 2 2.07981 2.29839 8.48201 7.09413
100 1 -1.03974 -3.48667 7.34174 2.42248
101 1 -1.03985 -1.69464 7.83259 0.648952
102 1 -1.03823 -5.93595 11.5823 2.42076
103 1 -1.03986 -3.48661 9.6218 1.1272
104 1 -1.03882 -4.1425 12.0732 0.649621
105 1 -1.03947 -3.48696 7.34138 7.74311
106 1 -1.04043 -1.69359 7.83132 5.9693
107 1 -1.03792 -5.93623 11.582 7.7414
108 1 -1.03999 -4.61388 10.2742 4.19568
109 1 -1.04101 -3.48649 9.62332 6.44673
110 1 -1.04006 -4.14145 12.0719 5.97001
133 1 -1.03915 0.283082 6.69095 4.67385
148 1 -1.03927 1.41035 7.34083 2.42205
150 1 -1.03992 -1.69364 9.13231 2.89964
151 1 -1.03814 -1.03926 11.5812 2.42103
152 1 -1.0399 -2.16641 10.9315 4.67267
153 1 -1.0397 1.41045 9.62203 1.12706
155 1 -1.03907 1.41007 7.34046 7.74267
158 1 -1.03778 -1.03956 11.5808 7.74164
160 1 -1.03997 0.283276 10.2736 4.19472
161 1 -1.03969 1.41088 9.62333 6.44731
18 2 2.0793 -1.14982 6.49141 10.6419
25 2 2.07562 -2.59784 8.48308 12.4147
27 2 2.08168 -3.59861 10.7317 10.642
50 2 2.07852 -1.14942 10.4723 8.86903
52 2 2.07501 2.29868 8.48233 12.415
53 2 2.08074 -1.14808 10.4727 14.1903
111 1 -1.03861 -3.48821 7.33992 13.0662
112 1 -1.03991 -1.69337 7.83128 11.2902
113 1 -1.03858 -4.615 10.2729 14.8349
114 1 -1.03718 -5.93779 11.5803 13.0652
115 1 -1.04007 -4.61383 10.2741 9.51663
116 1 -1.04029 -3.4865 9.62343 11.7677
117 1 -1.03942 -4.14123 12.0715 11.2902
138 1 -1.03903 0.283001 6.69098 9.99484
145 1 -1.04009 0.283571 6.68891 15.3213
157 1 -1.03941 -1.69352 9.13246 8.22059
159 1 -1.03985 -2.16649 10.9315 9.99366
163 1 -1.03929 1.40885 7.33897 13.0658
165 1 -1.03888 -1.69371 9.13461 13.5437
166 1 -1.03952 0.282168 10.2732 14.835
167 1 -1.03745 -1.04079 11.5793 13.0648
168 1 -1.03989 -2.16489 10.9301 15.3211
169 1 -1.04 0.283328 10.2736 9.51567
170 1 -1.03904 1.41086 9.62343 11.7683
2 2 2.07625 13.5422 1.9902 3.5467
11 2 2.07861 11.0933 6.23119 3.54638
30 2 2.07597 6.19889 2.25042 -0.00108439
33 2 2.07951 6.19729 2.25003 5.31943
55 2 2.08117 12.0926 0.00139717 1.77183
56 2 2.07715 8.64449 1.99106 3.54667
57 2 2.07535 11.0958 2.25137 7.48223e-05
58 2 2.07804 12.0929 0.000904042 7.09286
60 2 2.07955 11.0938 2.25086 5.32034
64 2 2.08471 9.64459 4.24153 1.77314
65 2 2.07899 6.19756 6.23211 3.54857
67 2 2.08177 9.6449 4.24104 7.09416
131 1 -1.0379 5.65172 3.59103 0.648803
136 1 -1.03839 5.65278 3.58975 5.9691
172 1 -1.03873 12.9974 0.649177 2.90056
173 1 -1.03881 8.10088 0.649328 2.89982
174 1 -1.04 7.62919 2.44921 4.67468
176 1 -1.03946 11.2035 1.14062 1.12796
180 1 -1.03899 12.5265 2.44925 4.67475
181 1 -1.03866 10.077 1.79139 4.196
182 1 -1.03948 11.2036 1.14213 6.4475
190 1 -1.04016 8.7567 3.10089 2.42179
191 1 -1.04015 10.5483 3.59149 0.648775
192 1 -1.0405 10.5492 4.89009 2.90039
193 1 -1.03837 5.65278 4.89189 2.8996
196 1 -1.03975 8.75677 5.38001 1.12734
197 1 -1.03972 8.7564 3.10054 7.74243
198 1 -1.04037 10.5494 3.59023 5.96911
203 1 -1.03955 7.62969 6.0328 4.19415
204 1 -1.04052 8.75687 5.38151 6.44692
5 2 2.07595 13.5423 1.99027 8.86773
8 2 2.07972 13.5425 1.99102 14.1899
14 2 2.07834 11.0934 6.23126 8.86741
17 2 2.07966 11.0949 6.23176 14.1895
36 2 2.07925 6.19723 2.24997 10.6405
59 2 2.07693 8.64455 1.99113 8.8677
61 2 2.07327 12.0932 0.00123311 12.4137
62 2 2.08061 8.64563 1.99174 14.1901
63 2 2.07926 11.0937 2.2508 10.6414
68 2 2.07862 6.19762 6.23218 8.8696
70 2 2.07621 9.64523 4.24136 12.415
71 2 2.08205 6.19818 6.23264 14.1906
142 1 -1.0379 5.65299 3.58971 11.29
175 1 -1.04017 12.5265 2.44777 15.321
177 1 -1.03812 12.9975 0.649331 8.22152
178 1 -1.03815 8.101 0.649483 8.22079
179 1 -1.03987 7.62911 2.44924 9.99567
183 1 -1.0373 12.9973 0.651435 13.5446
184 1 -1.03711 8.10085 0.652006 13.5446
185 1 -1.03767 10.0765 1.79062 14.8347
186 1 -1.04094 7.62921 2.44773 15.321
187 1 -1.03884 12.5264 2.44928 9.99575
188 1 -1.03865 10.077 1.79137 9.51696
189 1 -1.03865 11.2036 1.14223 11.7685
199 1 -1.03995 10.5493 4.89025 8.22135
200 1 -1.03785 5.65291 4.89205 8.22056
205 1 -1.03898 8.75482 3.09889 13.0662
206 1 -1.03973 10.5496 3.59019 11.29
207 1 -1.03872 10.5491 4.89237 13.5445
208 1 -1.03777 5.65266 4.89424 13.5437
209 1 -1.0388 7.62756 6.03214 14.8343
212 1 -1.03956 7.62974 6.03278 9.5151
213 1 -1.03961 8.75685 5.38163 11.7679
20 2 2.07625 8.64513 10.4719 3.54689
39 2 2.07513 3.7496 6.49189 -0.000116649
42 2 2.0803 3.74716 6.49158 5.32148
48 2 2.07642 1.30185 10.7323 -0.000670364
51 2 2.07841 1.30025 10.7319 5.31984
66 2 2.07341 8.6467 6.49191 0.000615802
69 2 2.07801 8.64508 6.49168 5.32187
73 2 2.08141 7.19464 8.48265 1.77317
74 2 2.07768 3.74714 10.472 3.54659
75 2 2.0763 6.1991 10.7326 0.000167865
76 2 2.07822 7.19499 8.48217 7.0942
78 2 2.08047 6.19709 10.7321 5.32043
149 1 -1.03925 3.20233 7.83276 0.649028
154 1 -1.03828 0.754786 12.073 0.649436
156 1 -1.04063 3.20334 7.83143 5.96939
162 1 -1.03832 0.755832 12.0717 5.96974
194 1 -1.03951 5.17947 6.69048 4.673
202 1 -1.03841 10.0768 6.69034 4.67341
214 1 -1.03924 6.30743 7.34077 2.42201
215 1 -1.03844 8.09935 7.83377 0.648082
216 1 -1.03904 8.10035 9.13107 2.90056
217 1 -1.03993 3.20324 9.1311 2.9003
218 1 -1.03846 3.85905 11.5827 2.42221
219 1 -1.03941 2.73254 10.9315 4.67402
221 1 -1.03994 6.30741 9.62205 1.12709
222 1 -1.03967 5.65193 12.073 0.649235
223 1 -1.03897 6.30713 7.3404 7.74262
224 1 -1.03946 8.10038 7.83246 5.9684
227 1 -1.03799 3.85875 11.5823 7.74285
229 1 -1.03909 7.62946 10.9313 4.67471
230 1 -1.03895 5.17994 10.2734 4.19601
231 1 -1.04003 6.30751 9.62354 6.44663
232 1 -1.03992 5.65304 12.0717 5.96956
23 2 2.07603 8.64519 10.472 8.86792
26 2 2.07965 8.64545 10.4728 14.1901
45 2 2.07997 3.7471 6.49152 10.6425
54 2 2.07869 1.30019 10.7319 10.6409
72 2 2.07773 8.64502 6.49162 10.6429
77 2 2.07754 3.7472 10.4721 8.86762
79 2 2.07375 7.19528 8.48249 12.4151
80 2 2.07951 3.74828 10.4727 14.1901
81 2 2.08032 6.19703 10.732 10.6415
164 1 -1.04013 3.20356 7.83138 11.2903
171 1 -1.0377 0.75605 12.0713 11.2899
195 1 -1.03819 10.0776 6.68932 15.3214
201 1 -1.0394 5.17939 6.69051 9.99399
210 1 -1.03991 5.18092 6.689 15.3214
211 1 -1.03825 10.0767 6.69037 9.9944
220 1 -1.04021 7.62949 10.9298 15.321
225 1 -1.03848 8.10048 9.13122 8.22152
226 1 -1.03943 3.20336 9.13126 8.22127
228 1 -1.03935 2.73246 10.9315 9.99501
233 1 -1.03926 6.30591 7.3389 13.0657
234 1 -1.03898 8.1006 7.83242 11.2893
235 1 -1.03774 8.1003 9.13332 13.5446
236 1 -1.03833 3.20321 9.13335 13.5444
237 1 -1.03769 5.17949 10.2726 14.8347
238 1 -1.03713 3.85751 11.5809 13.066
239 1 -1.04048 2.73222 10.9298 15.321
240 1 -1.03895 7.62938 10.9313 9.9957
241 1 -1.03897 5.17999 10.2733 9.51696
242 1 -1.03923 6.3075 9.62365 11.7676
243 1 -1.03935 5.65326 12.0717 11.2904
ITEM: TIMESTEP
3
ITEM: NUMBER OF ATOMS
243
ITEM: BOX BOUNDS xy xz yz pp pp pp
-7.3456000000000001e+00 1.4691300000000000e+01 -7.3456000000000001e+00
0.0000000000000000e+00 1.2723000000000001e+01 0.0000000000000000e+00
0.0000000000000000e+00 1.5963100000000001e+01 0.0000000000000000e+00
ITEM: ATOMS id type q x y z
1 2 2.07968 2.29495 0.000343551 1.77472
3 2 2.08182 1.30006 2.25269 0.000120318
4 2 2.08099 2.29494 0.000593942 7.0945
6 2 2.08245 1.30072 2.25314 5.32136
10 2 2.07968 -0.153162 4.24154 1.77472
13 2 2.08052 -0.153135 4.24176 7.09451
28 2 2.07923 7.19143 -0.000482404 1.77481
29 2 2.08185 3.74959 1.98763 3.54758
31 2 2.07938 7.19151 -0.000271112 7.09462
37 2 2.07947 4.74352 4.24073 1.77495
38 2 2.08136 1.30164 6.22893 3.54817
40 2 2.08004 4.74356 4.24093 7.09474
82 1 -1.03982 1.41009 1.14769 1.12885
83 1 -1.04048 0.286325 1.79614 4.1928
84 1 -1.0413 1.4114 1.14734 6.4497
88 1 -1.04042 -1.03675 3.09465 2.41892
89 1 -1.03984 0.749594 3.5909 0.645344
90 1 -1.03979 -1.03806 5.38886 1.12899
91 1 -1.04 -1.03703 3.09438 7.73942
92 1 -1.04084 0.749678 3.59112 5.967
93 1 -1.04069 -2.16272 6.03677 4.19356
94 1 -1.04078 -1.0368 5.3887 6.44959
118 1 -1.041 3.19851 0.650058 2.90168
119 1 -1.04114 2.73444 2.44513 4.67496
120 1 -1.03986 6.30748 1.14764 1.12893
123 1 -1.0411 5.18419 1.79569 4.19282
124 1 -1.04053 6.30867 1.14744 6.44957
130 1 -1.04054 3.86026 3.09417 2.41899
132 1 -1.04078 0.749872 4.89126 2.90192
134 1 -1.03935 3.85896 5.38877 1.12891
135 1 -1.04013 3.85994 3.09387 7.73945
139 1 -1.04095 2.73702 6.03674 4.19264
140 1 -1.04058 3.86025 5.38836 6.44982
7 2 2.08034 2.29519 -0.000177454 12.4175
9 2 2.08167 1.30073 2.25307 10.6422
16 2 2.08025 -0.153381 4.24098 12.4175
32 2 2.08141 3.7496 1.98771 8.86864
34 2 2.07861 7.192 -0.000752968 12.4174
35 2 2.07872 3.74915 1.98842 14.1912
41 2 2.08091 1.30163 6.22903 8.86923
43 2 2.07999 4.74356 4.24039 12.4175
44 2 2.07881 1.30057 6.22938 14.1915
85 1 -1.04021 0.288918 1.79571 14.8347
86 1 -1.04027 0.286372 1.79612 9.51373
87 1 -1.03973 1.4113 1.14737 11.7708
95 1 -1.03998 -1.0374 3.09563 13.0615
96 1 -1.03984 0.749862 3.59122 11.288
97 1 -1.04023 -2.15897 6.03669 14.8351
98 1 -1.04051 -2.16267 6.03675 9.5145
99 1 -1.03949 -1.03689 5.38872 11.7706
121 1 -1.04049 3.19859 0.650085 8.22254
122 1 -1.04089 2.7344 2.44517 9.99593
125 1 -1.0406 3.19681 0.650833 13.5448
126 1 -1.0411 5.18667 1.79603 14.8351
127 1 -1.04031 2.73776 2.44379 15.3213
128 1 -1.04089 5.18424 1.79567 9.51376
129 1 -1.03902 6.30855 1.14747 11.7706