ITEM: TIMESTEP
0
ITEM: NUMBER OF ATOMS
243
ITEM: BOX BOUNDS xy xz yz pp pp pp
-7.3456000000000001e+00 1.4691300000000000e+01 -7.3456000000000001e+00
0.0000000000000000e+00 1.2723000000000001e+01 0.0000000000000000e+00
0.0000000000000000e+00 1.5963100000000001e+01 0.0000000000000000e+00
ITEM: ATOMS id type q x y z element
40 2 1.99341 4.78505 4.31239 7.12799 C
134 1 -1.01846 3.98755 5.43015 1.14308 C
3 2 2.11744 1.28678 2.24286 0.088174 C
6 2 1.96974 1.2847 2.4368 5.32021 C
10 2 1.98596 -0.267031 4.22275 1.77703 C
13 2 1.97985 -0.322047 4.3687 7.10853 C
140 1 -0.963084 3.85904 5.51466 6.51874 C
29 2 1.85732 3.78174 2.03493 3.60845 C
139 1 -0.996216 2.75366 5.97753 4.08525 C
37 2 2.05549 4.72843 4.2209 1.80747 C
38 2 1.99385 1.29621 6.17446 3.49139 C
31 2 2.02743 7.03942 0.0818572 7.09595 C
82 1 -1.06432 1.27891 1.10617 1.14303 C
83 1 -1.00559 0.31727 1.82826 4.17863 C
84 1 -0.962682 1.4167 1.30809 6.46695 C
88 1 -1.02379 -1.13522 3.02065 2.35943 C
89 1 -1.01738 0.753052 3.55707 0.680525 C
90 1 -0.965214 -1.0985 5.38348 1.05325 C
91 1 -0.969612 -1.26155 3.18986 7.71875 C
92 1 -1.0118 0.582515 3.67908 5.96637 C
93 1 -1.03234 -2.08013 6.03429 4.14275 C
94 1 -1.03667 -1.17095 5.56669 6.50704 C
118 1 -0.9568 3.22731 0.648721 2.87702 C
119 1 -0.972463 2.78907 2.57303 4.77686 C
120 1 -0.943715 6.2436 1.189 1.31199 C
123 1 -0.964693 5.30856 1.68322 4.20787 C
124 1 -1.0097 6.30655 1.3372 6.49562 C
130 1 -1.00167 3.80333 3.11331 2.47132 C
132 1 -0.998902 0.624564 4.80055 2.93749 C
4 2 1.93131 2.34325 0.107216 6.95365 C
1 2 2.04978 2.26999 0.0409901 1.78376 C
121 1 -1.00479 3.46158 0.720794 7.94663 C
2 2 1.99369 -1.11054 1.98905 3.53215 C
135 1 -1.00202 3.90681 3.2635 7.97241 C
44 2 1.96394 1.24362 6.32601 14.2198 C
9 2 1.99818 1.34582 2.22936 10.6332 C
16 2 2.00484 -0.0529434 4.26413 12.424 C
32 2 2.07078 3.83851 1.9628 8.85277 C
147 1 -0.995318 3.82971 5.41225 11.8217 C
35 2 1.97474 3.67703 1.99783 14.3093 C
43 2 2.05345 4.6737 4.1825 12.5086 C
146 1 -0.985063 2.7037 6.05283 9.5117 C
14 2 1.91653 -3.48836 6.12695 8.78272 C
85 1 -1.04175 0.428836 1.9519 14.7108 C
86 1 -1.0167 0.350032 2.06498 9.41463 C
87 1 -0.950509 1.13455 1.06233 11.7089 C
95 1 -0.973256 -1.01069 3.04444 12.9131 C
96 1 -1.0022 0.963094 3.57524 11.3999 C
97 1 -0.920973 -2.22799 6.00501 14.764 C
98 1 -1.00411 -2.03771 5.99037 9.44585 C
99 1 -1.03702 -0.930845 5.3707 11.729 C
8 2 2.0158 -1.01136 1.97652 14.091 C
122 1 -1.05766 2.80628 2.12742 10.0056 C
125 1 -0.982223 2.93919 0.681305 13.723 C
126 1 -1.02551 5.13899 1.75242 14.9164 C
127 1 -1.00561 2.78089 2.33952 15.6192 C
128 1 -1.01237 5.30183 1.90356 9.57432 C
129 1 -0.940384 6.27655 1.21025 11.914 C
137 1 -1.00262 0.650395 4.97692 8.21315 C
141 1 -1.03967 3.73 3.13077 13.1996 C
143 1 -1.00636 0.64648 4.95877 13.6669 C
144 1 -0.991031 2.58795 6.07523 15.0719 C
41 2 1.98838 1.29008 6.32089 8.77627 C
5 2 2.05112 -1.13998 2.07121 8.83353 C
7 2 1.90668 2.20294 0.0369858 12.4607 C
161 1 -0.962194 1.50707 9.84069 6.55991 C
15 2 2.03403 -1.16428 6.55827 5.26646 C
19 2 1.98398 -2.69816 8.48237 1.86101 C
107 1 -0.957876 -5.83308 11.7067 7.75515 C
22 2 1.91559 -2.62293 8.49665 7.04598 C
24 2 2.067 -3.65396 10.6719 5.22545 C
46 2 1.97097 2.29306 8.47741 1.80157 C
47 2 2.08251 -1.09171 10.4027 3.6009 C
160 1 -1.00904 0.285751 10.3017 4.33581 C
100 1 -1.00136 -3.61675 7.46891 2.63666 C
101 1 -0.942195 -1.89158 7.86317 0.625996 C
102 1 -1.01013 -5.89841 11.536 2.34417 C
103 1 -0.999357 -3.53631 9.64702 1.16306 C
104 1 -1.02744 -4.14147 12.1042 0.669352 C
105 1 -0.933579 -3.54739 7.36312 7.69696 C
106 1 -0.983984 -1.69634 7.97921 5.80794 C
49 2 1.91893 2.30873 8.53474 6.99214 C
108 1 -1.01927 -4.67808 10.1045 4.24742 C
109 1 -0.969228 -3.50896 9.69387 6.48329 C
110 1 -0.971207 -4.22768 12.113 5.72053 C
133 1 -1.00776 0.273936 6.66032 4.61554 C
148 1 -0.985633 1.41932 7.23445 2.31638 C
150 1 -1.0115 -1.59898 9.1399 2.86664 C
151 1 -0.969339 -1.02558 11.5161 2.41237 C
152 1 -1.0545 -2.20924 10.7895 4.65014 C
153 1 -1.01429 1.38029 9.63185 1.26287 C
155 1 -0.981638 1.33983 7.46562 7.61014 C
28 2 1.85025 -0.150832 12.688 1.80548 C
158 1 -1.03414 -1.09848 11.5809 7.59498 C
21 2 2.06865 -3.57878 10.7959 0.0568275 C
34 2 1.80315 -0.136292 12.6593 12.3852 C
25 2 1.98399 -2.63594 8.4754 12.3649 C
27 2 1.98133 -3.48357 10.9112 10.6489 C
50 2 1.89324 -1.17511 10.5674 8.81641 C
52 2 1.94247 2.2512 8.46546 12.3909 C
53 2 1.94254 -1.22121 10.406 14.2221 C
111 1 -0.922019 -3.65672 7.37271 12.9722 C
112 1 -1.01039 -1.69601 7.76066 11.2771 C
113 1 -1.05171 -4.53177 10.2987 14.8737 C
114 1 -0.990795 -5.95082 11.4748 13.0211 C
115 1 -0.979647 -4.49755 10.4032 9.53433 C
116 1 -0.980891 -3.38967 9.67847 11.7343 C
117 1 -0.994858 -4.05966 12.1511 11.4787 C
138 1 -1.03132 0.328868 6.75407 9.92743 C
145 1 -0.940478 0.22857 6.94034 15.3018 C
157 1 -0.93513 -1.80536 9.16473 8.25711 C
159 1 -0.994056 -2.08102 11.2003 10.0428 C
163 1 -1.00594 1.3579 7.30247 12.9804 C
165 1 -0.978826 -1.7499 9.04409 13.5862 C
166 1 -0.946377 0.221002 10.1404 14.9291 C
167 1 -0.952183 -0.96382 11.4044 13.0013 C
168 1 -0.995708 -2.11395 11.0287 15.3932 C
169 1 -0.961525 0.313692 10.3626 9.39986 C
170 1 -0.967631 1.34463 9.60554 11.6867 C
18 2 2.08564 -1.05591 6.47866 10.6136 C
26 2 2.05636 -5.94447 10.4407 14.1757 C
12 2 1.88404 -1.223 6.53788 15.8804 C
23 2 1.88424 -5.95146 10.5878 8.91992 C
204 1 -0.95287 8.61279 5.37365 6.52654 C
203 1 -1.03432 7.66085 6.09992 4.15851 C
196 1 -0.951533 8.73274 5.35291 1.12257 C
58 2 2.02685 12.1731 0.0464799 7.10254 C
198 1 -0.97146 10.3749 3.46026 5.86441 C
56 2 1.85298 8.71875 1.8747 3.49739 C
193 1 -1.04253 5.58545 4.87956 2.96985 C
197 1 -1.01377 8.6945 3.0439 7.80596 C
60 2 1.97322 11.1196 2.16771 5.22451 C
64 2 1.88002 9.72334 4.17342 1.67014 C
65 2 2.04222 6.17243 6.2039 3.60168 C
67 2 1.95639 9.5594 4.15386 7.05123 C
131 1 -0.998744 5.63677 3.52331 0.670654 C
136 1 -1.01495 5.52602 3.61411 5.88622 C
172 1 -0.969683 12.9512 0.592356 2.95624 C
173 1 -0.902854 8.28827 0.401712 2.9522 C
174 1 -0.987622 7.69959 2.50285 4.63623 C
176 1 -0.981565 11.2516 1.04835 1.04929 C
180 1 -0.980055 12.5853 2.51512 4.66186 C
181 1 -0.980215 10.1895 1.70734 4.02503 C
182 1 -0.996777 11.2728 1.18943 6.45669 C
190 1 -0.917522 8.82909 2.87788 2.22491 C
191 1 -0.954207 10.6169 3.60631 0.52424 C
192 1 -0.970553 10.6207 4.89265 2.80728 C
11 2 1.96889 11.1018 6.18748 3.60976 C
30 2 2.02577 6.15379 2.1687 0.0208869 C
33 2 2.00239 6.25355 2.33778 5.25627 C
207 1 -0.887258 10.5288 4.70548 13.5865 C
213 1 -0.968461 8.72783 5.35015 11.7409 C
212 1 -1.0085 7.76138 6.06463 9.47391 C
209 1 -0.982597 7.59537 5.81926 14.8503 C
36 2 2.03631 6.29134 2.2973 10.7321 C
59 2 2.03208 8.64192 1.98524 8.95342 C
208 1 -1.02233 5.51534 4.84642 13.6788 C
62 2 1.94102 8.67656 1.81635 14.1768 C
63 2 1.99343 11.077 2.24426 10.6768 C
68 2 1.94971 6.24257 6.2169 8.88188 C
70 2 1.83162 9.55111 4.14763 12.3848 C
199 1 -0.95717 10.5581 4.78221 8.1442 C
142 1 -1.04353 5.60441 3.53022 11.4468 C
175 1 -0.974414 12.6414 2.42233 15.2402 C
177 1 -1.03572 13.2102 0.780032 8.03326 C
17 2 1.81109 10.9747 6.17743 14.1244 C
179 1 -1.02639 7.79606 2.42887 10.2467 C
183 1 -1.02898 13.0962 0.584354 13.5625 C
184 1 -0.911213 8.15991 0.387667 13.6217 C
185 1 -0.939535 10.1815 1.76152 14.698 C
186 1 -0.979783 7.63515 2.19104 15.2967 C
187 1 -1.02371 12.4933 2.32215 10.0079 C
188 1 -1.00686 10.0755 1.7178 9.53066 C
189 1 -0.992303 11.2404 1.18025 11.8796 C
178 1 -0.979403 7.89878 0.708802 8.31715 C
200 1 -1.03673 5.74616 4.92792 8.19764 C
205 1 -0.938012 8.65332 2.93817 12.9932 C
206 1 -0.953566 10.5731 3.65912 11.2063 C
71 2 2.05088 6.20884 6.18803 14.2007 C
57 2 1.93607 11.2108 2.20266 15.8979 C
229 1 -1.01646 7.55694 10.8952 4.60472 C
230 1 -1.02793 5.12185 10.1923 4.16597 C
42 2 1.94483 3.73567 6.51416 5.23818 C
232 1 -0.995032 5.64565 12.0295 5.9152 C
51 2 1.90628 1.31315 10.9562 5.40327 C
194 1 -1.03766 5.22474 6.67655 4.73055 C
224 1 -0.972255 8.19446 7.88548 6.03062 C
73 2 2.0453 7.10564 8.4095 1.7815 C
74 2 1.92606 3.66621 10.4436 3.6634 C
231 1 -1.00304 6.38248 9.62855 6.4344 C
76 2 1.94257 7.25715 8.51272 7.16849 C
78 2 2.06114 6.15346 10.6831 5.26621 C
149 1 -0.982691 3.34249 7.92187 0.740658 C
154 1 -0.935994 0.680665 12.1089 0.56006 C
156 1 -0.973312 3.07335 7.90478 5.72648 C
162 1 -0.98196 0.732394 12.3424 5.96172 C
223 1 -0.957258 6.23027 7.45287 7.7983 C
202 1 -0.987832 10.1423 6.4814 4.84137 C
214 1 -1.00249 6.16898 7.33308 2.43785 C
215 1 -1.04942 7.91756 7.81234 0.593337 C
216 1 -1.0042 8.04022 9.04177 2.88823 C
217 1 -0.95207 3.01473 9.07806 3.13704 C
218 1 -0.943664 3.79514 11.5269 2.44825 C
219 1 -0.935347 2.77693 11.2217 4.7717 C
221 1 -1.00466 6.21173 9.61476 1.14804 C
222 1 -0.972765 5.666 12.0357 0.629146 C
227 1 -1.0059 3.95363 11.5739 7.68923 C
69 2 1.94561 8.61614 6.49497 5.35475 C
55 2 1.98258 4.7259 12.6478 1.78319 C
20 2 1.96984 8.59415 10.4179 3.49718 C
48 2 1.94607 1.2231 10.6813 0.0760436 C
39 2 2.00677 3.80798 6.54511 0.0333557 C
66 2 1.96264 8.56358 6.47825 0.00699428 C
242 1 -0.977793 6.38698 9.5912 11.6652 C
243 1 -1.0154 5.63824 12.0245 11.3553 C
54 2 1.93682 1.28129 10.7848 10.5657 C
45 2 2.04615 3.78544 6.46131 10.6414 C
72 2 2.05544 8.74404 6.49099 10.5885 C
77 2 1.97572 3.82315 10.3969 8.76696 C
79 2 2.01803 7.29537 8.41839 12.3675 C
80 2 2.01073 3.65387 10.4463 14.266 C
81 2 2.018 6.25676 10.7819 10.5895 C
164 1 -1.00209 3.23576 7.78503 11.3194 C
171 1 -0.960799 0.824834 12.1676 11.1592 C
195 1 -0.962415 9.97893 6.65083 15.3157 C
201 1 -1.02917 5.24992 6.51441 10.1317 C
210 1 -1.03067 5.23423 6.76194 15.3017 C
211 1 -0.971243 10.1797 6.6074 9.9334 C
220 1 -1.00993 7.65116 10.8143 15.3272 C
225 1 -0.945833 8.12605 9.15538 8.3463 C
226 1 -0.975564 3.29866 8.98891 8.21021 C
228 1 -0.952656 2.73448 10.9016 9.84628 C
233 1 -1.05568 6.54295 7.21934 13.0563 C
234 1 -1.0127 8.28733 7.82775 11.2856 C
235 1 -0.991629 8.17379 9.12328 13.5081 C
236 1 -1.02181 3.10625 9.08949 13.621 C
237 1 -1.01376 5.08829 10.308 14.8638 C
238 1 -0.998024 3.8376 11.6553 13.2272 C
239 1 -0.965311 2.68568 10.9714 15.4213 C
240 1 -0.978322 7.74008 11.0681 10.0948 C
241 1 -1.04136 5.25141 10.3656 9.43996 C
75 2 2.03937 6.20814 10.6615 15.9536 C
61 2 2.06971 4.78129 12.7222 12.5142 C
ITEM: TIMESTEP
100
ITEM: NUMBER OF ATOMS
243
ITEM: BOX BOUNDS xy xz yz pp pp pp
-7.0263380000000009e+00 1.4691300000000000e+01 -7.0263380000000009e+00
0.0000000000000000e+00 1.2723000000000001e+01 0.0000000000000000e+00
0.0000000000000000e+00 1.5963100000000001e+01 0.0000000000000000e+00
ITEM: ATOMS id type q x y z element
40 2 1.92202 4.76519 4.30949 7.05556 C
134 1 -0.934159 3.90339 5.39188 1.20759 C
3 2 1.85609 1.38358 2.30703 0.0923717 C
6 2 1.95225 1.30423 2.36098 5.21013 C
10 2 1.87684 -0.319076 4.24174 1.76775 C
13 2 1.98102 -0.208261 4.3152 7.02561 C
140 1 -0.955442 3.75481 5.39779 6.48015 C
29 2 1.93675 3.76896 1.97679 3.47781 C
139 1 -0.954301 2.76244 5.91355 4.04572 C
37 2 1.88125 4.84659 4.23977 1.81129 C
38 2 1.90931 1.28805 6.21673 3.52796 C
31 2 1.96172 7.0464 0.107749 7.11345 C
82 1 -0.97861 1.28425 1.21756 1.22708 C
83 1 -0.995146 0.31179 1.92451 4.06478 C
84 1 -0.984254 1.40306 1.26674 6.41124 C
88 1 -1.00528 -1.25939 3.0979 2.38131 C
89 1 -0.931358 0.738164 3.71364 0.660997 C
90 1 -0.927893 -1.29905 5.35818 1.14479 C
91 1 -0.955488 -1.14964 3.18746 7.59148 C
92 1 -0.965532 0.723451 3.69789 5.87368 C
93 1 -1.01892 -1.98671 6.10149 4.07802 C
94 1 -0.938607 -1.08809 5.51026 6.3394 C
118 1 -0.961328 3.09325 0.573623 3.00541 C
119 1 -0.951156 2.78302 2.61981 4.56906 C
120 1 -0.957964 6.23547 1.19212 1.27015 C
123 1 -0.993403 5.21896 1.9786 4.21012 C
124 1 -1.02656 6.34905 1.31998 6.40383 C
130 1 -0.968381 3.92993 2.94039 2.28352 C
132 1 -0.919183 0.5548 4.85327 2.99319 C
4 2 1.95292 2.31484 0.121119 7.01996 C
1 2 1.89576 2.18915 0.019593 1.79649 C
135 1 -0.992852 3.8682 3.08738 7.64167 C
11 2 1.9817 -3.51606 6.17876 3.63309 C
5 2 1.89134 -1.16031 2.07494 8.78483 C
9 2 1.93784 1.40464 2.23028 10.6224 C
16 2 1.88578 -0.0142974 4.21918 12.4067 C
32 2 1.96572 3.82591 2.0138 8.77385 C
147 1 -0.940036 3.62072 5.46984 11.9039 C
35 2 1.90327 3.7909 1.94663 14.3075 C
43 2 1.87452 4.62314 4.29779 12.4849 C
146 1 -0.924039 2.71532 5.94191 9.4518 C
44 2 1.99099 1.29091 6.26055 14.2313 C
85 1 -0.985002 0.44863 1.7488 14.8606 C
86 1 -0.947117 0.318575 1.98607 9.42481 C
87 1 -0.940422 1.37325 1.05841 11.7199 C
95 1 -0.938104 -0.866623 2.9573 12.9807 C
96 1 -0.920628 1.04271 3.62938 11.3168 C
97 1 -0.958002 -2.187 6.04652 14.7176 C
98 1 -0.972846 -2.12357 6.0454 9.34814 C
99 1 -0.950292 -0.910131 5.22684 11.5536 C
8 2 1.92394 -0.963962 1.90008 14.2019 C
122 1 -1.00016 2.82301 2.37452 9.94398 C
125 1 -0.941865 3.20107 0.570349 13.7123 C
126 1 -0.967417 5.22824 1.5799 14.8825 C
127 1 -0.960038 2.88655 2.5467 15.447 C
128 1 -0.967819 5.2863 1.77512 9.44883 C
129 1 -0.935639 6.35584 1.11512 11.8076 C
137 1 -0.997933 0.626165 4.927 8.2136 C
141 1 -0.927423 3.7871 3.03356 13.1052 C
143 1 -0.981175 0.769157 4.8924 13.6632 C
144 1 -0.994601 2.7289 6.24692 14.8593 C
41 2 1.92705 1.25063 6.24318 8.86043 C
121 1 -0.976227 3.36719 0.617677 8.09931 C
161 1 -0.995236 1.54022 9.77581 6.59012 C
15 2 1.93946 -1.07615 6.67739 5.22267 C
19 2 1.9819 -2.73386 8.4654 1.93162 C
107 1 -0.935955 -5.92538 11.7032 7.71862 C
22 2 1.95849 -2.62481 8.54035 7.14499 C
24 2 2.00831 -3.6277 10.7034 5.25367 C
46 2 1.93445 2.16292 8.49663 1.88299 C
47 2 2.0701 -1.12704 10.4169 3.63402 C
160 1 -1.02477 0.250987 10.2408 4.30737 C
100 1 -1.00478 -3.63177 7.35374 2.5266 C
101 1 -0.939489 -1.89799 7.81586 0.691681 C
102 1 -0.957615 -6.01922 11.5179 2.403 C
103 1 -0.982376 -3.49598 9.71143 1.25458 C
104 1 -0.959427 -4.1822 12.1 0.658149 C
105 1 -0.966828 -3.55623 7.34123 7.60628 C
106 1 -0.974378 -1.70699 8.01439 5.92669 C
49 2 1.92601 2.3317 8.52931 7.1467 C
108 1 -0.979268 -4.52667 10.1281 4.07948 C
109 1 -0.998184 -3.48916 9.6984 6.47133 C
110 1 -0.969201 -4.36028 12.0202 5.80537 C
133 1 -0.995042 0.413035 6.84251 4.71166 C
148 1 -1.0043 1.36626 7.20196 2.28883 C
150 1 -1.01087 -1.66683 9.07729 3.00273 C
151 1 -1.02467 -0.998928 11.4993 2.48821 C
152 1 -1.01283 -2.22456 11.0471 4.64563 C
153 1 -0.95003 1.16927 9.54839 1.24728 C
155 1 -0.974517 1.38154 7.35886 7.75342 C
48 2 1.84932 1.16645 10.6026 0.00872207 C
158 1 -1.01073 -1.23769 11.6267 7.62674 C
21 2 2.00613 -3.62547 10.7075 0.039564 C
28 2 1.98835 -0.217721 12.71 1.889 C
34 2 1.96316 -0.129203 12.6813 12.5165 C
25 2 2.00472 -2.69433 8.49551 12.4141 C
27 2 2.00823 -3.5133 10.8128 10.6345 C
50 2 2.03842 -1.16788 10.5358 8.74989 C
52 2 2.01441 2.22128 8.43174 12.3318 C
53 2 2.02166 -1.21768 10.3453 14.1955 C
111 1 -0.935391 -3.6391 7.32747 13.0145 C
112 1 -0.999024 -1.89667 7.75568 11.2732 C
113 1 -1.01573 -4.50762 10.1936 14.8109 C
114 1 -0.943381 -5.95594 11.3919 12.9421 C
115 1 -1.02246 -4.54306 10.4535 9.4811 C
116 1 -1.0446 -3.43997 9.77192 11.7609 C
117 1 -0.914301 -4.09053 12.1608 11.2692 C
138 1 -0.952293 0.273212 6.83514 10.0331 C
145 1 -0.958198 0.20188 6.71113 15.3444 C
157 1 -1.0341 -1.71678 9.11536 8.32222 C
159 1 -0.97031 -2.02987 11.0561 9.9717 C
163 1 -0.974012 1.2715 7.33181 13.0216 C
165 1 -1.03795 -1.83258 9.03791 13.6377 C
166 1 -0.957898 0.290108 10.1069 14.7692 C
167 1 -1.00463 -1.02222 11.5129 13.1585 C
168 1 -0.972178 -2.13299 10.8129 15.4344 C
169 1 -1.00519 0.262338 10.4443 9.40524 C
170 1 -0.943264 1.22514 9.53456 11.7114 C
18 2 1.95039 -1.18646 6.48787 10.5648 C
26 2 1.90016 -5.94288 10.3822 14.1672 C
12 2 1.89646 -1.26056 6.51528 15.9475 C
23 2 2.01678 -5.9961 10.6094 8.91508 C
7 2 1.79405 -5.06249 12.6914 12.4988 C
204 1 -1.01518 8.70225 5.30072 6.52973 C
203 1 -1.03354 7.68709 6.09225 4.24048 C
196 1 -0.967621 8.73021 5.44278 1.25598 C
33 2 2.01021 6.31721 2.42512 5.27483 C
198 1 -1.01653 10.4864 3.55434 5.8098 C
56 2 2.02085 8.79669 1.96139 3.5955 C
193 1 -1.00601 5.7581 4.85725 2.9524 C
197 1 -1.02677 8.89775 2.93515 7.79774 C
60 2 2.01985 11.1574 2.19295 5.35729 C
64 2 1.93802 9.69206 4.29473 1.75485 C
65 2 2.06407 6.22964 6.22142 3.62128 C
67 2 2.02967 9.63772 4.12668 7.04023 C
131 1 -0.935745 5.75775 3.62491 0.578456 C
136 1 -0.976221 5.84607 3.80577 5.94906 C
172 1 -0.96715 12.9975 0.615983 2.89462 C
173 1 -0.989755 8.15618 0.638004 2.91516 C
174 1 -1.03814 7.81539 2.44757 4.69913 C
176 1 -1.02253 11.1813 1.09284 0.989715 C
180 1 -0.985375 12.649 2.35658 4.77529 C
181 1 -1.01025 10.2562 1.68404 4.16772 C
182 1 -0.986106 11.1942 1.1215 6.50279 C
190 1 -0.955459 8.90008 3.09786 2.4527 C
191 1 -0.961906 10.5923 3.60451 0.559443 C
192 1 -0.964757 10.569 4.86915 2.97829 C
30 2 1.95179 6.23474 2.22764 0.0205452 C
2 2 2.02047 13.516 1.98985 3.48917 C
55 2 1.92203 12.0973 0.0113345 1.67913 C
207 1 -1.01519 10.3979 4.90953 13.4915 C
213 1 -0.99085 8.5765 5.30784 11.7621 C
212 1 -0.939848 7.65703 6.05857 9.42234 C
209 1 -0.992871 7.61883 5.82907 14.8392 C
36 2 1.90171 6.12443 2.33354 10.663 C
59 2 1.99498 8.62294 1.9595 8.98655 C
208 1 -0.959044 5.60094 4.72438 13.6702 C
62 2 1.96535 8.59434 1.9797 14.218 C
63 2 1.9343 11.1195 2.1702 10.6033 C
68 2 1.99905 6.12725 6.20992 8.88056 C
70 2 2.034 9.52443 4.21398 12.3816 C
199 1 -0.972778 10.6112 4.81641 8.08507 C
142 1 -0.984616 5.44541 3.64772 11.3238 C
175 1 -0.97907 12.5989 2.51775 15.2045 C
177 1 -0.969567 13.0018 0.627929 8.20217 C
17 2 1.93074 10.9945 6.21179 14.2002 C
179 1 -0.967351 7.57825 2.59392 10.0528 C
183 1 -0.964212 13.1509 0.50506 13.6415 C
184 1 -0.978709 8.09403 0.525993 13.6869 C
185 1 -0.934686 10.0637 1.83876 14.7921 C
186 1 -1.00412 7.68918 2.38771 15.4768 C
187 1 -0.959464 12.5188 2.55789 9.90232 C
188 1 -1.01263 10.0634 1.6371 9.57489 C
189 1 -0.98813 11.3746 1.27547 11.9346 C
178 1 -0.952799 7.99001 0.614941 8.36921 C
200 1 -1.02701 5.63538 4.88771 8.24298 C
205 1 -1.00966 8.67336 3.04883 13.0508 C
206 1 -0.952863 10.4309 3.49394 11.2536 C
71 2 1.91293 6.23042 6.12483 14.1786 C
57 2 1.97563 11.1911 2.26093 15.9008 C
14 2 1.93488 11.0911 6.1958 8.76222 C
61 2 1.9539 12.1819 0.0355793 12.4628 C
229 1 -0.976819 7.62631 10.9651 4.61981 C
230 1 -0.988421 5.15372 10.0505 4.30627 C
42 2 1.87657 3.69044 6.4686 5.25843 C
232 1 -0.936132 5.63606 12.1193 5.78614 C
51 2 1.93271 1.33096 10.8075 5.37075 C
194 1 -1.01542 5.16207 6.69421 4.62936 C
224 1 -1.0078 8.19077 7.78274 6.03037 C
73 2 1.87126 7.10077 8.47181 1.69889 C
74 2 1.94764 3.7997 10.4967 3.55338 C
231 1 -0.981915 6.40855 9.77829 6.55501 C
76 2 1.90102 7.30523 8.54175 7.11027 C
78 2 1.9578 6.19378 10.6921 5.29307 C
149 1 -0.904043 3.24052 7.99199 0.730331 C
154 1 -0.901509 0.626135 12.0353 0.709472 C
156 1 -0.935001 3.14903 7.82367 5.94835 C
162 1 -0.953273 0.650884 12.1324 6.02323 C
223 1 -0.936791 6.3181 7.36576 7.79653 C
202 1 -1.01019 10.1522 6.53845 4.80957 C
214 1 -0.963088 6.28638 7.28399 2.41172 C
215 1 -0.965525 8.04875 7.81518 0.560076 C
216 1 -0.913924 8.03368 9.08159 2.90434 C
217 1 -0.973441 3.02503 9.14969 3.02204 C
218 1 -1.00092 4.02732 11.5061 2.36404 C
219 1 -0.954008 2.73177 11.0867 4.61427 C
221 1 -0.964389 6.18553 9.7055 1.16261 C
222 1 -0.941057 5.82472 12.1698 0.546976 C
227 1 -1.01291 3.85749 11.5394 7.73313 C
69 2 2.08925 8.69417 6.42665 5.39882 C
58 2 1.92881 4.76891 12.6654 7.0928 C
39 2 1.85651 3.76147 6.57122 0.0806063 C
20 2 1.93724 8.65127 10.4368 3.54151 C
242 1 -0.939254 6.3649 9.58249 11.7481 C
243 1 -1.01938 5.70861 12.0581 11.3107 C
54 2 1.92434 1.29 10.7095 10.6073 C
45 2 1.86997 3.69588 6.49659 10.6547 C
72 2 1.89041 8.65293 6.46346 10.6249 C
77 2 1.99329 3.8103 10.4446 8.87539 C
79 2 1.82923 7.25629 8.38307 12.4103 C
80 2 1.99468 3.71101 10.4347 14.2063 C
81 2 2.04807 6.26549 10.771 10.6332 C
164 1 -1.00682 3.08152 7.8986 11.1608 C
171 1 -0.943602 0.861856 12.0508 11.4019 C
195 1 -0.993201 10.0426 6.73834 15.3642 C
201 1 -0.999328 5.17013 6.6377 10.0611 C
210 1 -0.944007 5.18114 6.71442 15.2499 C
211 1 -0.973916 10.1218 6.55642 9.99058 C
220 1 -0.938057 7.74501 10.8678 15.3528 C
225 1 -0.951886 8.31184 9.24835 8.13934 C
226 1 -0.97765 3.4116 9.07559 8.21579 C
228 1 -0.982208 2.82144 10.7886 10.1148 C
233 1 -0.971191 6.36737 7.153 12.9344 C
234 1 -0.943645 8.20704 7.88456 11.22 C
235 1 -0.919604 8.2539 8.9661 13.5864 C
236 1 -1.00093 3.11846 9.16193 13.4048 C
237 1 -0.983345 5.17718 10.2342 14.8096 C
238 1 -0.953748 3.88605 11.6124 13.151 C
239 1 -0.952467 2.69105 10.7907 15.3647 C
240 1 -1.03985 7.67756 11.0828 10.002 C
241 1 -1.00778 5.28353 10.3113 9.49237 C
75 2 1.90769 6.20876 10.7495 15.9418 C
66 2 1.941 8.60853 6.45231 15.9521 C
ITEM: TIMESTEP
200
ITEM: NUMBER OF ATOMS
243
ITEM: BOX BOUNDS xy xz yz pp pp pp
-6.7070759999999989e+00 1.4691300000000000e+01 -6.7070759999999989e+00
0.0000000000000000e+00 1.2723000000000001e+01 0.0000000000000000e+00
0.0000000000000000e+00 1.5963100000000001e+01 0.0000000000000000e+00
ITEM: ATOMS id type q x y z element
40 2 1.90397 4.8022 4.28553 7.07849 C
134 1 -0.989809 3.79874 5.46434 1.15558 C
3 2 1.97101 1.31781 2.32117 0.101128 C
6 2 1.86919 1.37834 2.4281 5.16271 C
10 2 2.03844 -0.213356 4.29512 1.76757 C
13 2 1.95731 -0.107715 4.22555 7.02028 C
140 1 -0.989264 3.89452 5.42505 6.43888 C
29 2 2.05424 3.84364 2.01004 3.41602 C
139 1 -0.970727 2.76554 5.98422 4.15926 C
37 2 1.95234 4.77033 4.28831 1.66166 C
38 2 2.04577 1.27272 6.22041 3.55124 C
31 2 1.81676 7.05075 0.0811319 7.10493 C
82 1 -0.968307 1.39389 1.39867 1.4096 C
83 1 -0.930542 0.363236 1.83779 4.08362 C
84 1 -0.910289 1.23845 1.36297 6.41907 C
88 1 -0.948428 -1.08899 3.10875 2.37714 C
89 1 -1.00579 0.709483 3.71222 0.636003 C
90 1 -1.01743 -1.15367 5.39798 1.12695 C
91 1 -0.926204 -0.94315 2.94766 7.48062 C
92 1 -0.933061 0.893975 3.8197 5.83103 C
93 1 -0.978587 -2.06324 6.18611 4.07377 C
94 1 -0.948088 -1.04547 5.37482 6.36315 C
118 1 -1.01966 3.27718 0.640048 2.88302 C
119 1 -0.940882 2.87231 2.56735 4.55863 C
120 1 -1.05905 6.27432 1.22524 1.11621 C
123 1 -1.02227 5.18768 1.87091 4.14763 C
124 1 -0.962883 6.17367 1.31141 6.52821 C
130 1 -1.00865 3.84667 3.17789 2.32238 C
132 1 -1.0262 0.624708 4.91401 2.99625 C
4 2 1.83096 2.01718 0.108774 7.06392 C
1 2 1.8922 2.23745 0.077409 1.81131 C
135 1 -0.938176 3.93417 2.93725 7.42207 C
121 1 -0.947735 3.03832 0.610706 8.18501 C
9 2 2.0285 1.3201 2.26799 10.6002 C
16 2 1.85442 -0.0806877 4.24049 12.3718 C
32 2 1.90349 3.7731 1.91502 8.68192 C
147 1 -0.961248 3.85509 5.48078 11.9559 C
35 2 1.89367 3.78964 1.97382 14.244 C
43 2 1.83926 4.66507 4.1676 12.4362 C
146 1 -0.950766 2.66665 5.9041 9.65916 C
44 2 2.10853 1.27157 6.20879 14.2833 C
85 1 -0.98139 0.263845 1.7623 15.0618 C
86 1 -0.952359 0.213551 1.75699 9.53622 C
87 1 -1.06151 1.48602 1.31662 11.7008 C
95 1 -0.929786 -0.951103 3.04251 13.0285 C
96 1 -0.942186 0.856754 3.76932 11.1283 C
97 1 -1.0812 -2.24559 6.07869 14.7498 C
98 1 -1.02267 -2.09859 6.00566 9.41808 C
99 1 -0.962823 -1.14695 5.29063 11.8127 C
41 2 1.97765 1.20473 6.1686 8.90835 C
122 1 -0.931647 2.67586 2.46959 9.78088 C
125 1 -0.899893 3.01096 0.515495 13.7016 C
126 1 -1.0227 5.25007 1.86777 14.8289 C
127 1 -0.988515 2.76978 2.46105 15.3661 C
128 1 -0.95812 5.15274 1.72601 9.49366 C
129 1 -1.01365 6.07944 1.32368 11.7773 C
137 1 -1.03433 0.67741 4.872 8.21692 C
141 1 -0.966197 3.78374 2.95591 13.0055 C
143 1 -0.978804 0.836591 4.8673 13.5351 C
144 1 -1.09758 2.69505 6.09634 14.8714 C
34 2 1.8308 6.91802 0.0770719 12.4795 C
7 2 1.90801 2.17127 0.0138272 12.4622 C
161 1 -0.973186 1.46179 9.62605 6.4977 C
15 2 1.99329 -1.08566 6.56424 5.29865 C
19 2 1.91146 -2.64469 8.47867 1.82485 C
107 1 -0.933973 -5.93208 11.6891 7.73035 C
22 2 2.04275 -2.7291 8.5769 7.10576 C
24 2 1.90517 -3.5841 10.7471 5.27678 C
46 2 2.07413 2.24159 8.43751 1.77403 C
47 2 1.97281 -1.13103 10.5091 3.59015 C
160 1 -1.01308 0.376392 10.3102 4.15471 C
100 1 -0.948919 -3.6265 7.32514 2.37577 C
101 1 -0.988199 -1.72457 7.82762 0.636617 C
102 1 -0.90308 -5.7839 11.7065 2.38783 C
103 1 -0.919292 -3.64524 9.66404 1.2417 C
104 1 -1.01618 -4.12719 12.1179 0.498787 C
105 1 -1.01265 -3.49439 7.36376 7.82291 C
106 1 -0.997605 -1.7712 7.75712 6.11374 C
49 2 1.93467 2.33127 8.42205 7.11362 C
108 1 -1.03432 -4.59962 10.2258 4.20394 C
109 1 -1.00831 -3.6743 9.67654 6.46913 C
110 1 -0.884449 -4.04857 12.2567 5.83301 C
133 1 -1.02664 0.360871 6.79526 4.7224 C
148 1 -1.05334 1.34448 7.28545 2.39905 C
150 1 -1.02213 -1.82124 9.20108 2.92036 C
151 1 -1.00182 -1.00323 11.6256 2.46708 C
152 1 -1.02288 -2.07691 10.8714 4.7975 C
153 1 -1.03347 1.39776 9.56973 1.06215 C
155 1 -0.989569 1.41815 7.26998 7.81883 C
21 2 1.98129 -3.55686 10.7422 0.0258912 C
158 1 -0.912806 -0.94014 11.7892 7.79328 C
51 2 2.00267 1.3547 10.6991 5.3255 C
28 2 1.89475 -0.0173047 12.6768 1.81679 C
48 2 2.02049 1.38109 10.6419 15.8871 C
25 2 1.98661 -2.65683 8.42979 12.4385 C
27 2 1.86855 -3.51963 10.6963 10.6095 C
50 2 1.91464 -1.07566 10.5182 8.90066 C
52 2 2.11689 2.18617 8.43557 12.3789 C
53 2 2.0546 -1.15022 10.3939 14.1831 C
111 1 -1.04115 -3.60596 7.34672 13.1348 C
112 1 -0.950303 -1.76712 7.7843 11.2947 C
113 1 -0.95614 -4.38631 10.125 14.7963 C
114 1 -0.980035 -5.7799 11.6097 13.0558 C
115 1 -0.948315 -4.43968 10.3171 9.36563 C
116 1 -0.944741 -3.63463 9.53376 11.6725 C
117 1 -0.911958 -3.92088 12.138 11.2634 C
138 1 -0.962596 0.255906 6.75951 10.0748 C
145 1 -1.07663 0.182448 6.63124 15.3597 C
157 1 -0.997317 -1.76356 9.28168 8.14213 C
159 1 -0.948304 -1.95177 10.8682 10.1621 C
163 1 -1.03264 1.35534 7.27332 13.1052 C
165 1 -1.04901 -1.65291 9.13757 13.4261 C
166 1 -1.01271 0.326915 10.2403 14.7614 C
167 1 -0.923165 -1.06008 11.6836 13.1956 C
168 1 -1.03835 -2.11499 10.7786 15.3829 C
169 1 -0.950643 0.400775 10.2686 9.42245 C
170 1 -0.965033 1.25413 9.55668 11.7173 C
18 2 1.90777 -1.18982 6.39883 10.6391 C
12 2 2.10957 -1.25493 6.47227 15.9262 C
45 2 2.00116 3.69112 6.50642 10.7064 C
54 2 1.83368 1.38401 10.6847 10.6272 C
204 1 -0.963762 8.72768 5.36305 6.48599 C
203 1 -0.990584 7.69628 6.06738 4.1459 C
196 1 -0.93687 8.77729 5.41787 1.27066 C
33 2 1.92524 6.18209 2.368 5.3227 C
198 1 -0.955946 10.6376 3.69845 5.93234 C
56 2 1.85809 8.62544 1.99174 3.56037 C
193 1 -0.981633 5.68333 4.78003 2.8617 C
197 1 -0.956251 8.9022 2.94934 7.75417 C
60 2 1.96473 11.0083 2.29453 5.30108 C
64 2 1.85065 9.67975 4.24163 1.90913 C
65 2 2.01579 6.22434 6.1558 3.53165 C
67 2 1.87463 9.69254 4.244 7.11962 C
131 1 -1.01706 5.75537 3.7695 0.541483 C
136 1 -0.942828 5.79092 3.83854 5.87309 C
172 1 -0.981331 12.8864 0.600428 2.89721 C
173 1 -0.887436 7.9248 0.544566 2.99617 C
174 1 -0.978045 7.66269 2.45498 4.73099 C
176 1 -0.932743 11.068 1.39404 1.28159 C
180 1 -0.904988 12.4882 2.44421 4.7132 C
181 1 -0.977848 10.0859 1.71023 4.1776 C
182 1 -0.926222 10.9126 1.34766 6.55369 C
190 1 -0.983114 8.73686 3.10634 2.39864 C
191 1 -0.88069 10.5595 3.83993 0.531654 C
192 1 -0.920729 10.7285 4.86501 2.97526 C
30 2 2.06036 6.22878 2.29108 0.0677532 C
2 2 1.85072 13.5226 1.9314 3.4912 C
55 2 1.96131 11.9589 0.0799435 1.71656 C
11 2 1.92358 11.1121 6.31852 3.61014 C
58 2 1.78397 11.8016 0.0235271 7.21428 C
207 1 -1.08821 10.4736 4.87429 13.4641 C
213 1 -1.02559 8.63373 5.41294 11.8292 C
212 1 -1.00037 7.53562 5.98306 9.44057 C
209 1 -1.06992 7.64147 6.05263 14.8429 C
36 2 2.02328 6.17937 2.27256 10.6196 C
59 2 1.88448 8.66351 1.85854 8.88783 C
208 1 -0.950958 5.6472 4.74456 13.5931 C
62 2 1.85971 8.59933 2.05963 14.2077 C
63 2 1.90676 11.0416 2.36341 10.6887 C
68 2 2.01857 6.07562 6.26332 8.88794 C
70 2 2.06486 9.4903 4.21907 12.4239 C
199 1 -0.958774 10.6321 4.80915 8.29949 C
142 1 -0.944032 5.56714 3.64907 11.1368 C
175 1 -0.914587 12.5574 2.46961 15.377 C
177 1 -0.854608 12.8458 0.473443 8.32945 C
17 2 2.18319 11.0251 6.16625 14.135 C
179 1 -0.977868 7.6391 2.45469 9.99035 C
183 1 -0.970834 12.9967 0.559121 13.6317 C
184 1 -0.868999 7.8834 0.643813 13.682 C
185 1 -0.911205 10.1577 1.85803 14.6995 C
186 1 -0.963968 7.71185 2.45527 15.5313 C
187 1 -0.949731 12.381 2.60711 9.82695 C
188 1 -0.904563 10.0065 1.53462 9.79176 C
189 1 -0.963813 11.1876 1.39799 11.9145 C
178 1 -0.935855 7.99985 0.522309 8.35518 C
200 1 -1.01884 5.54165 4.88785 8.32664 C
205 1 -1.07394 8.63912 3.09225 13.0716 C
206 1 -0.973989 10.349 3.75617 11.1321 C
71 2 1.98927 6.21432 6.15028 14.1986 C
57 2 1.77059 11.0303 2.40584 15.9493 C
14 2 2.04571 11.1366 6.21684 8.89432 C
61 2 1.88466 11.9277 0.0592355 12.5056 C
5 2 1.75239 13.4831 2.01154 8.81606 C
8 2 1.84917 13.5511 1.91878 14.2363 C
229 1 -0.997958 7.68185 10.8902 4.65565 C
230 1 -0.948584 5.32323 10.1131 4.14449 C
20 2 1.90983 8.72383 10.4402 3.56258 C
232 1 -0.93434 5.60175 12.0413 6.05255 C
42 2 1.99599 3.82132 6.4847 5.26591 C
194 1 -1.02466 5.24574 6.70455 4.63037 C
224 1 -1.02366 8.11283 7.85562 5.98626 C
73 2 1.91487 7.11775 8.43999 1.70945 C
74 2 1.83098 3.85793 10.3872 3.50668 C
231 1 -0.985749 6.30021 9.58047 6.43055 C
76 2 2.03236 7.21154 8.4724 7.09379 C
78 2 1.92587 6.23203 10.7068 5.29943 C
149 1 -1.02553 3.267 7.85115 0.653206 C
154 1 -0.924307 0.939209 12.035 0.592683 C
156 1 -0.96253 3.21598 7.84135 5.87026 C
162 1 -0.947511 1.03587 12.0702 5.93106 C
223 1 -0.978914 6.26458 7.29343 7.67186 C
202 1 -1.0272 10.1511 6.70846 4.81709 C
214 1 -0.980652 6.2662 7.21725 2.37294 C
215 1 -0.973548 8.05338 7.80711 0.561063 C
216 1 -0.909774 8.1486 9.08388 2.80036 C
217 1 -1.01836 3.09208 9.16193 2.84572 C
218 1 -0.831811 3.92952 11.7305 2.47221 C
219 1 -0.893042 2.86231 10.849 4.75687 C
221 1 -0.934147 6.19835 9.56582 1.0872 C
222 1 -1.08242 5.566 11.832 0.738698 C
66 2 2.04155 8.59045 6.44358 0.0187475 C
69 2 1.97818 8.6913 6.51804 5.34382 C
242 1 -0.99842 6.36363 9.54631 11.7673 C
243 1 -1.05914 5.65425 11.8958 11.3641 C
23 2 1.89933 8.72813 10.425 8.78952 C
75 2 1.93907 6.22633 10.6875 15.8907 C
72 2 1.95917 8.59517 6.39551 10.5935 C
77 2 1.94649 3.86155 10.3849 9.01344 C
79 2 1.95181 7.17015 8.32781 12.3484 C
80 2 1.82776 3.81647 10.3726 14.142 C
81 2 2.09148 6.28309 10.7066 10.7083 C
164 1 -1.04669 3.08576 7.86018 11.2563 C
171 1 -0.881359 0.841914 12.045 11.4236 C
195 1 -0.976148 10.1006 6.59739 15.355 C
201 1 -1.02557 5.01279 6.83025 9.91141 C
210 1 -1.0084 5.18137 6.71449 15.3214 C