ITEM: TIMESTEP
0
ITEM: NUMBER OF ATOMS
362
ITEM: BOX BOUNDS xy xz yz pp pp pp
-9.2559564641273155e+00 1.7826434467158450e+01 -9.1387033013182730e+00
1.8064571466808754e-01 1.3574970797197363e+01 5.3698130434939606e-01
7.2471757627983635e-02 1.7514228242371928e+01 6.2771651186538768e-01
ITEM: ATOMS id type x y z
152 2 -1.68263 4.12593 0.920527
142 2 -1.33338 5.79922 1.87834
69 1 -1.41674 2.9995 0.606294
143 2 -0.370665 2.7929 0.462889
2 4 -0.294572 2.91188 5.25873
5 4 2.90432 2.57315 5.53692
23 4 0.523746 5.94522 5.35677
60 1 -0.450363 4.57628 6.03375
61 1 2.64038 2.98473 7.35676
114 2 2.16636 1.87507 3.06692
118 2 -0.0475048 4.49166 7.84268
119 2 -1.94014 4.98837 5.54923
121 2 3.08391 4.02505 7.58217
191 3 1.32163 2.55488 5.15946
194 3 -1.13743 2.79368 3.92155
122 2 3.26982 2.10256 7.80459
59 1 2.35027 0.723624 3.06965
211 3 1.92663 6.01044 5.9463
217 3 0.492507 5.85417 3.7708
26 4 3.36838 6.50994 6.93325
218 3 1.1912 4.55538 1.42384
1 4 4.21236 0.722182 2.81965
30 4 0.399078 5.82585 2.20897
200 3 3.86729 3.75639 4.99817
24 4 1.95296 3.85725 0.127614
120 2 1.48744 2.93708 7.40651
192 3 3.66403 0.807151 5.76426
123 2 -1.80926 6.04861 4.28485
283 4 -1.73754 5.04505 7.54831
212 3 3.99002 5.55359 8.25399
164 2 -0.243921 1.46065 7.27589
153 2 2.28748 2.18065 0.306816
320 2 5.98344 0.894624 4.67285
202 3 5.23337 0.979164 7.98406
199 3 4.92715 2.17098 3.0628
14 4 5.29307 3.42403 3.98702
169 2 4.03071 6.35482 4.28605
150 2 3.87528 6.38819 1.22303
151 2 4.23721 3.8916 1.06191
243 3 -3.67662 5.50879 2.6264
175 2 -4.10439 6.31913 6.88868
208 3 5.37627 4.71511 2.94799
72 1 3.73804 3.49695 0.140776
116 2 1.85422 0.301245 2.14731
348 2 1.58588 1.58341 9.05351
287 2 1.48719 4.99053 11.1004
6 4 0.85915 1.44386 11.3715
9 4 -0.369154 4.46525 12.6074
63 1 0.805579 5.93274 11.3112
68 1 1.94331 2.0988 9.96652
89 2 -0.916245 5.65057 11.2875
139 2 2.85701 3.25735 11.2703
140 2 2.0112 3.2044 9.75083
141 2 3.02669 1.6538 10.304
195 3 0.367211 3.11004 12.2227
214 3 -0.0316127 5.11442 14.1126
215 3 1.82227 4.74856 16.1711
28 4 0.460743 5.63186 15.537
97 2 1.56411 3.02743 13.3954
128 2 1.07574 6.42145 12.2838
280 2 -0.325408 2.45712 14.8011
27 4 3.19232 3.45217 12.9736
216 3 3.65639 4.88006 13.3462
98 2 -0.623795 5.14518 16.782
29 4 4.01418 6.32663 13.5979
156 2 3.68115 1.92122 14.3038
299 2 -2.76181 6.68797 11.4469
173 2 4.0102 5.48757 10.9351
126 2 -2.08637 4.05451 12.6624
136 2 4.6568 1.51543 11.8664
213 3 4.34555 2.11177 13.466
350 2 4.55263 2.40293 17.3104
210 3 4.50533 3.44907 9.60098
67 1 4.84 0.913971 10.831
25 4 4.76313 4.97529 9.56913
91 2 5.20321 2.94714 14.5003
17 4 5.57593 2.07991 9.45971
20 4 5.44426 3.52492 16.0842
92 2 4.57814 5.16861 16.1395
96 2 6.05374 3.76192 12.1841
117 2 0.994096 6.63847 10.4096
206 3 7.08506 2.34348 10.0222
322 2 0.265012 1.1623 16.2321
205 3 7.00276 3.63643 16.4035
297 2 -1.19399 6.75276 8.87196
66 1 -0.978971 12.8467 8.54659
8 4 -3.78084 7.00981 3.67756
3 4 -4.40447 12.8771 6.66177
198 3 -4.81844 12.762 1.42734
319 2 -3.61415 11.4157 5.92383
10 4 -3.1131 9.69411 2.06174
196 3 -3.6535 8.37088 2.77074
197 3 -4.06102 10.3353 0.998664
285 1 -5.34597 11.1803 7.55989
318 2 -4.2586 12.4269 4.05482
347 2 -5.05525 10.0987 5.99726
178 2 -6.91099 11.0159 4.5301
361 2 -5.76863 9.45031 4.20388
284 4 -4.53997 9.41692 7.54407
81 1 -6.26088 10.3166 3.76876
93 2 -0.499219 7.34971 5.66187
177 2 -5.65968 10.874 2.96912
221 3 2.99803 7.98519 7.27009
349 2 -5.53742 11.9314 8.46022
292 2 -2.80616 9.38875 7.65133
11 4 -4.61982 11.6445 0.231848
289 2 -6.3115 10.8596 7.08292
183 2 -7.05311 12.608 5.86047
83 1 -8.12126 12.1204 5.76643
219 3 -2.64633 10.7709 3.20332
134 2 -2.06518 13.1049 8.29717
223 3 1.48644 10.0748 6.46735
157 2 -1.86249 7.5923 1.50396
87 2 -7.15843 12.9647 4.13839
62 1 -2.12816 7.13568 4.64514
74 1 -0.764711 7.50605 1.13669
317 1 -2.65997 12.7736 5.1846
135 2 -0.815287 11.707 8.46022
102 2 -1.06457 10.271 7.20645
147 2 -1.33474 8.51043 8.1802
125 2 -1.5001 7.95468 4.21607
220 3 -0.914757 12.7711 2.85362
70 1 -0.96613 9.69165 8.2239
130 2 -1.64873 9.27302 1.23795
146 2 0.122693 9.71911 8.51399
31 4 -1.69862 11.7827 3.89966
295 3 -1.8696 6.92444 8.11342
222 3 -0.48589 11.0713 4.82322
288 2 -4.97626 7.76298 7.81354
101 2 0.920933 10.1477 1.07173
111 2 0.618618 9.87923 3.17764
253 3 1.08803 9.48227 2.38203
158 2 1.16284 7.19161 1.42624
88 2 -0.136262 8.35304 1.56573
124 2 -2.36774 7.08482 5.75716
100 2 -1.80032 13.1264 5.84738
291 2 -4.99306 10.3053 9.1346
266 3 2.27243 9.15744 15.9939
276 3 -7.48467 13.2014 12.2681
328 2 -6.46449 10.8703 11.0249
138 2 -5.18005 13.0572 10.5374
327 2 -5.07883 12.0549 12.8256
325 1 -6.35544 10.6998 12.1906
277 3 -5.65067 12.0074 17.0352
229 3 -2.93447 12.8533 16.6823
272 4 -6.74911 12.2512 13.2768
273 4 -7.03602 11.5449 16.2668
278 3 -7.09098 12.0828 14.7904
137 2 -3.35958 13.073 10.9756
294 2 -3.81456 8.70093 10.6493
286 1 -3.4801 7.0081 10.6029
358 2 -4.02302 7.43357 16.0745
359 2 -4.83897 9.52915 16.1404
230 3 0.969851 9.1413 13.5506
353 2 -0.714704 13.1791 9.60553
131 2 -1.61103 10.2455 14.3565
129 2 -1.2966 9.69978 16.0769
231 3 -0.58101 11.2223 12.7335
290 2 -2.82486 6.95692 9.54656
103 2 -3.03906 10.1778 15.6764
64 1 -1.90553 10.376 15.4712
228 3 -0.946988 13.0197 14.5816
160 2 -0.125436 7.77511 11.4232
161 2 -0.678693 9.23711 10.1132
227 3 -0.233932 11.9144 16.9331
261 3 2.0105 9.66485 8.9818
36 4 -1.456 12.199 15.9125
19 4 -0.289072 12.8894 13.1692
35 4 1.70385 8.2538 14.7404
37 4 0.52031 10.0367 12.2896
75 1 -0.564725 8.89775 11.3265
162 2 -1.60515 8.99151 11.878
226 3 2.94883 7.3202 14.06
326 2 -5.48749 10.0852 12.4995
159 2 -0.0480807 7.89571 17.4959
225 3 0.532942 7.20854 15.5657
145 2 -1.66573 10.1644 8.99445
18 4 8.07936 3.39418 5.52646
22 4 6.52943 5.4545 2.02144
39 4 10.6115 3.05124 3.55614
94 2 7.95813 4.76555 6.52141
201 3 7.88373 1.76322 0.899612
331 2 13.1542 1.46498 3.69037
204 3 8.51664 2.21541 6.69376
209 3 7.12019 4.33048 1.05516
232 3 10.0663 1.90404 2.57579
233 3 9.3245 3.58617 4.52953
244 3 7.61755 6.28975 2.92605
16 4 9.34725 1.18888 7.57658
13 4 9.02403 0.989354 1.72104
258 3 8.26325 6.1554 7.82066
115 2 16.1906 1.32512 1.62552
174 2 10.8376 4.98898 6.26939
50 4 11.2361 6.68422 5.85102
342 2 8.90871 5.88617 0.787058
203 3 6.71087 3.18138 4.80424
354 2 15.7665 0.768753 6.2529
247 3 14.5319 4.07577 8.1614
163 2 15.538 2.55187 6.84238
7 4 15.4281 2.59938 2.57268
76 1 16.3002 1.64022 6.56141
241 3 11.5877 4.17897 2.79058
245 3 11.6428 6.18194 1.0999
167 2 11.04 2.59911 5.78964
109 2 11.9552 6.07617 8.24486
45 4 12.5748 5.02946 1.71232
48 4 12.9585 3.69248 8.1408
77 1 11.6244 2.14834 4.89604
80 1 12.2274 5.89659 7.20071
106 2 13.205 1.86932 8.10282
176 2 12.3574 4.11044 6.50421
234 3 13.0603 1.08192 0.63129
242 3 12.8949 3.82826 0.4242
166 2 11.5659 0.979517 4.8233
165 2 12.7312 2.5835 4.87943
332 2 13.645 2.79019 2.57056
329 1 14.1072 0.972695 3.02101
170 2 5.54103 6.13502 5.88074
15 4 7.71459 3.18003 0.142953
86 2 16.1758 2.36556 8.39793
281 3 14.6387 2.89762 15.9014
188 2 8.8429 4.78493 10.1805
49 4 7.78833 5.8934 9.31274
248 3 6.31404 5.52876 9.59717
21 4 8.02469 2.54117 11.2258
42 4 10.8296 2.9121 10.008
193 3 17.042 0.876664 10.6612
155 2 7.68723 4.75318 12.2467
356 2 11.1255 0.99454 12.4626
237 3 9.63616 3.54615 10.8145
238 3 9.59047 4.25514 16.7622
302 1 10.3337 3.50069 14.0172
305 2 10.5847 2.35484 13.8081
306 2 10.6614 4.23684 13.2674
307 2 9.17073 3.66606 14.3335
300 4 10.9449 4.17681 15.7975
108 2 6.36328 5.63083 12.6354
99 2 5.48429 6.51386 14.6646
85 1 5.95081 6.6897 12.8991
314 3 11.9819 3.12654 16.4241
127 2 9.07056 6.41043 11.2002
279 4 15.3365 1.11513 15.4791
338 2 10.9403 0.9135 14.3473
73 1 7.12225 3.72052 12.4655
293 2 12.746 5.96426 10.3598
315 3 11.5268 5.58435 15.2957
40 4 13.4068 3.07369 17.111
246 3 11.993 4.09984 9.42049
308 2 13.9512 2.09564 13.202
310 2 12.2635 3.67208 13.3462
303 1 13.4245 3.7003 13.0126
104 2 13.7044 4.39853 11.6673
240 3 11.8332 1.92136 11.1848
4 4 15.7878 1.26257 9.68591
44 4 13.3832 2.3669 11.4101
110 2 13.9269 4.30659 13.7844
239 3 14.6129 1.98335 10.5549
207 3 8.49788 1.31556 12.0783
321 1 17.1291 1.24648 15.2396
154 2 7.3009 3.13919 13.469
144 2 15.752 3.28039 17.1819
105 2 5.2996 6.59354 17.0587
301 4 12.062 7.05548 14.7541
236 3 10.2955 1.95884 8.80201
133 2 8.20682 12.1689 7.99707
340 1 9.06829 6.85925 0.188617
224 3 0.872182 12.8442 6.55055
33 4 2.5995 9.48348 7.50682
65 1 8.59837 11.37 8.6905
82 1 2.32627 11.6189 4.51992
180 2 2.16436 12.525 3.76561
52 4 2.78319 10.3485 3.20891
179 2 3.32672 11.7659 5.25069
254 3 3.39754 11.3086 2.05879
264 3 3.69494 9.28128 3.90364
181 2 4.16609 10.3879 7.51771
12 4 7.27374 10.0264 8.63445
184 2 9.26808 11.1436 6.43921
187 2 3.78312 9.12508 0.465704
78 1 4.68195 6.79438 5.71325
362 3 0.766151 12.8561 0.657163
41 4 4.36273 12.807 8.25086
249 3 12.3616 7.03269 4.78155
250 3 7.67744 7.1081 5.56021
352 2 9.50381 10.6622 8.30025
46 4 7.7494 7.52396 3.92285
335 2 5.96542 12.204 6.49934
333 1 4.88247 11.8241 6.49698
355 2 4.7673 11.2346 5.5564
38 4 4.51555 12.6735 1.62813
51 4 9.85376 9.54 2.5719
54 4 8.48928 7.48563 6.87552
56 4 4.80003 8.23746 4.37919
113 2 5.08769 8.5289 6.19901
251 3 8.87028 8.6399 3.54375
252 3 10.6207 8.70058 1.43622
256 3 8.84657 10.9431 1.95372
257 3 6.06202 12.0332 0.996155
259 3 10.179 7.77919 6.47196
260 3 7.88342 8.89887 7.82453
265 3 6.18567 8.30135 3.61468
90 2 5.94737 10.7282 7.63037
47 4 10.8872 7.38177 0.424048
53 4 7.64164 10.8697 0.899336
343 1 6.85501 9.15661 0.913415
345 2 7.34161 8.48535 1.66273
344 2 5.78571 9.44519 1.33797
341 2 8.26422 7.7161 0.394822
71 1 4.68405 6.71882 0.534058
112 2 9.11086 11.8648 4.6747
149 2 5.72297 6.75871 1.0905
148 2 4.40545 7.78276 0.133153
34 4 0.929524 11.4471 5.73726
182 2 8.48635 12.877 6.09901
334 2 3.9504 13.0982 6.27752
330 2 5.63135 13.0127 3.65478
336 1 1.61161 13.1251 13.4375
262 3 3.30615 12.0672 9.1487
337 2 1.93193 12.0054 13.4885
55 4 2.86999 10.6305 10.157
57 4 3.28327 10.5875 15.745
324 2 6.40979 12.8588 16.9251
268 3 2.37001 11.8551 16.1761
351 2 3.37907 12.6159 12.655
270 3 4.17661 9.81005 10.6226
267 3 4.05792 10.6893 14.3624
316 3 12.5718 7.30346 13.2013
107 2 8.19828 7.4368 12.5808
263 3 1.8702 10.8668 11.3284
32 4 1.267 12.1552 17.3155
274 2 10.0017 10.1926 12.5769
339 1 12.0925 8.54375 16.138
84 1 4.73475 10.2635 16.9609
172 2 10.0505 7.36351 12.5127
171 2 7.99164 7.33019 10.2448
255 3 8.95254 11.7008 16.9325
275 2 10.6387 9.84588 16.1262
132 2 8.64769 11.6411 9.75121
79 1 9.12116 7.3958 11.8737
185 2 5.27362 11.2685 17.2723
282 3 5.46624 12.9336 14.44
186 2 5.51553 9.51049 16.4162
168 2 9.14674 8.35377 11.1749
298 2 10.8793 7.8536 11.0521
311 2 6.70273 9.57425 15.2651
309 2 8.01591 8.32258 15.6675
304 1 6.91907 8.45246 15.4418
296 4 12.4503 7.47851 11.6274
346 2 7.21004 9.30352 17.281
312 2 6.59867 7.8378 14.4742
43 4 4.72612 11.8753 13.4259
58 4 5.54613 9.94565 11.321
189 2 6.83957 7.44801 12.8871
190 2 5.61378 8.58245 12.4368
269 3 6.85522 9.71763 10.2779
271 3 5.57243 11.3701 12.2047
313 2 6.24203 8.03744 16.3635
357 2 10.8016 8.41103 15.0572
95 2 4.87539 7.07473 11.868
235 3 5.80969 12.8594 8.90618
360 2 9.58773 7.28578 16.5732
323 2 8.18674 13.2472 14.366
ITEM: TIMESTEP
100
ITEM: NUMBER OF ATOMS
362
ITEM: BOX BOUNDS xy xz yz pp pp pp
-9.2559564641273155e+00 1.7826434467158450e+01 -9.1387033013182730e+00
1.8064571466808754e-01 1.3574970797197363e+01 5.3698130434939606e-01
7.2471757627983635e-02 1.7514228242371928e+01 6.2771651186538768e-01
ITEM: ATOMS id type x y z
152 2 -1.5546 4.06803 0.948914
142 2 -1.15214 5.86208 1.61758
69 1 -1.33652 2.95565 0.577064
143 2 -0.273849 2.65123 0.501025
2 4 -0.364929 2.92452 5.20882
5 4 2.91568 2.62732 5.77018
23 4 0.744263 5.81563 5.23657
60 1 -0.412707 4.61769 5.9755
61 1 2.67468 3.09704 7.46841
114 2 2.23713 1.93276 3.10497
118 2 0.0137669 4.17288 7.55961
119 2 -1.95418 5.24467 5.62653
121 2 3.1621 4.14017 7.81032
191 3 1.34916 2.59632 5.11173
194 3 -1.23245 2.74217 3.76668
122 2 3.23606 2.15773 7.9648
59 1 2.36995 0.814945 3.1053
211 3 2.05881 5.83084 6.07958
217 3 0.813188 5.62323 3.65238
26 4 3.34042 6.49329 6.81222
218 3 1.18596 4.61314 1.11922
1 4 4.17435 0.652143 2.83831
30 4 0.57123 5.70603 2.11193
200 3 4.1451 3.46927 5.14541
203 3 6.67816 3.1034 4.89153
120 2 1.56607 3.03102 7.70805
192 3 3.70976 0.83366 5.86697
123 2 -1.59274 6.19964 3.99657
283 4 -1.65577 5.14783 7.50559
212 3 3.98385 5.65076 8.18324
87 2 1.9997 0.356838 4.20015
295 3 -1.72201 6.859 8.33784
320 2 6.11142 0.949237 4.75312
202 3 5.37577 0.88883 7.99885
199 3 4.80917 2.19106 2.96168
14 4 5.37254 3.45922 4.03894
169 2 3.90792 6.31839 4.31309
116 2 1.74867 0.302707 2.31927
151 2 3.99976 3.81554 1.10442
243 3 -3.77442 5.61804 2.55114
86 2 -1.06001 2.45379 8.43213
72 1 3.65769 3.46041 0.0794221
348 2 1.55902 1.3123 9.0974
287 2 1.12302 4.90918 11.0954
6 4 0.717898 1.54471 11.3813
9 4 -0.480527 4.36015 12.7759
63 1 0.707767 5.91976 11.4191
68 1 1.95817 1.88653 9.99615
89 2 -0.936345 5.70992 11.4714
139 2 2.95789 3.09198 11.2312
140 2 1.91012 3.04241 9.84827
141 2 3.09493 1.45559 10.362
195 3 0.430911 3.11869 12.2822
214 3 -0.152258 4.91422 14.1634
215 3 1.81653 4.81133 15.9368
28 4 0.292883 5.52141 15.5284
97 2 1.74993 2.98583 13.3279
128 2 1.11388 6.27063 12.5063
280 2 -0.408061 1.87087 14.1586
27 4 3.33943 3.33984 12.8689
216 3 3.72171 4.80278 13.2747
98 2 -0.897398 4.98687 16.6475
29 4 4.04992 6.40445 13.5776
156 2 3.85816 1.77367 14.198
299 2 -2.52772 6.75404 11.6412
173 2 3.87939 5.50473 10.6935
154 2 6.8343 3.20464 13.3567
136 2 4.83311 1.37285 11.8426
213 3 4.56654 2.21836 13.3478
350 2 4.65444 2.31633 17.2286
210 3 4.63094 3.32184 9.41619
67 1 4.96551 0.774866 10.7577
25 4 4.70049 4.92878 9.40217
91 2 5.17308 3.02347 14.4993
17 4 5.58583 1.98384 9.4441
20 4 5.44512 3.58212 16.1193
92 2 4.66972 5.28446 16.2041
297 2 -0.808626 6.69143 8.87512
117 2 0.950473 6.72082 10.7001
206 3 7.04442 2.25292 9.99004
322 2 0.248679 1.66679 15.9212
24 4 2.40258 4.45869 17.3311
207 3 8.3604 1.27444 12.1882
205 3 6.98456 3.68356 16.5228
153 2 2.93229 2.71391 17.5098
66 1 -0.924404 12.8808 8.598
8 4 -3.75787 7.03199 3.50757
3 4 -4.4488 12.7576 6.79465
198 3 -4.7876 12.8417 1.41844
319 2 -3.60763 11.3156 6.11027
10 4 -3.16271 9.72256 2.04904
196 3 -3.74408 8.38344 2.66461
197 3 -4.17347 10.2754 1.01893
285 1 -5.45901 10.9467 7.38401
318 2 -4.21135 12.392 4.10507
347 2 -4.71687 9.70689 6.11287
178 2 -6.91807 11.1089 4.79597
361 2 -5.9903 9.41888 4.4468
284 4 -4.63556 9.30693 7.90033
81 1 -6.36155 10.35 3.98945
93 2 -0.350744 7.128 5.52314
177 2 -5.62623 10.9357 3.35445
221 3 3.01434 8.03876 7.08281
349 2 -5.81032 11.6278 8.25933
292 2 -2.96738 9.42624 8.40835
11 4 -4.73801 11.6019 0.287761
289 2 -6.3498 10.6754 6.74204
183 2 -6.97356 12.9416 5.83788
83 1 -8.02172 12.4062 5.87114
219 3 -2.7519 10.635 3.34835
134 2 -1.99254 13.126 8.34494
223 3 1.56641 10.1083 6.27206
157 2 -1.64469 7.57226 1.67593
100 2 -1.87691 12.9838 6.06059
62 1 -2.04748 7.13621 4.48096
74 1 -0.628364 7.64407 1.2175
317 1 -2.73449 12.7568 5.31846
135 2 -0.718263 11.71 8.44816
102 2 -1.17186 10.0463 6.99835
147 2 -1.41842 8.60767 8.2413
125 2 -1.54359 8.11847 4.31777
220 3 -0.955643 12.6015 2.94477
70 1 -1.02998 9.71565 8.1369
130 2 -1.68697 9.30247 1.23021
146 2 0.144054 9.6438 8.46082
31 4 -1.6517 11.6951 4.11255
182 2 -8.88321 13.1607 6.19566
222 3 -0.406259 11.12 5.03616
150 2 3.77247 6.65129 1.3802
101 2 0.915359 10.3828 1.18246
111 2 0.638669 10.0561 3.26186
253 3 1.17179 9.52784 2.49468
158 2 1.23406 7.19783 1.52965
88 2 0.0645173 8.45231 1.77996
124 2 -2.5643 7.11719 5.53473
291 2 -5.82688 10.0584 9.04063
266 3 2.23947 9.2875 15.8675
276 3 -7.69658 13.2656 12.3914
328 2 -5.79699 10.9073 11.1611
138 2 -5.094 12.9981 10.4762
327 2 -5.06971 12.2632 12.7216
325 1 -6.11541 10.6467 12.1804
277 3 -5.63765 11.9477 16.9681
229 3 -3.07633 12.6144 16.5526
272 4 -6.81351 12.1648 13.128
273 4 -6.98668 11.5534 16.1351
278 3 -6.91967 11.8766 14.6188
137 2 -3.31045 12.78 10.8577
294 2 -3.53443 8.68374 11.0869
286 1 -3.22821 7.0871 10.8545
358 2 -3.83946 7.67597 15.9029
359 2 -4.96749 9.66428 16.2338
230 3 0.930989 9.16683 13.5171
353 2 -0.586468 13.2369 9.65411
131 2 -1.60201 10.6103 14.1522
129 2 -1.26702 9.74589 15.7646
231 3 -0.583089 11.305 12.6049
290 2 -2.62846 6.97123 9.80823
103 2 -3.07231 10.173 15.2595
64 1 -1.91893 10.4638 15.2282
228 3 -1.00082 13.104 14.7204
160 2 -0.144507 7.75605 11.3394
161 2 -0.845367 9.10669 10.061
227 3 -0.276603 11.907 16.9607
261 3 1.8358 9.5639 8.90193
36 4 -1.58135 12.2108 16.0071
19 4 -0.29545 12.9122 13.2607
35 4 1.58186 8.22079 14.7877
37 4 0.332097 9.96335 12.2322
75 1 -0.669531 8.84156 11.1829
162 2 -1.69773 8.92819 11.7588
226 3 2.87975 7.33142 14.2262
326 2 -5.28689 10.0675 12.7234
145 2 -1.60603 10.4402 8.84316
225 3 0.427255 7.13451 15.4224
263 3 1.6574 10.6914 11.2159
159 2 -0.198319 8.41751 17.5114
18 4 8.02182 3.449 5.577
22 4 6.77732 5.38916 2.16327
39 4 10.4988 3.06887 3.64547
94 2 7.82136 4.90183 6.38169
201 3 8.02786 1.92092 1.09197
331 2 13.2106 1.32001 3.81846
204 3 8.47489 2.20894 6.53269
209 3 7.24711 4.34236 1.15375
232 3 10.0519 1.78522 2.81278
233 3 9.30296 3.64799 4.60598
244 3 8.02453 6.0263 2.96979
16 4 9.45448 1.13208 7.56888
13 4 8.97538 0.945503 1.87868
258 3 8.20517 5.81428 7.82567
115 2 16.0352 1.21246 1.43952
174 2 10.9438 4.87018 6.04188
50 4 11.1995 6.59677 5.78215
342 2 9.06364 5.88674 0.656086
236 3 10.3461 1.96241 8.62206
354 2 15.8312 1.02108 5.76001
247 3 14.5276 4.18602 8.08366
163 2 15.3989 2.32834 7.03498
7 4 15.3413 2.46431 2.47425
76 1 16.252 1.75044 6.57774
241 3 11.3206 4.04637 2.65621
245 3 11.7982 6.24451 0.969066
167 2 11.2575 2.55542 5.81686
109 2 11.5657 6.21129 8.22886
45 4 12.5218 4.90673 1.7072
48 4 12.9928 3.83741 8.23938
77 1 11.8057 2.28144 4.8637
80 1 12.0716 5.80856 7.27452
106 2 13.0714 1.96191 8.27177
176 2 12.3182 3.94782 6.65411
234 3 13.0694 1.07475 0.637987
242 3 13.1432 3.80536 0.714699
166 2 11.8637 1.14794 4.72311
165 2 12.8485 2.80173 4.69864
332 2 13.5784 2.59843 2.69005
329 1 14.1183 0.786658 3.07764
170 2 5.64425 5.92485 5.80962
15 4 7.74786 3.25522 0.18416
175 2 13.1387 6.25713 7.08028
78 1 4.77288 6.65087 5.64823
208 3 5.60745 4.83831 3.25837
164 2 16.9253 1.23717 7.33886
281 3 14.6398 2.82693 15.905
188 2 8.67306 4.6849 9.93965
49 4 7.64994 5.92807 9.25347
248 3 6.17112 5.55125 9.51179
21 4 8.04903 2.57754 11.4111
42 4 10.7133 2.81388 9.91639
193 3 16.9891 0.868674 10.5897
155 2 7.9473 4.6574 12.8299
356 2 11.2002 1.07116 12.5632
237 3 9.61318 3.6156 10.6956
238 3 9.58714 4.43638 16.7271
302 1 10.2101 3.5251 14.0851
305 2 10.4417 2.37358 13.885
306 2 10.4843 4.11968 13.172
307 2 9.07351 3.61754 14.3746
300 4 10.8896 4.22106 15.8051
108 2 6.41738 5.82681 12.764
99 2 5.54034 6.61377 14.7276
85 1 6.0046 6.89433 13.0203
314 3 12.032 3.09436 16.2097
127 2 9.14708 6.5165 10.9222
279 4 15.2164 1.18438 15.5702
338 2 11.1007 0.853133 14.4584
73 1 7.2029 3.89912 12.4246
293 2 13.0122 5.82636 10.7887
315 3 11.5722 5.60275 15.4323
40 4 13.3686 3.07349 17.0688
246 3 11.8929 4.09228 9.4535
308 2 13.7371 2.12362 13.2411
310 2 12.1892 3.5636 13.7375
303 1 13.4071 3.52978 13.3703
104 2 13.3123 4.45072 11.8269
240 3 11.7834 1.97562 11.1811
4 4 15.6404 1.40099 9.61664
44 4 13.3075 2.67062 11.4457
110 2 14.101 4.07761 14.1054
239 3 14.589 2.17359 10.545
96 2 6.35262 4.24285 11.7283
321 1 17.0242 1.24107 15.1046
144 2 15.8584 3.27471 17.1799
105 2 5.20385 6.69447 17.2983
126 2 15.2979 3.83279 12.8524
133 2 8.28394 12.3531 8.41202
334 2 3.75653 13.095 6.23079
224 3 1.03306 12.7658 6.70689
33 4 2.57443 9.49435 7.43179
112 2 9.05626 11.9541 4.88396
82 1 2.39789 11.7153 4.39226
180 2 2.14332 12.6206 3.71392
52 4 2.83066 10.4097 3.17644
179 2 3.42201 11.84 5.17188
254 3 3.53579 11.4173 2.05045
264 3 3.77546 9.11281 3.93442
181 2 4.01263 10.4738 7.3141
12 4 7.28374 10.1237 8.63505
184 2 9.45007 11.5786 6.64405
187 2 3.75085 9.30226 0.363359
34 4 0.989828 11.4707 5.6847
148 2 4.49503 7.97805 0.215647
41 4 4.2726 12.9405 8.19646
249 3 12.3607 7.02962 4.73361
250 3 7.83807 7.2023 5.5601
352 2 9.55973 10.9039 8.11064
46 4 7.90273 7.50677 3.8771
335 2 5.90188 12.3895 6.44578
333 1 4.88733 11.944 6.49292
355 2 4.80534 11.3105 5.57176
38 4 4.46055 12.6356 1.58917
51 4 9.87029 9.68459 2.71616
54 4 8.50771 7.42794 6.92847
56 4 4.88468 8.06693 4.32242
113 2 5.37095 8.2388 6.1607
251 3 9.05881 8.61504 3.52827
252 3 10.5795 8.75437 1.32132
256 3 8.74647 11.0564 2.09668
257 3 6.17867 11.9474 0.964844
259 3 10.1038 7.45608 6.65478
260 3 7.90494 8.73029 7.85679
265 3 6.29061 8.15756 3.52205
90 2 6.09812 10.9122 7.6291
47 4 10.8598 7.44681 0.403243
53 4 7.78609 11.0134 0.815786
343 1 7.03989 9.26935 0.90511
345 2 7.69713 8.67908 1.62375
344 2 6.07889 9.48772 1.47097
341 2 8.24599 7.73133 0.362909
71 1 4.6298 6.86367 0.639063
330 2 5.70666 12.7775 3.58078
149 2 5.81042 6.72462 1.34703
362 3 0.790207 12.8413 0.784955
288 2 12.2952 7.63513 7.90745
235 3 5.82452 12.948 8.75644
336 1 1.62482 13.1991 13.4022
262 3 3.12682 11.989 9.12672
337 2 1.83227 12.0184 13.3468
55 4 2.76766 10.7115 10.0564
57 4 3.19875 10.5871 15.7659
324 2 6.77527 13.253 16.9921
268 3 2.35793 12.021 16.2176
351 2 3.48635 12.8308 12.7542
270 3 4.13322 9.99293 10.5175
267 3 4.00882 10.7493 14.208
316 3 12.4072 7.38171 13.2836
107 2 8.00688 7.67294 12.0664
323 2 8.25918 12.9087 14.8855
32 4 1.23646 12.197 17.3688
274 2 10.2679 10.0685 12.2486
339 1 11.9911 8.60506 16.1657
84 1 4.72587 10.4258 16.9205
172 2 9.91359 7.49673 12.3692
171 2 8.00666 7.45593 9.87858
255 3 9.01535 11.8736 16.7448
275 2 10.4717 9.79829 16.1437
132 2 8.9509 11.388 9.84728
79 1 9.11684 7.49743 11.5683
185 2 5.18964 11.4375 17.2516
282 3 5.37928 12.9744 14.5913
186 2 5.54183 9.77778 16.4029
168 2 9.29988 8.43337 10.8772
298 2 10.9633 7.77888 10.9374
311 2 6.80234 9.64753 15.2885
309 2 8.09956 8.33423 15.7624
304 1 6.94182 8.57756 15.5323
296 4 12.508 7.49704 11.6721
346 2 7.31352 9.38002 17.3299
312 2 6.66179 7.95961 14.6085
43 4 4.78101 11.883 13.4358
58 4 5.53612 10.0288 11.2167
189 2 6.85656 7.63494 12.9122
190 2 5.62193 8.59253 12.1807
269 3 6.73823 9.87482 10.1362
271 3 5.79463 11.3134 12.3502
313 2 6.24597 8.17476 16.5077
357 2 10.7195 8.37985 14.9727
95 2 4.58618 7.18246 11.9388
360 2 9.67214 7.21391 16.3912
340 1 9.57204 7.45051 17.4966
301 4 12.1323 7.10524 14.8842
65 1 8.70337 11.3567 8.79596
ITEM: TIMESTEP
200
ITEM: NUMBER OF ATOMS
362
ITEM: BOX BOUNDS xy xz yz pp pp pp
-9.2559564641273155e+00 1.7826434467158450e+01 -9.1387033013182730e+00
1.8064571466808754e-01 1.3574970797197363e+01 5.3698130434939606e-01
7.2471757627983635e-02 1.7514228242371928e+01 6.2771651186538768e-01
ITEM: ATOMS id type x y z
152 2 -1.59711 4.17756 1.1282
142 2 -0.937505 5.82794 1.89787
69 1 -1.32235 3.05596 0.67018
143 2 -0.21165 2.91369 0.491864
2 4 -0.264893 2.86348 5.31657
5 4 2.89343 2.51527 5.8023
23 4 0.720012 5.84066 5.17118
60 1 -0.434848 4.62058 5.86022
61 1 2.58969 3.02275 7.52801
114 2 2.10322 2.08042 2.97762
118 2 0.204294 4.46725 7.46915
119 2 -2.0059 5.33512 5.67797
121 2 3.16489 4.09358 7.7142
191 3 1.35651 2.41571 5.2225
194 3 -1.08429 2.72969 3.88081
122 2 3.17829 2.11835 8.05855
59 1 2.30617 0.915788 3.00174
211 3 1.88232 5.98562 6.18142
217 3 1.06734 5.77023 3.6336
26 4 3.34204 6.50825 6.65447
218 3 1.35537 4.78058 1.01477
1 4 4.12718 0.799645 2.73938
30 4 0.829357 5.81603 2.11499
200 3 4.00646 3.59862 5.12424
203 3 6.80432 2.99587 4.83781
120 2 1.48523 3.09631 7.7567
192 3 3.64816 0.686231 5.97432
123 2 -1.75449 6.19633 4.23117
283 4 -1.61244 5.17058 7.50065
212 3 3.90378 5.46131 8.22576
87 2 1.90043 0.396767 4.08126
153 2 2.3998 2.19107 0.377255
320 2 5.82749 0.935248 4.60437
202 3 5.67934 0.78876 8.14256
199 3 4.91047 2.30464 2.98462
14 4 5.38013 3.4298 4.05881
169 2 3.88211 6.49627 3.87464
150 2 4.12437 6.29088 1.23899
151 2 4.13129 3.91871 1.08179
243 3 -3.78071 5.51016 2.6358
86 2 -1.13879 2.5413 8.42756
72 1 3.72922 3.52001 0.082862
116 2 1.81738 0.440126 2.06594
295 3 -1.55524 6.79145 8.35787
175 2 -4.20984 6.48127 6.99192
164 2 -0.449346 1.31668 7.42894
348 2 1.53874 1.40547 9.20494
287 2 1.15661 4.96044 11.2628
6 4 0.606492 1.34859 11.3788
9 4 -0.684741 4.43861 12.6458
63 1 0.588732 5.87363 11.4856
68 1 1.94397 1.85186 10.1739
89 2 -1.07669 5.58199 11.1222
139 2 3.20047 3.13627 11.0448
140 2 1.7641 3.05531 10.21
141 2 3.07128 1.46758 10.441
195 3 0.14169 3.00827 12.35
214 3 -0.280882 5.11641 14.065
215 3 1.77673 4.69589 15.8199
28 4 0.459926 5.59032 15.487
97 2 1.58108 3.05679 13.1128
128 2 0.819548 6.24379 12.4827
280 2 -0.447276 2.51347 14.4663
27 4 3.21744 3.35264 12.7283
216 3 3.63947 4.82656 13.1487
98 2 -0.623705 5.20968 16.8142
29 4 3.98801 6.34388 13.4127
156 2 3.76887 1.94405 13.9986
24 4 2.45658 4.49502 17.2885
173 2 3.92462 5.18164 10.8649
154 2 6.8795 3.29987 13.3035
136 2 4.62824 1.30592 11.671
213 3 4.56548 2.18163 13.3724
350 2 4.58407 2.38164 17.3404
210 3 4.73852 3.30844 9.33716
67 1 4.93736 0.68901 10.7513
25 4 4.75201 4.86197 9.46196
91 2 5.15459 2.8149 14.6471
17 4 5.60023 1.89227 9.35934
20 4 5.57518 3.49333 16.241
92 2 4.78675 5.17741 16.195
297 2 -0.664413 6.58592 8.90825
117 2 0.882423 6.64905 10.6433
206 3 6.98467 2.1438 9.94656
322 2 0.303503 1.71378 16.0182
96 2 6.06118 3.96041 11.653
299 2 -2.61926 6.96792 11.7758
205 3 7.03697 3.59572 16.6969
126 2 -2.41096 4.40948 12.7151
66 1 -0.797123 12.7264 8.48499
8 4 -3.95156 6.90917 3.43472
3 4 -4.38687 12.6456 6.69885
198 3 -4.93036 12.7181 1.45874
319 2 -3.67864 11.2464 5.7166
10 4 -3.07419 9.70212 2.11978
196 3 -3.74983 8.29444 2.66219
197 3 -4.04287 10.3083 1.06692
285 1 -5.24244 10.9432 7.36973
318 2 -4.39 12.5063 4.02647
347 2 -4.1659 9.65005 6.37847
178 2 -6.96208 10.9088 4.6803
361 2 -5.76913 9.3477 4.70267
284 4 -4.40936 9.30536 8.09454
81 1 -6.22689 10.1538 4.09283
93 2 -0.527894 7.07254 5.34631
177 2 -5.44617 10.6316 3.40524
221 3 3.18455 7.98039 7.07996
349 2 -5.98611 11.5151 8.02493
292 2 -2.70449 9.15102 8.44874
11 4 -4.65887 11.6075 0.331914
289 2 -5.88265 10.3604 6.59416
183 2 -7.08493 12.7282 5.76446
83 1 -8.17819 12.2369 5.60045
219 3 -2.7248 10.67 3.33899
134 2 -1.9282 13.0758 8.38055
223 3 1.55236 10.1656 6.41153
157 2 -1.58574 7.53099 1.80323
100 2 -1.96698 13.1507 5.88195
62 1 -2.23727 7.19016 4.39389
74 1 -0.556243 7.59653 1.31094
317 1 -2.86849 12.8261 5.23149
135 2 -0.71803 11.5774 8.34328
102 2 -0.808218 9.90879 6.91736
147 2 -1.19263 8.45312 8.10891
125 2 -1.63807 8.08472 3.99255
220 3 -1.14404 12.7845 2.91825
70 1 -0.813433 9.59999 8.05293
130 2 -1.64906 9.28215 1.26102
146 2 0.250468 9.59023 8.4286
31 4 -1.74336 11.8073 3.97931
182 2 -8.97756 13.0551 5.92887
222 3 -0.626321 11.1475 4.94883
159 2 -0.490953 7.76228 0.220583
101 2 0.931901 10.4044 1.2644
111 2 0.614922 10.1908 3.21166
253 3 1.15707 9.59268 2.61998
158 2 1.36849 7.43598 1.62188
88 2 0.0229533 8.4228 1.90415
124 2 -2.72886 7.22614 5.42342
145 2 -1.44947 10.4053 8.6966
291 2 -5.17557 10.4431 9.20325
266 3 2.31579 9.23145 15.8369
276 3 -7.59811 13.0231 12.2291
328 2 -5.01846 10.8926 11.3801
138 2 -5.17467 12.8778 10.3491
327 2 -4.93607 12.2111 12.6281
325 1 -6.01446 10.6762 11.962
277 3 -5.53195 12.0452 16.9552
229 3 -2.97931 12.6107 16.6301
272 4 -6.62571 12.0662 13.0634
273 4 -6.86434 11.5453 16.271
278 3 -6.78789 11.8851 14.6536
137 2 -3.34179 12.7078 10.9257
294 2 -3.63686 8.85411 10.997
286 1 -3.20525 7.2341 10.842
358 2 -3.83786 7.51319 15.9967
359 2 -4.97382 9.59942 16.6
230 3 0.931266 9.01176 13.4224
353 2 -0.46384 13.0505 9.50426
131 2 -1.445 10.6649 13.9626
129 2 -1.52053 9.59409 15.6662
231 3 -0.534278 11.2396 12.6315
290 2 -2.61289 7.07136 9.86528
103 2 -3.0263 10.3801 14.9642
64 1 -1.97004 10.4671 15.0398
228 3 -1.02784 13.0972 14.7653
160 2 -0.12395 7.74764 11.2909
161 2 -0.700434 9.10464 9.97938
227 3 -0.4431 11.6612 17.112
261 3 2.00275 9.52968 8.88475
36 4 -1.56149 12.1227 16.0283
19 4 -0.299215 13.0028 13.3195
35 4 1.63452 8.17787 14.6462
37 4 0.43913 10.0538 12.1751
75 1 -0.558338 8.86162 11.1298
162 2 -1.58588 9.06539 11.7308
226 3 2.86889 7.29735 13.9353
326 2 -5.92773 9.76541 12.7352
263 3 1.53118 10.6831 11.2136
225 3 0.574643 7.22358 15.6479
18 4 8.21085 3.25414 5.56591
22 4 6.84619 5.46226 2.33252
39 4 10.554 3.11777 3.65275
94 2 7.88755 4.55096 6.59972
201 3 8.03941 1.96619 1.11394
331 2 13.2906 1.26217 3.75246
204 3 8.62416 2.06655 6.62026
209 3 7.40814 4.4666 1.23521
232 3 9.95427 1.75289 3.03208
233 3 9.44386 3.83256 4.70964
244 3 8.10507 6.18608 3.09421
16 4 9.48818 1.07906 7.47076
13 4 8.90284 0.948593 2.01491
258 3 8.21296 5.77015 7.77349
115 2 15.9303 1.27969 1.44221
174 2 10.7569 4.96775 6.30595
50 4 11.1101 6.62359 5.79514
342 2 8.93443 6.11376 0.870939
236 3 10.4031 1.99586 8.71435
354 2 15.9231 0.846483 5.88456
247 3 14.5129 4.2842 7.97154
163 2 15.3714 2.28355 6.95719
7 4 15.4387 2.53401 2.5906
76 1 16.2422 1.69199 6.61454
241 3 11.4594 4.04851 2.7165
245 3 11.5257 6.06764 0.918736
167 2 11.2771 2.57589 5.83169
109 2 11.9192 6.10466 8.23729
45 4 12.3077 4.79877 1.65456
48 4 13.0042 3.817 8.09463
77 1 11.7951 2.22587 4.90336
80 1 12.1878 5.92062 7.21024
106 2 13.0919 2.00388 8.12853
176 2 12.2702 4.10526 6.51606
234 3 12.9589 0.936278 0.631636
242 3 13.065 3.81676 0.634886
166 2 11.764 1.04765 4.83603
165 2 12.7735 2.69679 4.82127
332 2 13.6828 2.68444 2.74857
329 1 14.0979 0.847596 3.01656
170 2 5.26192 5.81843 5.45237
15 4 7.74515 3.26537 0.259597
330 2 14.9626 0.452773 3.6033
78 1 4.52253 6.6865 5.33876
208 3 5.61249 4.77933 3.29235
334 2 13.0435 0.421245 6.26635
281 3 14.6717 2.66532 16.0321
188 2 8.75165 5.12663 10.1901
49 4 7.63529 5.91341 9.21449
248 3 6.2095 5.39315 9.57412
21 4 8.06289 2.68029 11.3279
42 4 10.7651 2.95544 9.94124
193 3 16.748 0.888452 10.4992
155 2 7.58826 4.92588 12.2529
356 2 11.1848 1.13951 12.5751
237 3 9.50988 3.75383 10.7192
238 3 9.69491 4.20293 16.8983
302 1 10.2758 3.53035 14.2283
305 2 10.5172 2.44915 13.858
306 2 10.4899 4.28062 13.469
307 2 9.17394 3.59276 14.4366
300 4 10.9337 4.18719 15.8954
108 2 6.36758 5.80516 12.6265
99 2 5.52374 6.44796 14.5659
85 1 5.89088 6.86569 12.9058
314 3 12.0003 3.06344 16.3994
127 2 9.41529 6.80731 11.0848
279 4 15.2795 1.29147 15.5367