ITEM: TIMESTEP
0
ITEM: NUMBER OF ATOMS
362
ITEM: BOX BOUNDS xy xz yz pp pp pp
-9.1645694311141330e+00 1.7819670980057737e+01 -9.0473162683050905e+00
1.8064571466808754e-01 1.3574970797197363e+01 7.0428488050486671e-01
7.2471757627983635e-02 1.7514228242371928e+01 6.2771651186538768e-01
ITEM: ATOMS id type x y z
152 2 -1.65858 4.12593 0.920527
142 2 -1.30335 5.79922 1.87834
69 1 -1.39846 2.9995 0.606294
143 2 -0.364266 2.7929 0.462889
2 4 -0.241455 2.91188 5.25873
5 4 2.92821 2.57315 5.53692
23 4 0.569651 5.94522 5.35677
60 1 -0.388015 4.57628 6.03375
61 1 2.68492 2.98473 7.35676
114 2 2.17317 1.87507 3.06692
118 2 0.0287228 4.49166 7.84268
119 2 -1.86769 4.98837 5.54923
121 2 3.12624 4.02505 7.58217
191 3 1.35761 2.55488 5.15946
194 3 -1.08913 2.79368 3.92155
122 2 3.31249 2.10256 7.80459
59 1 2.35527 0.723624 3.06965
211 3 1.96434 6.01044 5.9463
217 3 0.523023 5.85417 3.7708
26 4 3.40145 6.50994 6.93325
218 3 1.19149 4.55538 1.42384
1 4 4.19626 0.722182 2.81965
30 4 0.415066 5.82585 2.20897
200 3 3.87621 3.75639 4.99817
24 4 1.93281 3.85725 0.127614
120 2 1.544 2.93708 7.40651
192 3 3.68256 0.807151 5.76426
123 2 -1.75064 6.04861 4.28485
283 4 -1.64733 5.04505 7.54831
212 3 4.02995 5.55359 8.25399
164 2 -0.17134 1.46065 7.27589
153 2 2.26575 2.18065 0.306816
320 2 5.96798 0.894624 4.67285
202 3 5.25819 0.979164 7.98406
199 3 4.90631 2.17098 3.0628
14 4 5.27772 3.42403 3.98702
169 2 4.03094 6.35482 4.28605
150 2 3.84675 6.38819 1.22303
151 2 4.20346 3.8916 1.06191
243 3 -3.61574 5.50879 2.6264
175 2 -3.99703 6.31913 6.88868
208 3 5.3498 4.71511 2.94799
72 1 3.70016 3.49695 0.140776
116 2 1.85505 0.301245 2.14731
348 2 1.65776 1.58341 9.05351
287 2 1.58032 4.99053 11.1004
6 4 0.961246 1.44386 11.3715
9 4 -0.24254 4.46525 12.6074
63 1 0.907614 5.93274 11.3112
68 1 2.02065 2.0988 9.96652
89 2 -0.797226 5.65057 11.2875
139 2 2.93813 3.25735 11.2703
140 2 2.08573 3.2044 9.75083
141 2 3.09654 1.6538 10.304
195 3 0.482654 3.11004 12.2227
214 3 0.106528 5.11442 14.1126
215 3 1.96225 4.74856 16.1711
28 4 0.608061 5.63186 15.537
97 2 1.6792 3.02743 13.3954
128 2 1.18471 6.42145 12.2838
280 2 -0.177513 2.45712 14.8011
27 4 3.28694 3.45217 12.9736
216 3 3.75007 4.88006 13.3462
98 2 -0.453305 5.14518 16.782
29 4 4.10676 6.32663 13.5979
156 2 3.78406 1.92122 14.3038
299 2 -2.62276 6.68797 11.4469
173 2 4.07646 5.48757 10.9351
126 2 -1.94204 4.05451 12.6624
136 2 4.72582 1.51543 11.8664
213 3 4.43352 2.11177 13.466
350 2 4.67658 2.40293 17.3104
210 3 4.55344 3.44907 9.60098
67 1 4.89694 0.913971 10.831
25 4 4.80834 4.97529 9.56913
91 2 5.29284 2.94714 14.5003
17 4 5.61193 2.07991 9.45971
20 4 5.54716 3.52492 16.0842
92 2 4.69025 5.16861 16.1395
96 2 6.11194 3.76192 12.1841
117 2 1.08532 6.63847 10.4096
206 3 7.11154 2.34348 10.0222
322 2 0.421169 1.1623 16.2321
205 3 7.09324 3.63643 16.4035
297 2 -1.09611 6.75276 8.87196
66 1 -0.88646 12.8467 8.54659
8 4 -3.70851 7.00981 3.67756
3 4 -4.29637 12.8771 6.66177
198 3 -4.75802 12.762 1.42734
319 2 -3.52125 11.4157 5.92383
10 4 -3.06345 9.69411 2.06174
196 3 -3.59142 8.37088 2.77074
197 3 -4.01241 10.3353 0.998664
285 1 -5.21956 11.1803 7.55989
318 2 -4.17776 12.4269 4.05482
347 2 -4.94722 10.0987 5.99726
178 2 -6.79892 11.0159 4.5301
361 2 -5.67121 9.45031 4.20388
284 4 -4.42178 9.41692 7.54407
81 1 -6.16285 10.3166 3.76876
93 2 -0.440064 7.34971 5.66187
177 2 -5.57558 10.874 2.96912
221 3 3.03813 7.98519 7.27009
349 2 -5.40018 11.9314 8.46022
292 2 -2.70424 9.38875 7.65133
11 4 -4.57322 11.6445 0.231848
289 2 -6.18015 10.8596 7.08292
183 2 -6.92645 12.608 5.86047
83 1 -7.98485 12.1204 5.76643
219 3 -2.59005 10.7709 3.20332
134 2 -1.96428 13.1049 8.29717
223 3 1.53371 10.0748 6.46735
157 2 -1.83087 7.5923 1.50396
87 2 -7.04777 12.9647 4.13839
62 1 -2.06278 7.13568 4.64514
74 1 -0.747701 7.50605 1.13669
317 1 -2.58394 12.7736 5.1846
135 2 -0.725268 11.707 8.46022
102 2 -0.984472 10.271 7.20645
147 2 -1.2423 8.51043 8.1802
125 2 -1.44525 7.95468 4.21607
220 3 -0.879249 12.7711 2.85362
70 1 -0.876943 9.69165 8.2239
130 2 -1.62188 9.27302 1.23795
146 2 0.203864 9.71911 8.51399
31 4 -1.64492 11.7827 3.89966
295 3 -1.77247 6.92444 8.11342
222 3 -0.435171 11.0713 4.82322
288 2 -4.85103 7.76298 7.81354
101 2 0.920444 10.1477 1.07173
111 2 0.642001 9.87923 3.17764
253 3 1.09884 9.48227 2.38203
158 2 1.16344 7.19161 1.42624
88 2 -0.121289 8.35304 1.56573
124 2 -2.28896 7.08482 5.75716
100 2 -1.72632 13.1264 5.84738
291 2 -4.85458 10.3053 9.1346
266 3 2.40615 9.15744 15.9939
276 3 -7.29026 13.2014 12.2681
328 2 -6.29259 10.8703 11.0249
138 2 -5.02582 13.0572 10.5374
327 2 -4.90296 12.0549 12.8256
325 1 -6.17309 10.6998 12.1906
277 3 -5.4274 12.0074 17.0352
229 3 -2.74186 12.8533 16.6823
272 4 -6.55207 12.2512 13.2768
273 4 -6.80651 11.5449 16.2668
278 3 -6.87554 12.0828 14.7904
137 2 -3.21922 13.073 10.9756
294 2 -3.67287 8.70093 10.6493
286 1 -3.34222 7.0081 10.6029
358 2 -3.82554 7.43357 16.0745
359 2 -4.63268 9.52915 16.1404
230 3 1.09241 9.1413 13.5506
353 2 -0.614352 13.1791 9.60553
131 2 -1.45468 10.2455 14.3565
129 2 -1.12636 9.69978 16.0769
231 3 -0.451028 11.2223 12.7335
290 2 -2.70399 6.95692 9.54656
103 2 -2.85537 10.1778 15.6764
64 1 -1.7352 10.376 15.4712
228 3 -0.79505 13.0197 14.5816
160 2 -0.0129823 7.77511 11.4232
161 2 -0.573676 9.23711 10.1132
227 3 -0.0658444 11.9144 16.9331
261 3 2.07743 9.66485 8.9818
36 4 -1.2858 12.199 15.9125
19 4 -0.157696 12.8894 13.1692
35 4 1.83085 8.2538 14.7404
37 4 0.634884 10.0367 12.2896
75 1 -0.448835 8.89775 11.3265
162 2 -1.4734 8.99151 11.878
226 3 3.05664 7.3202 14.06
326 2 -5.31076 10.0852 12.4995
159 2 0.123719 7.89571 17.4959
225 3 0.679822 7.20854 15.5657
145 2 -1.56192 10.1644 8.99445
18 4 8.05138 3.39418 5.52646
22 4 6.48226 5.4545 2.02144
39 4 10.5387 3.05124 3.55614
94 2 7.94122 4.76555 6.52141
201 3 7.81191 1.76322 0.899612
331 2 13.0573 1.46498 3.69037
204 3 8.49585 2.21541 6.69376
209 3 7.05754 4.33048 1.05516
232 3 9.98925 1.90404 2.57579
233 3 9.27421 3.58617 4.52953
244 3 7.56845 6.28975 2.92605
16 4 9.32689 1.18888 7.57658
13 4 8.94894 0.989354 1.72104
258 3 8.25616 6.1554 7.82066
115 2 16.0429 1.32512 1.62552
174 2 10.7894 4.98898 6.26939
50 4 11.1798 6.68422 5.85102
342 2 8.82552 5.88617 0.787058
203 3 6.68943 3.18138 4.80424
354 2 15.6689 0.768753 6.2529
247 3 14.4655 4.07577 8.1614
163 2 15.4484 2.55187 6.84238
7 4 15.2974 2.59938 2.57268
76 1 16.2002 1.64022 6.56141
241 3 11.4975 4.17897 2.79058
245 3 11.5354 6.18194 1.0999
167 2 10.985 2.59911 5.78964
109 2 11.9154 6.07617 8.24486
45 4 12.4641 5.02946 1.71232
48 4 12.9077 3.69248 8.1408
77 1 11.5548 2.14834 4.89604
80 1 12.1745 5.89659 7.20071
106 2 13.1512 1.86932 8.10282
176 2 12.2963 4.11044 6.50421
234 3 12.9341 1.08192 0.63129
242 3 12.7683 3.82826 0.4242
166 2 11.4961 0.979517 4.8233
165 2 12.6503 2.5835 4.87943
332 2 13.5321 2.79019 2.57056
329 1 13.9942 0.972695 3.02101
170 2 5.54195 6.13502 5.88074
15 4 7.63697 3.18003 0.142953
86 2 16.0953 2.36556 8.39793
281 3 14.6478 2.89762 15.9014
188 2 8.85337 4.78493 10.1805
49 4 7.80076 5.8934 9.31274
248 3 6.34402 5.52876 9.59717
21 4 8.05369 2.54117 11.2258
42 4 10.8185 2.9121 10.008
193 3 16.9753 0.876664 10.6612
155 2 7.72971 4.75318 12.2467
356 2 11.1358 0.99454 12.4626
237 3 9.64497 3.54615 10.8145
238 3 9.65862 4.25514 16.7622
302 1 10.3673 3.50069 14.0172
305 2 10.6137 2.35484 13.8081
306 2 10.6842 4.23684 13.2674
307 2 9.21904 3.66606 14.3335
300 4 10.99 4.17681 15.7975
108 2 6.42285 5.63083 12.6354
99 2 5.57274 6.51386 14.6646
85 1 6.01711 6.6897 12.8991
314 3 12.0227 3.12654 16.4241
127 2 9.08885 6.41043 11.2002
279 4 15.3345 1.11513 15.4791
338 2 10.971 0.9135 14.3473
73 1 7.17255 3.72052 12.4655
293 2 12.7192 5.96426 10.3598
315 3 11.561 5.58435 15.2957
40 4 13.4402 3.07369 17.111
246 3 11.9645 4.09984 9.42049
308 2 13.9405 2.09564 13.202
310 2 12.2711 3.67208 13.3462
303 1 13.4172 3.7003 13.0126
104 2 13.681 4.39853 11.6673
240 3 11.8237 1.92136 11.1848
4 4 15.7239 1.26257 9.68591
44 4 13.3604 2.3669 11.4101
110 2 13.9222 4.30659 13.7844
239 3 14.5693 1.98335 10.5549
207 3 8.53059 1.31556 12.0783
321 1 17.1068 1.24648 15.2396
154 2 7.35934 3.13919 13.469
144 2 15.7627 3.28039 17.1819
105 2 5.4136 6.59354 17.0587
301 4 12.0856 7.05548 14.7541
236 3 10.2778 1.95884 8.80201
133 2 8.20203 12.1689 7.99707
340 1 8.97759 6.85925 0.188617
224 3 0.926421 12.8442 6.55055
33 4 2.64593 9.48348 7.50682
65 1 8.59653 11.37 8.6905
82 1 2.34586 11.6189 4.51992
180 2 2.1781 12.525 3.76561
52 4 2.78524 10.3485 3.20891
179 2 3.34355 11.7659 5.25069
254 3 3.38206 11.3086 2.05879
264 3 3.69475 9.28128 3.90364
181 2 4.19697 10.3879 7.51771
12 4 7.2846 10.0264 8.63445
184 2 9.23726 11.1436 6.43921
187 2 3.74801 9.12508 0.465704
78 1 4.6898 6.79438 5.71325
362 3 0.763106 12.8561 0.657163
41 4 4.39889 12.807 8.25086
249 3 12.2834 7.03269 4.78155
250 3 7.65382 7.1081 5.56021
352 2 9.48906 10.6622 8.30025
46 4 7.70885 7.52396 3.92285
335 2 5.96822 12.204 6.49934
333 1 4.89607 11.8241 6.49698
355 2 4.77274 11.2346 5.5564
38 4 4.48462 12.6735 1.62813
51 4 9.7788 9.54 2.5719
54 4 8.47057 7.48563 6.87552
56 4 4.79349 8.23746 4.37919
113 2 5.09629 8.5289 6.19901
251 3 8.81477 8.6399 3.54375
252 3 10.5268 8.70058 1.43622
256 3 8.77556 10.9431 1.95372
257 3 6.00937 12.0332 0.996155
259 3 10.1394 7.77919 6.47196
260 3 7.88016 8.89887 7.82453
265 3 6.15771 8.30135 3.61468
90 2 5.96155 10.7282 7.63037
47 4 10.7806 7.38177 0.424048
53 4 7.57223 10.8697 0.899336
343 1 6.79361 9.15661 0.913415
345 2 7.28277 8.48535 1.66273
344 2 5.73921 9.44519 1.33797
341 2 8.1836 7.7161 0.394822
71 1 4.64061 6.71882 0.534058
112 2 9.06414 11.8648 4.6747
149 2 5.67464 6.75871 1.0905
148 2 4.36083 7.78276 0.133153
34 4 0.975138 11.4471 5.73726
182 2 8.45998 12.877 6.09901
334 2 3.97115 13.0982 6.27752
330 2 5.60933 13.0127 3.65478
336 1 1.72664 13.1251 13.4375
262 3 3.36178 12.0672 9.1487
337 2 2.04425 12.0054 13.4885
55 4 2.93996 10.6305 10.157
57 4 3.40442 10.5875 15.745
324 2 6.51136 12.8588 16.9251
268 3 2.50456 11.8551 16.1761
351 2 3.46868 12.6159 12.655
270 3 4.23811 9.81005 10.6226
267 3 4.15764 10.6893 14.3624
316 3 12.5748 7.30346 13.2013
107 2 8.23895 7.4368 12.5808
263 3 1.96176 10.8668 11.3284
32 4 1.42386 12.1552 17.3155
274 2 10.0243 10.1926 12.5769
339 1 12.1294 8.54375 16.138
84 1 4.85342 10.2635 16.9609
172 2 10.072 7.36351 12.5127
171 2 8.01125 7.33019 10.2448
255 3 9.02876 11.7008 16.9325
275 2 10.6901 9.84588 16.1262
132 2 8.65586 11.6411 9.75121
79 1 9.14561 7.3958 11.8737
185 2 5.38999 11.2685 17.2723
282 3 5.55264 12.9336 14.44
186 2 5.62101 9.51049 16.4162
168 2 9.16401 8.35377 11.1749
298 2 10.878 7.8536 11.0521
311 2 6.78494 9.57425 15.2651
309 2 8.08897 8.32258 15.6675
304 1 7.00086 8.45246 15.4418
296 4 12.439 7.47851 11.6274
346 2 7.30713 9.30352 17.281
312 2 6.67408 7.8378 14.4742
43 4 4.80989 11.8753 13.4259
58 4 5.60086 9.94565 11.321
189 2 6.89687 7.44801 12.8871
190 2 5.67887 8.58245 12.4368
269 3 6.88653 9.71763 10.2779
271 3 5.63564 11.3701 12.2047
313 2 6.33972 8.03744 16.3635
357 2 10.8408 8.41103 15.0572
95 2 4.94224 7.07473 11.868
235 3 5.83788 12.8594 8.90618
360 2 9.65404 7.28578 16.5732
323 2 8.2452 13.2472 14.366
ITEM: TIMESTEP
100
ITEM: NUMBER OF ATOMS
362
ITEM: BOX BOUNDS xy xz yz pp pp pp
-9.1645694311141330e+00 1.7819670980057737e+01 -9.0473162683050905e+00
1.8064571466808754e-01 1.3574970797197363e+01 7.0428488050486671e-01
7.2471757627983635e-02 1.7514228242371928e+01 6.2771651186538768e-01
ITEM: ATOMS id type x y z
152 2 -1.52118 4.05094 0.965434
142 2 -1.13359 5.88783 1.68176
69 1 -1.28798 2.9237 0.579484
143 2 -0.228473 2.65219 0.484697
2 4 -0.303523 2.92544 5.20296
5 4 2.95158 2.6273 5.77609
23 4 0.824283 5.82386 5.22183
60 1 -0.346325 4.60667 5.951
61 1 2.68135 3.07621 7.49945
114 2 2.21829 1.95463 3.14845
118 2 0.131249 4.19463 7.555
119 2 -1.88984 5.18988 5.64077
121 2 3.15926 4.15931 7.83547
191 3 1.25643 2.59422 5.10836
194 3 -1.18284 2.75076 3.76436
122 2 3.26214 2.18939 8.00551
59 1 2.34895 0.829608 3.12929
211 3 2.11009 5.81643 6.07613
217 3 0.864569 5.64257 3.64165
26 4 3.37669 6.4855 6.82356
218 3 1.16267 4.6055 1.10771
1 4 4.14939 0.665732 2.84294
30 4 0.589785 5.72528 2.117
200 3 4.14661 3.45766 5.14811
203 3 6.67347 3.12288 4.88842
120 2 1.55917 3.00509 7.79368
192 3 3.71776 0.828471 5.86999
123 2 -1.47343 6.20577 4.00394
283 4 -1.53652 5.14562 7.50673
212 3 4.01079 5.66494 8.18233
116 2 1.72422 0.332389 2.34423
86 2 -1.01516 2.44634 8.40511
320 2 6.09379 0.964704 4.78538
202 3 5.38381 0.894093 8.00668
199 3 4.81071 2.18952 2.95124
14 4 5.34151 3.45555 4.04196
169 2 3.90679 6.31036 4.33913
87 2 2.00979 0.367722 4.18206
151 2 3.86558 3.82518 1.10048
243 3 -3.68715 5.6001 2.52564
348 2 1.66131 1.27129 9.09658
287 2 1.24905 4.91699 11.0276
6 4 0.801339 1.54409 11.4052
9 4 -0.326521 4.37014 12.7558
63 1 0.830047 5.91825 11.412
68 1 2.04377 1.86684 9.98219
89 2 -0.715045 5.71501 11.3976
139 2 2.98561 3.05429 11.2201
140 2 2.01613 3.0155 9.80516
141 2 3.1525 1.45466 10.3762
195 3 0.496883 3.10993 12.2336
214 3 0.0192795 4.93489 14.1744
215 3 1.95491 4.81623 15.943
28 4 0.422288 5.53358 15.5338
97 2 1.81574 2.96687 13.4069
128 2 1.21872 6.18864 12.4827
280 2 -0.160456 1.86034 14.1703
27 4 3.42226 3.32743 12.9052
216 3 3.80868 4.7942 13.3004
98 2 -0.721678 4.92919 16.6487
29 4 4.13271 6.40037 13.588
156 2 4.00344 1.79089 14.1602
299 2 -2.34367 6.68413 11.6248
173 2 3.84952 5.48926 10.6936
154 2 6.86114 3.18106 13.4026
136 2 4.92687 1.35402 11.8292
213 3 4.67979 2.20775 13.3287
350 2 4.71482 2.30406 17.2274
210 3 4.63887 3.32117 9.42577
67 1 5.02177 0.768697 10.7549
25 4 4.70243 4.92746 9.41918
91 2 5.29004 3.0087 14.496
17 4 5.60884 1.9938 9.44449
20 4 5.55506 3.57694 16.0898
92 2 4.77911 5.25745 16.2055
96 2 6.3526 4.20026 11.7813
117 2 1.08892 6.72139 10.7062
206 3 7.08338 2.27265 9.98722
322 2 0.420476 1.65723 15.9305
24 4 2.53743 4.45166 17.3394
207 3 8.36819 1.25857 12.1808
72 1 4.31466 4.06532 17.5034
205 3 7.0962 3.66916 16.4829
153 2 2.97441 2.71324 17.4643
297 2 -0.703568 6.68144 8.87694
66 1 -0.828784 12.8966 8.61902
8 4 -3.69539 7.03637 3.50821
3 4 -4.35424 12.7546 6.80761
198 3 -4.74007 12.833 1.42842
319 2 -3.50397 11.2933 6.09275
10 4 -3.10391 9.72624 2.04054
196 3 -3.68172 8.38057 2.64902
197 3 -4.1304 10.2747 1.0171
285 1 -5.36834 10.9602 7.40831
318 2 -4.16138 12.4089 4.11249
347 2 -4.71166 9.7033 6.10757
178 2 -6.76712 11.0973 4.75807
361 2 -5.8185 9.46917 4.43172
284 4 -4.55754 9.29005 7.89443
81 1 -6.23099 10.364 3.98466
93 2 -0.248619 7.13158 5.5702
177 2 -5.53554 10.9497 3.32306
221 3 3.02766 8.02675 7.07879
349 2 -5.76341 11.6527 8.29805
292 2 -2.90735 9.37672 8.33408
11 4 -4.7119 11.5948 0.291285
289 2 -6.24549 10.6826 6.74195
183 2 -6.90127 12.901 5.80727
83 1 -7.93277 12.3826 5.83589
219 3 -2.7002 10.6299 3.35092
134 2 -1.92271 13.1828 8.34098
223 3 1.58851 10.1029 6.29055
157 2 -1.66093 7.55494 1.59574
150 2 3.70793 6.65207 1.39803
62 1 -1.97877 7.14528 4.47124
74 1 -0.61102 7.6283 1.18604
317 1 -2.66724 12.7651 5.3186
135 2 -0.68131 11.7924 8.48983
102 2 -1.05857 10.0629 6.96395
147 2 -1.32349 8.61585 8.1958
125 2 -1.49833 8.13285 4.28097
220 3 -0.89436 12.5914 2.93709
70 1 -0.932871 9.71283 8.10657
130 2 -1.62233 9.32201 1.21256
146 2 0.223853 9.63783 8.43516
31 4 -1.59649 11.6769 4.10679
295 3 -1.59665 6.86175 8.30584
222 3 -0.357791 11.1091 5.03958
100 2 -1.76273 13.0026 6.03804
101 2 0.877387 10.3739 1.17573
111 2 0.668228 10.0293 3.21577
253 3 1.14912 9.52015 2.49715
158 2 1.25271 7.20979 1.52266
88 2 0.0439396 8.4325 1.75622
124 2 -2.46492 7.13106 5.53994
182 2 -8.79069 13.1384 6.1235
291 2 -5.74825 10.0705 9.04216
266 3 2.34628 9.28649 15.8755
276 3 -7.48761 13.2635 12.4015
328 2 -5.62063 10.8863 11.1403
138 2 -4.95605 12.9613 10.4857
327 2 -4.84965 12.2476 12.6617
325 1 -5.92995 10.6312 12.1657
277 3 -5.41283 11.9543 16.9673
229 3 -2.89387 12.627 16.5304
272 4 -6.58744 12.1492 13.1163
273 4 -6.75019 11.5576 16.1303
278 3 -6.67081 11.8848 14.6139
137 2 -3.16428 12.7879 10.8442
294 2 -3.3155 8.63088 11.0943
286 1 -3.05828 7.04584 10.8579
358 2 -3.58432 7.6811 15.8409
359 2 -4.71708 9.6729 16.2729
230 3 1.03214 9.16323 13.5311
263 3 1.73801 10.7125 11.2262
131 2 -1.45467 10.577 14.1802
129 2 -1.11264 9.73944 15.7772
231 3 -0.51448 11.2729 12.6114
290 2 -2.49487 6.94229 9.81153
103 2 -2.91012 10.1692 15.3039
64 1 -1.76334 10.4561 15.2513
228 3 -0.859411 13.1113 14.7071
160 2 -0.0279662 7.77427 11.3403
161 2 -0.732013 9.15036 10.0367
227 3 -0.119309 11.9136 16.9826
261 3 1.93076 9.56661 8.92328
36 4 -1.42294 12.209 16.0123
19 4 -0.186847 12.9119 13.2735
35 4 1.68697 8.21836 14.8018
37 4 0.424802 9.97185 12.2397
75 1 -0.576512 8.83609 11.1886
162 2 -1.58378 8.9157 11.7673
226 3 2.97902 7.32687 14.2271
326 2 -5.09118 10.0429 12.6929
145 2 -1.51722 10.4603 8.82425
225 3 0.537849 7.13269 15.458
353 2 -0.516152 13.2437 9.65484
159 2 0.0563303 8.35041 17.4687
18 4 8.01413 3.45785 5.57364
22 4 6.72347 5.40627 2.16147
39 4 10.4163 3.0855 3.67109
94 2 7.84619 4.9088 6.38892
201 3 7.94961 1.91291 1.11787
331 2 13.1841 1.31552 3.77633
204 3 8.4488 2.21777 6.54215
209 3 7.1556 4.3556 1.14138
232 3 9.98434 1.7961 2.83103
233 3 9.27537 3.66734 4.60822
244 3 8.00941 6.03907 2.95889
16 4 9.44277 1.13189 7.58319
13 4 8.90675 0.946487 1.88932
258 3 8.19404 5.82513 7.82715
115 2 15.9208 1.19863 1.44678
174 2 10.8601 4.86369 6.02692
50 4 11.162 6.60253 5.77582
342 2 9.05382 5.90589 0.642215
236 3 10.3273 1.96746 8.6145
354 2 15.6235 1.05043 5.68835
247 3 14.4874 4.17763 8.09907
163 2 15.3786 2.50233 6.91984
7 4 15.2074 2.45498 2.48366
76 1 16.0754 1.71683 6.53496
241 3 11.2321 4.05525 2.66544
245 3 11.7053 6.24347 0.969968
167 2 11.1787 2.55787 5.86679
109 2 11.4021 6.15567 8.23494
45 4 12.4206 4.90233 1.70574
48 4 12.9552 3.83484 8.23249
77 1 11.7326 2.2922 4.88178
80 1 12.0055 5.8073 7.26875
106 2 13.0403 1.97896 8.25972
176 2 12.233 3.94215 6.65725
234 3 12.932 1.09412 0.644153
242 3 13.0301 3.80605 0.706744
166 2 11.7872 1.14019 4.73392
165 2 12.7642 2.80317 4.69441
332 2 13.4378 2.58385 2.71287
329 1 13.9906 0.789053 3.0836
170 2 5.71645 5.95431 5.7194
15 4 7.66933 3.25312 0.186015
175 2 13.0502 6.2758 7.17136
78 1 4.79998 6.66161 5.64049
208 3 5.57142 4.8496 3.265
164 2 16.7879 1.24246 7.27192
281 3 14.6849 2.82432 15.8952
188 2 8.65274 4.66141 9.96495
49 4 7.6607 5.91689 9.26903
248 3 6.17469 5.56357 9.56809
21 4 8.05847 2.56562 11.4225
42 4 10.6836 2.81006 9.93539
193 3 16.9165 0.835107 10.5861
155 2 7.9306 4.64288 12.9001
356 2 11.1628 1.08249 12.5727
237 3 9.62571 3.61735 10.7185
238 3 9.6405 4.46849 16.7888
302 1 10.1856 3.52718 14.1066
305 2 10.4313 2.38518 13.9136
306 2 10.4186 4.12058 13.2059
307 2 9.0707 3.5925 14.3883
300 4 10.9411 4.22487 15.7896
108 2 6.48024 5.86515 12.8213
99 2 5.6009 6.62549 14.6909
85 1 6.06608 6.90067 13.0356
314 3 12.0681 3.08486 16.2016
127 2 9.23177 6.55484 10.9094
279 4 15.2361 1.20459 15.5579
338 2 11.1246 0.875903 14.49
73 1 7.22632 3.86698 12.4759
293 2 12.9812 5.81601 10.795
315 3 11.6212 5.60104 15.4057
40 4 13.3992 3.06935 17.0681
246 3 11.8804 4.09475 9.43825
308 2 13.7152 2.04987 13.2426
310 2 12.1357 3.57429 13.7457
303 1 13.3567 3.56057 13.3589
104 2 13.3067 4.46375 11.8525
240 3 11.76 1.9747 11.1952
4 4 15.6052 1.3946 9.59929
44 4 13.2955 2.67495 11.4712
110 2 14.0544 4.08292 14.1035
239 3 14.5602 2.1939 10.5235
126 2 15.2338 3.87026 12.8353
321 1 17.0261 1.24226 15.0957
144 2 15.8685 3.25424 17.1949
105 2 5.30312 6.68016 17.3177
133 2 8.31636 12.2664 8.2738
362 3 0.796662 12.8408 0.79065
224 3 1.09313 12.7647 6.70879
33 4 2.62642 9.48151 7.43185
112 2 8.98995 11.9067 4.83337
82 1 2.4396 11.7216 4.40234
180 2 2.11852 12.638 3.7913
52 4 2.82978 10.3925 3.16921
179 2 3.43044 11.8612 5.17322
254 3 3.5129 11.3988 2.03857
264 3 3.74354 9.11671 3.93649
181 2 4.09947 10.4356 7.2877
12 4 7.33439 10.1211 8.61592
184 2 9.35638 11.5454 6.63119
187 2 3.72115 9.33173 0.363366
34 4 1.03334 11.4625 5.69982
148 2 4.41316 7.97306 0.210524
41 4 4.34328 12.9364 8.1861
249 3 12.3176 6.99883 4.6743
250 3 7.79534 7.20685 5.55378
352 2 9.68192 10.8758 8.27015
46 4 7.89517 7.49497 3.87692
335 2 5.94993 12.3539 6.43399
333 1 4.9169 11.9501 6.49453
355 2 4.81245 11.299 5.58827
38 4 4.40197 12.6582 1.60094
51 4 9.80967 9.7067 2.71175
54 4 8.46829 7.44287 6.92254
56 4 4.8747 8.07458 4.31451
113 2 5.37041 8.22051 6.19303
251 3 9.02192 8.61782 3.54908
252 3 10.4865 8.75856 1.29801
256 3 8.67361 11.0503 2.11721
257 3 6.13876 11.9596 0.970788
259 3 10.0781 7.49047 6.63624
260 3 7.89682 8.74419 7.83425
265 3 6.2433 8.15734 3.4999
90 2 6.09054 10.8959 7.63847
47 4 10.774 7.44938 0.387341
53 4 7.71023 11.0013 0.821034
343 1 6.97329 9.25384 0.925152
345 2 7.66359 8.67478 1.60021
344 2 6.01953 9.44778 1.51032
341 2 8.1658 7.7202 0.363351
71 1 4.55367 6.86222 0.638327
330 2 5.6504 12.7373 3.57369
149 2 5.7527 6.73806 1.34428
288 2 12.236 7.60655 7.92513
235 3 5.85612 12.9459 8.71035
334 2 3.8599 13.1136 6.2224
336 1 1.73095 13.1968 13.4275
262 3 3.17966 11.9926 9.1219
337 2 1.95127 12.0323 13.363
55 4 2.82667 10.7089 10.0502
57 4 3.31158 10.586 15.7753
324 2 6.86177 13.2368 16.9784
268 3 2.50913 12.0107 16.2142
351 2 3.57727 12.7985 12.7626
270 3 4.21166 10.0085 10.5146
267 3 4.14648 10.7497 14.1626
316 3 12.3902 7.3809 13.2772
107 2 8.09888 7.65299 12.1184
323 2 8.35223 12.9225 14.8933
32 4 1.38983 12.1991 17.3763
274 2 10.2613 10.0516 12.2488
339 1 12.0723 8.60154 16.1648
84 1 4.85709 10.4475 16.91
172 2 10.0396 7.51804 12.3034
171 2 8.06389 7.45614 9.92153
255 3 9.0916 11.8586 16.7607
275 2 10.5605 9.78334 16.1474
132 2 8.85635 11.4913 9.89198
79 1 9.18382 7.52314 11.5651
185 2 5.34124 11.463 17.2134
282 3 5.48476 12.9851 14.5737
186 2 5.65553 9.76773 16.3829
168 2 9.31718 8.4608 10.8757
298 2 11.015 7.80736 10.8368
311 2 6.92259 9.63127 15.267
309 2 8.21071 8.29939 15.7354
304 1 7.05099 8.56455 15.5395
296 4 12.5221 7.5226 11.6656
346 2 7.40503 9.39433 17.3255
312 2 6.75691 7.94697 14.6123
43 4 4.88095 11.8855 13.4255
58 4 5.60277 10.0307 11.223
189 2 6.92567 7.6541 12.9423
190 2 5.68547 8.62539 12.141
269 3 6.81738 9.8305 10.1475
271 3 5.90799 11.3384 12.3274
313 2 6.35547 8.17193 16.5282
357 2 10.7678 8.40258 15.0033
95 2 4.6758 7.14513 11.9419
340 1 9.65541 7.4467 17.4684
360 2 9.75886 7.22506 16.3664
65 1 8.76228 11.3452 8.81677
301 4 12.1698 7.10374 14.8701
ITEM: TIMESTEP
200
ITEM: NUMBER OF ATOMS
362
ITEM: BOX BOUNDS xy xz yz pp pp pp
-9.1645694311141330e+00 1.7819670980057737e+01 -9.0473162683050905e+00
1.8064571466808754e-01 1.3574970797197363e+01 7.0428488050486671e-01
7.2471757627983635e-02 1.7514228242371928e+01 6.2771651186538768e-01
ITEM: ATOMS id type x y z
152 2 -1.34813 4.22815 1.15249
142 2 -0.903651 5.89316 1.94194
69 1 -1.26891 3.03961 0.701343
143 2 -0.218496 2.55727 0.692747
2 4 -0.282838 2.83891 5.29301
5 4 2.91217 2.48508 5.74587
23 4 0.816711 5.81164 5.1367
60 1 -0.392864 4.63552 5.83381
61 1 2.61896 2.99136 7.542
114 2 2.01677 2.06172 2.90332
118 2 0.317025 4.46928 7.33418
119 2 -1.84003 5.45139 5.61814
121 2 3.17466 4.00498 7.72167
191 3 1.42047 2.37382 5.20802
194 3 -1.07474 2.77403 3.8253
122 2 3.21739 1.97141 7.95466
59 1 2.24581 0.935155 2.97832
211 3 1.95894 5.94022 6.18478
217 3 1.16466 5.82107 3.59827
26 4 3.38598 6.50054 6.68129
218 3 1.30024 4.74314 1.01554
1 4 4.07472 0.808287 2.76239
30 4 0.863659 5.81172 2.08328
200 3 4.00976 3.62965 5.16518
116 2 1.78534 0.439247 2.07616
120 2 1.53536 3.02153 7.72835
192 3 3.64964 0.682295 5.98767
123 2 -1.60175 6.28504 4.27111
283 4 -1.50138 5.17224 7.48498
212 3 3.98762 5.46733 8.21842
153 2 2.29537 2.19559 0.331445
86 2 -1.05733 2.52134 8.38468
320 2 5.82165 0.913328 4.61175
202 3 5.71005 0.801799 8.15193
199 3 4.81682 2.29342 2.96159
14 4 5.31938 3.46786 4.14829
169 2 3.89038 6.42822 3.94331
87 2 1.85879 0.400089 4.0198
151 2 4.05423 3.96025 1.0454
243 3 -3.66483 5.52798 2.5914
203 3 6.77116 2.98841 4.89702
150 2 4.02079 6.36167 1.2577
175 2 -4.10275 6.47465 6.99936
295 3 -1.38367 6.78777 8.39436
100 2 7.12198 0.40613 5.93445
72 1 3.67659 3.48017 0.0769009
348 2 1.55812 1.2103 9.25017
287 2 1.34799 4.89131 11.2897
6 4 0.681622 1.35929 11.4337
9 4 -0.528098 4.44402 12.6
63 1 0.765135 5.84861 11.4277
68 1 1.99971 1.83443 10.1902
89 2 -0.882468 5.44431 11.0009
139 2 3.26865 3.08045 11.1111
140 2 1.82906 3.05351 10.1023
141 2 3.15716 1.51364 10.4167
195 3 0.169274 3.00368 12.2876
214 3 -0.11847 5.104 14.017
215 3 1.92882 4.70627 15.8029
28 4 0.580824 5.59142 15.4785
97 2 1.60278 3.14872 13.1256
128 2 0.952884 6.17905 12.4863
280 2 -0.20076 2.64434 14.6291
27 4 3.28917 3.35399 12.7988
216 3 3.70146 4.79649 13.1926
98 2 -0.53174 5.09848 16.7282
29 4 4.07867 6.33 13.436
156 2 3.83971 1.91318 13.9714
205 3 7.15907 3.56923 16.6935
173 2 3.85497 5.21619 10.8664
299 2 -2.42525 6.87881 11.6927
136 2 4.74892 1.27789 11.6595
213 3 4.67774 2.13481 13.3701
350 2 4.7326 2.35683 17.3819
210 3 4.73572 3.31556 9.38238
67 1 4.97793 0.695966 10.7232
25 4 4.74728 4.88214 9.49941
91 2 5.2797 2.70561 14.6361
17 4 5.64064 1.91792 9.33882
20 4 5.70019 3.47782 16.2205
92 2 4.90908 5.11161 16.1396
297 2 -0.410534 6.54449 8.82049
117 2 1.1663 6.68108 10.7107
206 3 6.97738 2.22002 10.0209
322 2 0.595699 1.5856 16.0338
24 4 2.55752 4.48247 17.294
96 2 6.01703 3.86346 11.8647
126 2 -2.2519 4.46962 12.7504
154 2 7.03653 3.40338 13.3915
66 1 -0.712037 12.7666 8.54266
8 4 -3.81819 6.88962 3.39405
3 4 -4.31071 12.6426 6.71712
198 3 -4.90025 12.7066 1.47097
319 2 -3.61132 11.2585 5.74315
10 4 -3.02069 9.69812 2.11302
196 3 -3.67819 8.28952 2.64943
197 3 -3.98466 10.3155 1.06085
285 1 -5.18124 10.9168 7.358
318 2 -4.30984 12.4979 4.09775
347 2 -4.14396 9.53904 6.39055
178 2 -6.86066 10.9555 4.64975
361 2 -5.60325 9.42645 4.70268
284 4 -4.34318 9.29444 8.10925
81 1 -6.10935 10.2073 4.06961
93 2 -0.438183 7.01435 5.35908
177 2 -5.32141 10.7329 3.36378
221 3 3.20396 7.96446 7.11796
349 2 -5.84364 11.5378 8.06294
292 2 -2.67694 9.08242 8.45066
11 4 -4.65255 11.6094 0.349766
289 2 -5.84516 10.4661 6.58981
183 2 -7.00622 12.7112 5.74531
83 1 -8.12368 12.2173 5.56283
219 3 -2.67573 10.6669 3.34939
134 2 -1.81145 13.1255 8.4435
223 3 1.59557 10.1607 6.43808
157 2 -1.57637 7.50396 1.67248
145 2 -1.4364 10.4447 8.67445
62 1 -2.14675 7.20858 4.41001
74 1 -0.523864 7.59508 1.23628
317 1 -2.7747 12.8367 5.24209
135 2 -0.63885 11.6732 8.30823
102 2 -0.739427 9.8896 6.95063
147 2 -1.12444 8.43558 8.16092
125 2 -1.60273 8.16258 3.98761
220 3 -1.10232 12.7913 2.93142
70 1 -0.773326 9.60837 8.05593
130 2 -1.55333 9.3317 1.24517
146 2 0.271133 9.62027 8.44283
31 4 -1.70365 11.7875 3.98943
124 2 -2.6892 7.23469 5.42995
222 3 -0.592196 11.1431 4.99301
88 2 0.0448153 8.41756 1.85759
101 2 0.912898 10.4116 1.33109
111 2 0.646673 10.1564 3.27819
253 3 1.1169 9.5634 2.61943
158 2 1.3712 7.41756 1.52633
159 2 -0.417438 7.75839 0.134918
291 2 -5.03377 10.4444 9.23994
266 3 2.43736 9.22577 15.8401
276 3 -7.41651 13.0162 12.2537
328 2 -4.83004 10.8437 11.3623
138 2 -5.02402 12.9151 10.366
327 2 -4.73657 12.2036 12.6012
325 1 -5.82806 10.6685 11.9494
277 3 -5.34417 12.0295 16.9748
229 3 -2.8016 12.6507 16.6272
272 4 -6.4196 12.0661 13.0586
273 4 -6.63288 11.5149 16.2643
278 3 -6.52438 11.8786 14.6546
137 2 -3.22195 12.7136 10.8067
294 2 -3.45634 8.80025 10.8732
286 1 -3.02026 7.16116 10.8182
358 2 -3.63693 7.51661 15.9387
359 2 -4.78135 9.57682 16.57
230 3 1.00288 9.01052 13.4524
263 3 1.61443 10.7192 11.2222
131 2 -1.36478 10.6615 13.9965
129 2 -1.3258 9.61814 15.6615
231 3 -0.486766 11.2296 12.6252
290 2 -2.40307 7.01458 9.83053
103 2 -2.87295 10.2938 15.0561
64 1 -1.82574 10.4781 15.0887
228 3 -0.882751 13.0992 14.7756
160 2 -0.018014 7.68995 11.2424
161 2 -0.603294 9.09928 10.0268
227 3 -0.28054 11.6951 17.1418
261 3 2.02414 9.55993 8.94895
36 4 -1.41821 12.1498 16.0449
19 4 -0.199511 12.9678 13.3308
35 4 1.71978 8.19625 14.6636
37 4 0.518799 10.0116 12.1682
75 1 -0.455823 8.81807 11.1142
162 2 -1.49913 8.92728 11.5997
226 3 2.94685 7.30511 13.9595
326 2 -5.7729 9.7777 12.7089
353 2 -0.303869 13.0606 9.5652
225 3 0.611483 7.19624 15.6953
274 2 -6.74726 10.603 11.2179
18 4 8.17977 3.30099 5.60797
22 4 6.76338 5.49656 2.33013
39 4 10.5056 3.1305 3.68037
94 2 7.87044 4.63722 6.63378
201 3 7.96044 1.97631 1.18067
331 2 13.0804 1.26786 3.72928
204 3 8.60092 2.09369 6.63482
209 3 7.29622 4.50558 1.22725
232 3 9.90179 1.78283 3.05988
233 3 9.37205 3.87958 4.75054
244 3 8.05955 6.18436 3.05919
16 4 9.47825 1.1132 7.49334
13 4 8.83528 0.969362 2.03086
258 3 8.14816 5.81742 7.79062
115 2 15.832 1.2573 1.42124
174 2 10.6828 4.96613 6.37777
50 4 11.0873 6.60603 5.79152
342 2 8.92361 5.97088 0.668718
236 3 10.3646 2.00141 8.70605
354 2 15.6988 0.937396 5.65823
247 3 14.4505 4.31062 7.97073
163 2 15.1427 2.3327 6.94139
7 4 15.2832 2.55662 2.54569
76 1 16.0698 1.70461 6.54033
241 3 11.433 4.02495 2.7165
245 3 11.435 6.06918 0.911425
167 2 11.2509 2.51308 5.85174
109 2 11.7686 6.16113 8.15848
45 4 12.2293 4.80149 1.62708
48 4 12.9549 3.80107 8.11065
77 1 11.7314 2.2237 4.90524
80 1 12.1742 5.93721 7.20182
106 2 13.0528 2.02118 8.12325
176 2 12.2198 4.15995 6.49778
234 3 12.8556 0.926528 0.64589
242 3 12.9637 3.83125 0.595463
166 2 11.6955 1.037 4.7916
165 2 12.7733 2.70769 4.84425
332 2 13.4788 2.5978 2.67839
329 1 13.9378 0.807792 3.01973
170 2 5.38924 5.86118 5.48935
15 4 7.68965 3.28585 0.272375
164 2 16.6809 1.18917 7.35191
78 1 4.56967 6.63571 5.33497
208 3 5.562 4.81337 3.34225
330 2 14.837 0.336291 3.60376
334 2 12.9833 0.414529 6.3012
281 3 14.7015 2.67786 16.0323
188 2 8.68226 5.0485 10.1316
49 4 7.61506 5.96806 9.24995
248 3 6.20088 5.43254 9.64581
21 4 8.0356 2.67544 11.3434
42 4 10.761 2.98293 9.95829
193 3 16.7164 0.885845 10.5218
155 2 7.54077 4.94577 12.1947
356 2 11.2206 1.10202 12.5436
237 3 9.53432 3.74585 10.7294
238 3 9.76965 4.2244 16.9746
302 1 10.2793 3.50292 14.2764
305 2 10.4994 2.43671 13.8909
306 2 10.4302 4.21562 13.4913
307 2 9.1763 3.52576 14.5261
300 4 11.0068 4.18166 15.8932
108 2 6.39022 5.81471 12.6364
99 2 5.51062 6.43398 14.642
85 1 5.94951 6.87419 12.9292
314 3 12.0588 3.0629 16.3643
127 2 9.39245 6.81375 11.001
279 4 15.3396 1.28284 15.4903