ITEM: TIMESTEP
0
ITEM: NUMBER OF ATOMS
362
ITEM: BOX BOUNDS xy xz yz pp pp pp
-9.3473434971404981e+00 1.8182033083954039e+01 -9.2300903343314555e+00
1.8064571466808754e-01 1.3574970797197363e+01 7.1851285788880337e-01
7.2471757627983635e-02 1.7514228242371928e+01 6.2771651186538768e-01
ITEM: ATOMS id type x y z
152 2 -1.68971 4.12593 0.920527
142 2 -1.32731 5.79922 1.87834
69 1 -1.42434 2.9995 0.606294
143 2 -0.369256 2.7929 0.462889
2 4 -0.243964 2.91188 5.25873
5 4 2.98973 2.57315 5.53692
23 4 0.583528 5.94522 5.35677
60 1 -0.393485 4.57628 6.03375
61 1 2.74153 2.98473 7.35676
114 2 2.21944 1.87507 3.06692
118 2 0.0316718 4.49166 7.84268
119 2 -1.90305 4.98837 5.54923
121 2 3.19177 4.02505 7.58217
191 3 1.3874 2.55488 5.15946
194 3 -1.10876 2.79368 3.92155
122 2 3.38178 2.10256 7.80459
59 1 2.40522 0.723624 3.06965
211 3 2.0064 6.01044 5.9463
217 3 0.535957 5.85417 3.7708
26 4 3.47253 6.50994 6.93325
218 3 1.21793 4.55538 1.42384
1 4 4.2834 0.722182 2.81965
30 4 0.42582 5.82585 2.20897
200 3 3.95688 3.75639 4.99817
24 4 1.97422 3.85725 0.127614
120 2 1.57757 2.93708 7.40651
192 3 3.75933 0.807151 5.76426
123 2 -1.78364 6.04861 4.28485
283 4 -1.67824 5.04505 7.54831
212 3 4.11373 5.55359 8.25399
164 2 -0.172433 1.46065 7.27589
153 2 2.31389 2.18065 0.306816
320 2 6.09091 0.894624 4.67285
202 3 5.36678 0.979164 7.98406
199 3 5.0078 2.17098 3.0628
14 4 5.38671 3.42403 3.98702
169 2 4.11475 6.35482 4.28605
150 2 3.92683 6.38819 1.22303
151 2 4.29074 3.8916 1.06191
243 3 -3.68642 5.50879 2.6264
175 2 -4.07541 6.31913 6.88868
208 3 5.46025 4.71511 2.94799
72 1 3.77728 3.49695 0.140776
116 2 1.89489 0.301245 2.14731
348 2 1.69362 1.58341 9.05351
287 2 1.61462 4.99053 11.1004
6 4 0.983034 1.44386 11.3715
9 4 -0.245071 4.46525 12.6074
63 1 0.928318 5.93274 11.3112
68 1 2.06384 2.0988 9.96652
89 2 -0.810963 5.65057 11.2875
139 2 2.99985 3.25735 11.2703
140 2 2.13024 3.2044 9.75083
141 2 3.16147 1.6538 10.304
195 3 0.494773 3.11004 12.2227
214 3 0.111049 5.11442 14.1126
215 3 2.00426 4.74856 16.1711
28 4 0.622714 5.63186 15.537
97 2 1.71549 3.02743 13.3954
128 2 1.21101 6.42145 12.2838
280 2 -0.178731 2.45712 14.8011
27 4 3.35571 3.45217 12.9736
216 3 3.8282 4.88006 13.3462
98 2 -0.460093 5.14518 16.782
29 4 4.1921 6.32663 13.5979
156 2 3.86287 1.92122 14.3038
299 2 -2.67337 6.68797 11.4469
173 2 4.16119 5.48757 10.9351
126 2 -1.9789 4.05451 12.6624
136 2 4.82366 1.51543 11.8664
213 3 4.52546 2.11177 13.466
350 2 4.77343 2.40293 17.3104
210 3 4.6478 3.44907 9.60098
67 1 4.99823 0.913971 10.831
25 4 4.90785 4.97529 9.56913
91 2 5.40213 2.94714 14.5003
17 4 5.72767 2.07991 9.45971
20 4 5.6616 3.52492 16.0842
92 2 4.78737 5.16861 16.1395
96 2 6.23778 3.76192 12.1841
117 2 1.10961 6.63847 10.4096
206 3 7.25758 2.34348 10.0222
322 2 0.432047 1.1623 16.2321
205 3 7.2389 3.63643 16.4035
297 2 -1.11588 6.75276 8.87196
66 1 -0.901999 12.8467 8.54659
8 4 -3.78106 7.00981 3.67756
3 4 -4.38079 12.8771 6.66177
198 3 -4.85177 12.762 1.42734
319 2 -3.59002 11.4157 5.92383
10 4 -3.12297 9.69411 2.06174
196 3 -3.66161 8.37088 2.77074
197 3 -4.0911 10.3353 0.998664
285 1 -5.32264 11.1803 7.55989
318 2 -4.25979 12.4269 4.05482
347 2 -5.04479 10.0987 5.99726
178 2 -6.93391 11.0159 4.5301
361 2 -5.78341 9.45031 4.20388
284 4 -4.50874 9.41692 7.54407
81 1 -6.28498 10.3166 3.76876
93 2 -0.446585 7.34971 5.66187
177 2 -5.68585 10.874 2.96912
221 3 3.10188 7.98519 7.27009
349 2 -5.50691 11.9314 8.46022
292 2 -2.75651 9.38875 7.65133
11 4 -4.66323 11.6445 0.231848
289 2 -6.30263 10.8596 7.08292
183 2 -7.06401 12.608 5.86047
83 1 -8.14379 12.1204 5.76643
219 3 -2.64 10.7709 3.20332
134 2 -2.00159 13.1049 8.29717
223 3 1.56707 10.0748 6.46735
157 2 -1.86548 7.5923 1.50396
87 2 -7.18778 12.9647 4.13839
62 1 -2.10209 7.13568 4.64514
74 1 -0.760437 7.50605 1.13669
317 1 -2.63377 12.7736 5.1846
135 2 -0.737551 11.707 8.46022
102 2 -1.00199 10.271 7.20645
147 2 -1.26503 8.51043 8.1802
125 2 -1.47208 7.95468 4.21607
220 3 -0.894642 12.7711 2.85362
70 1 -0.89229 9.69165 8.2239
130 2 -1.65228 9.27302 1.23795
146 2 0.210352 9.71911 8.51399
31 4 -1.67578 11.7827 3.89966
295 3 -1.80591 6.92444 8.11342
222 3 -0.441594 11.0713 4.82322
288 2 -4.94667 7.76298 7.81354
101 2 0.941408 10.1477 1.07173
111 2 0.657339 9.87923 3.17764
253 3 1.12341 9.48227 2.38203
158 2 1.18931 7.19161 1.42624
88 2 -0.12137 8.35304 1.56573
124 2 -2.33283 7.08482 5.75716
100 2 -1.75882 13.1264 5.84738
291 2 -4.95029 10.3053 9.1346
266 3 2.45713 9.15744 15.9939
276 3 -7.43517 13.2014 12.2681
328 2 -6.41734 10.8703 11.0249
138 2 -5.12498 13.0572 10.5374
327 2 -4.99964 12.0549 12.8256
325 1 -6.29543 10.6998 12.1906
277 3 -5.53468 12.0074 17.0352
229 3 -2.79489 12.8533 16.6823
272 4 -6.68206 12.2512 13.2768
273 4 -6.94165 11.5449 16.2668
278 3 -7.01207 12.0828 14.7904
137 2 -3.28188 13.073 10.9756
294 2 -3.7447 8.70093 10.6493
286 1 -3.40737 7.0081 10.6029
358 2 -3.90046 7.43357 16.0745
359 2 -4.7239 9.52915 16.1404
230 3 1.11685 9.1413 13.5506
353 2 -0.624395 13.1791 9.60553
131 2 -1.4817 10.2455 14.3565
129 2 -1.14675 9.69978 16.0769
231 3 -0.457771 11.2223 12.7335
290 2 -2.75625 6.95692 9.54656
103 2 -2.91068 10.1778 15.6764
64 1 -1.76788 10.376 15.4712
228 3 -0.808743 13.0197 14.5816
160 2 -0.0108758 7.77511 11.4232
161 2 -0.582897 9.23711 10.1132
227 3 -0.0648058 11.9144 16.9331
261 3 2.12176 9.66485 8.9818
36 4 -1.3094 12.199 15.9125
19 4 -0.158513 12.8894 13.1692
35 4 1.87021 8.2538 14.7404
37 4 0.650078 10.0367 12.2896
75 1 -0.455534 8.89775 11.3265
162 2 -1.5008 8.99151 11.878
226 3 3.12076 7.3202 14.06
326 2 -5.41568 10.0852 12.4995
159 2 0.128588 7.89571 17.4959
225 3 0.695925 7.20854 15.5657
145 2 -1.5911 10.1644 8.99445
18 4 8.21641 3.39418 5.52646
22 4 6.61558 5.4545 2.02144
39 4 10.754 3.05124 3.55614
94 2 8.10401 4.76555 6.52141
201 3 7.97209 1.76322 0.899612
331 2 13.3235 1.46498 3.69037
204 3 8.66985 2.21541 6.69376
209 3 7.20249 4.33048 1.05516
232 3 10.1934 1.90404 2.57579
233 3 9.46394 3.58617 4.52953
244 3 7.72372 6.28975 2.92605
16 4 9.51768 1.18888 7.57658
13 4 9.13209 0.989354 1.72104
258 3 8.42532 6.1554 7.82066
115 2 16.3693 1.32512 1.62552
174 2 11.0097 4.98898 6.26939
50 4 11.408 6.68422 5.85102
342 2 9.00619 5.88617 0.787058
203 3 6.82694 3.18138 4.80424
354 2 15.9878 0.768753 6.2529
247 3 14.7601 4.07577 8.1614
163 2 15.7629 2.55187 6.84238
7 4 15.6088 2.59938 2.57268
76 1 16.5299 1.64022 6.56141
241 3 11.7322 4.17897 2.79058
245 3 11.7708 6.18194 1.0999
167 2 11.2093 2.59911 5.78964
109 2 12.1584 6.07617 8.24486
45 4 12.7183 5.02946 1.71232
48 4 13.1708 3.69248 8.1408
77 1 11.7906 2.14834 4.89604
80 1 12.4228 5.89659 7.20071
106 2 13.4193 1.86932 8.10282
176 2 12.5471 4.11044 6.50421
234 3 13.1977 1.08192 0.63129
242 3 13.0286 3.82826 0.4242
166 2 11.7307 0.979517 4.8233
165 2 12.9082 2.5835 4.87943
332 2 13.8079 2.79019 2.57056
329 1 14.2792 0.972695 3.02101
170 2 5.65628 6.13502 5.88074
15 4 7.79362 3.18003 0.142953
86 2 16.4229 2.36556 8.39793
281 3 14.9461 2.89762 15.9014
188 2 9.03459 4.78493 10.1805
49 4 7.96072 5.8934 9.31274
248 3 6.47455 5.52876 9.59717
21 4 8.21876 2.54117 11.2258
42 4 11.0394 2.9121 10.008
193 3 17.3206 0.876664 10.6612
155 2 7.88823 4.75318 12.2467
356 2 11.3631 0.99454 12.4626
237 3 9.84219 3.54615 10.8145
238 3 9.85611 4.25514 16.7622
302 1 10.5791 3.50069 14.0172
305 2 10.8305 2.35484 13.8081
306 2 10.9024 4.23684 13.2674
307 2 9.40765 3.66606 14.3335
300 4 11.2144 4.17681 15.7975
108 2 6.55497 5.63083 12.6354
99 2 5.68769 6.51386 14.6646
85 1 6.14104 6.6897 12.8991
314 3 12.268 3.12654 16.4241
127 2 9.27483 6.41043 11.2002
279 4 15.6467 1.11513 15.4791
338 2 11.1951 0.9135 14.3473
73 1 7.31981 3.72052 12.4655
293 2 12.9785 5.96426 10.3598
315 3 11.7969 5.58435 15.2957
40 4 13.7141 3.07369 17.111
246 3 12.2086 4.09984 9.42049
308 2 14.2245 2.09564 13.202
310 2 12.5213 3.67208 13.3462
303 1 13.6907 3.7003 13.0126
104 2 13.9597 4.39853 11.6673
240 3 12.0649 1.92136 11.1848
4 4 16.0439 1.26257 9.68591
44 4 13.6327 2.3669 11.4101
110 2 14.2059 4.30659 13.7844
239 3 14.866 1.98335 10.5549
207 3 8.70529 1.31556 12.0783
321 1 17.4547 1.24648 15.2396
154 2 7.51039 3.13919 13.469
144 2 16.0835 3.28039 17.1819
105 2 5.52533 6.59354 17.0587
301 4 12.3321 7.05548 14.7541
236 3 10.4878 1.95884 8.80201
133 2 8.3701 12.1689 7.99707
340 1 9.16132 6.85925 0.188617
224 3 0.947505 12.8442 6.55055
33 4 2.70175 9.48348 7.50682
65 1 8.77256 11.37 8.6905
82 1 2.39562 11.6189 4.51992
180 2 2.22447 12.525 3.76561
52 4 2.84387 10.3485 3.20891
179 2 3.41346 11.7659 5.25069
254 3 3.45275 11.3086 2.05879
264 3 3.77176 9.28128 3.90364
181 2 4.28412 10.3879 7.51771
12 4 7.43413 10.0264 8.63445
184 2 9.42624 11.1436 6.43921
187 2 3.8261 9.12508 0.465704
78 1 4.78691 6.79438 5.71325
362 3 0.780891 12.8561 0.657163
41 4 4.49013 12.807 8.25086
249 3 12.5339 7.03269 4.78155
250 3 7.81082 7.1081 5.56021
352 2 9.68313 10.6622 8.30025
46 4 7.86695 7.52396 3.92285
335 2 6.09116 12.204 6.49934
333 1 4.99735 11.8241 6.49698
355 2 4.87153 11.2346 5.5564
38 4 4.57759 12.6735 1.62813
51 4 9.97872 9.54 2.5719
54 4 8.64406 7.48563 6.87552
56 4 4.8927 8.23746 4.37919
113 2 5.20162 8.5289 6.19901
251 3 8.99521 8.6399 3.54375
252 3 10.7418 8.70058 1.43622
256 3 8.95521 10.9431 1.95372
257 3 6.13314 12.0332 0.996155
259 3 10.3466 7.77919 6.47196
260 3 8.04172 8.89887 7.82453
265 3 6.28448 8.30135 3.61468
90 2 6.08435 10.7282 7.63037
47 4 11.0008 7.38177 0.424048
53 4 7.72758 10.8697 0.899336
343 1 6.93323 9.15661 0.913415
345 2 7.43226 8.48535 1.66273
344 2 5.85752 9.44519 1.33797
341 2 8.35129 7.7161 0.394822
71 1 4.73672 6.71882 0.534058
112 2 9.24962 11.8648 4.6747
149 2 5.79165 6.75871 1.0905
148 2 4.45129 7.78276 0.133153
34 4 0.997206 11.4471 5.73726
182 2 8.63325 12.877 6.09901
334 2 4.05374 13.0982 6.27752
330 2 5.72502 13.0127 3.65478
336 1 1.76389 13.1251 13.4375
262 3 3.43206 12.0672 9.1487
337 2 2.08792 12.0054 13.4885
55 4 3.00172 10.6305 10.157
57 4 3.47557 10.5875 15.745
324 2 6.64528 12.8588 16.9251
268 3 2.55753 11.8551 16.1761
351 2 3.54112 12.6159 12.655
270 3 4.3261 9.81005 10.6226
267 3 4.244 10.6893 14.3624
316 3 12.8312 7.30346 13.2013
107 2 8.40777 7.4368 12.5808
263 3 2.00376 10.8668 11.3284
32 4 1.45499 12.1552 17.3155
274 2 10.2292 10.1926 12.5769
339 1 12.3768 8.54375 16.138
84 1 4.95384 10.2635 16.9609
172 2 10.2778 7.36351 12.5127
171 2 8.17547 7.33019 10.2448
255 3 9.21352 11.7008 16.9325
275 2 10.9084 9.84588 16.1262
132 2 8.8331 11.6411 9.75121
79 1 9.33273 7.3958 11.8737
185 2 5.50125 11.2685 17.2723
282 3 5.66718 12.9336 14.44
186 2 5.73693 9.51049 16.4162
168 2 9.35151 8.35377 11.1749
298 2 11.1001 7.8536 11.0521
311 2 6.92438 9.57425 15.2651
309 2 8.25475 8.32258 15.6675
304 1 7.14466 8.45246 15.4418
296 4 12.6927 7.47851 11.6274
346 2 7.45711 9.30352 17.281
312 2 6.81128 7.8378 14.4742
43 4 4.90943 11.8753 13.4259
58 4 5.71637 9.94565 11.321
189 2 7.03856 7.44801 12.8871
190 2 5.79596 8.58245 12.4368
269 3 7.02802 9.71763 10.2779
271 3 5.75186 11.3701 12.2047
313 2 6.47016 8.03744 16.3635
357 2 11.0622 8.41103 15.0572
95 2 5.04446 7.07473 11.868
235 3 5.95818 12.8594 8.90618
360 2 9.85144 7.28578 16.5732
323 2 8.41414 13.2472 14.366
ITEM: TIMESTEP
100
ITEM: NUMBER OF ATOMS
362
ITEM: BOX BOUNDS xy xz yz pp pp pp
-9.3473434971404981e+00 1.8182033083954039e+01 -9.2300903343314555e+00
1.8064571466808754e-01 1.3574970797197363e+01 7.1851285788880337e-01
7.2471757627983635e-02 1.7514228242371928e+01 6.2771651186538768e-01
ITEM: ATOMS id type x y z
152 2 -1.64467 4.07004 0.916506
142 2 -1.11969 5.86392 1.61946
69 1 -1.37539 2.97776 0.565688
143 2 -0.296471 2.75348 0.46154
2 4 -0.328043 2.91802 5.20678
5 4 3.0052 2.63327 5.76627
23 4 0.780781 5.80315 5.23511
60 1 -0.362309 4.59068 5.96809
61 1 2.80005 3.11994 7.47599
114 2 2.35251 1.94972 3.12477
118 2 0.0453143 4.13468 7.58257
119 2 -1.90904 5.24722 5.64767
121 2 3.30135 4.1448 7.80925
191 3 1.47362 2.58408 5.13309
194 3 -1.17963 2.72531 3.76907
122 2 3.32736 2.18713 7.97653
59 1 2.46481 0.817897 3.09684
211 3 2.1204 5.86285 6.08776
217 3 0.848836 5.60562 3.64071
26 4 3.41409 6.49868 6.80621
218 3 1.21557 4.61714 1.10881
1 4 4.27106 0.644153 2.84099
30 4 0.607447 5.70825 2.09902
200 3 4.23815 3.46462 5.13643
203 3 6.78083 3.09031 4.88808
120 2 1.64921 3.06955 7.7482
192 3 3.80147 0.838367 5.89249
123 2 -1.57099 6.19367 4.00039
283 4 -1.61983 5.14953 7.50673
212 3 4.11953 5.627 8.18131
164 2 -0.0869378 1.64675 7.24605
153 2 2.4548 2.08508 0.0990981
320 2 6.19143 0.940709 4.79685
202 3 5.5283 0.878099 7.96949
199 3 4.90101 2.18531 2.97258
14 4 5.47959 3.44681 4.03893
169 2 3.99945 6.31696 4.29907
87 2 2.19048 0.359204 4.17356
151 2 4.07499 3.81374 1.07009
243 3 -3.79346 5.6224 2.54454
86 2 -0.969785 2.47175 8.47272
116 2 1.77741 0.339338 2.33132
348 2 1.69363 1.36412 9.07755
287 2 1.21635 4.89934 11.0979
6 4 0.820912 1.54163 11.3722
9 4 -0.339579 4.34428 12.786
63 1 0.752589 5.88162 11.451
68 1 2.07855 1.89447 10.0108
89 2 -0.883446 5.7155 11.4331
139 2 3.12887 3.09664 11.2445
140 2 2.03991 3.04998 9.89798
141 2 3.2362 1.46152 10.3579
195 3 0.515573 3.08926 12.2587
214 3 0.0129576 4.90503 14.1878
215 3 1.99504 4.80967 15.9193
28 4 0.478463 5.51888 15.5313
97 2 2.00105 3.03893 13.4533
128 2 1.17796 6.25166 12.5241
24 4 2.60015 4.4644 17.3087
27 4 3.51894 3.3507 12.866
216 3 3.89747 4.81888 13.2547
98 2 -0.736467 5.04644 16.6571
29 4 4.23383 6.41285 13.5671
156 2 4.00368 1.83577 14.2727
299 2 -2.47987 6.79579 11.6294
173 2 4.04023 5.50887 10.6935
207 3 8.585 1.27632 12.1831
136 2 4.98274 1.41867 11.8418
213 3 4.72273 2.244 13.3851
350 2 4.89097 2.31664 17.2344
210 3 4.80783 3.31203 9.4039
67 1 5.10781 0.787455 10.7621
25 4 4.85009 4.9287 9.38848
91 2 5.44063 3.0451 14.4882
17 4 5.75124 1.98905 9.45658
20 4 5.67613 3.58049 16.1414
92 2 4.89113 5.30588 16.1748
297 2 -0.741717 6.68673 8.87654
117 2 0.96736 6.71809 10.7264
206 3 7.18954 2.24564 10.0138
322 2 0.367686 1.70714 15.9021
205 3 7.22291 3.67511 16.5608
154 2 7.04421 3.22821 13.3314
72 1 4.40133 4.11047 17.5091
280 2 -0.316786 1.80296 14.1305
66 1 -0.890828 12.8779 8.56996
8 4 -3.74583 7.02867 3.50918
3 4 -4.41318 12.7749 6.80476
198 3 -4.79894 12.8455 1.418
319 2 -3.54985 11.3196 6.13146
10 4 -3.17323 9.72134 2.0506
196 3 -3.75207 8.38482 2.67383
197 3 -4.20409 10.2782 1.03979
285 1 -5.40324 10.9351 7.36259
318 2 -4.17552 12.4054 4.10243
347 2 -4.58516 9.72465 6.11386
178 2 -6.93596 11.0991 4.73428
361 2 -6.02965 9.41904 4.42351
284 4 -4.54272 9.33152 7.90136
81 1 -6.40816 10.3657 3.9484
93 2 -0.362562 7.10555 5.47848
177 2 -5.65382 10.9446 3.3636
221 3 3.10982 8.03715 7.10551
349 2 -5.72496 11.6177 8.27891
292 2 -2.87843 9.42046 8.45882
11 4 -4.75393 11.6056 0.305348
289 2 -6.31432 10.6822 6.747
183 2 -6.96176 12.895 5.86483
83 1 -8.00195 12.3713 5.92526
219 3 -2.72417 10.6235 3.33265
182 2 -8.86698 13.1386 6.25107
223 3 1.6298 10.1036 6.27923
157 2 -1.58537 7.61401 1.77285
159 2 -0.7755 7.82401 0.117028
62 1 -2.04108 7.12414 4.46538
74 1 -0.607317 7.67369 1.25704
317 1 -2.70066 12.7712 5.29892
135 2 -0.660676 11.6958 8.41771
102 2 -1.10542 10.0226 7.0433
147 2 -1.3304 8.60075 8.2669
125 2 -1.50773 8.09836 4.34159
220 3 -0.952177 12.6016 2.94728
70 1 -0.955831 9.70692 8.15544
130 2 -1.72549 9.29398 1.19527
146 2 0.226599 9.64086 8.46647
31 4 -1.61549 11.7117 4.11675
295 3 -1.66063 6.86835 8.33777
222 3 -0.365754 11.134 5.02439
134 2 -1.93482 13.1158 8.27898
101 2 0.966786 10.417 1.17156
111 2 0.713046 10.0168 3.26148
253 3 1.24117 9.52052 2.49707
158 2 1.27779 7.20129 1.48793
88 2 0.111027 8.46279 1.79347
124 2 -2.53682 7.10389 5.52585
100 2 -1.84319 12.9872 6.03857
150 2 3.88474 6.64179 1.44717
291 2 -5.7402 10.0451 9.03174
266 3 2.42169 9.28441 15.8645
276 3 -7.69277 13.254 12.3862
328 2 -5.74259 10.9194 11.1561
138 2 -5.04666 13.0132 10.5428
327 2 -5.05199 12.3088 12.6915
325 1 -6.06265 10.6712 12.178
277 3 -5.52301 11.9391 16.9655
229 3 -2.93959 12.6069 16.5859
272 4 -6.78406 12.1828 13.1302
273 4 -6.87992 11.5611 16.1274
278 3 -6.841 11.8883 14.6269
137 2 -3.23503 12.8001 10.8257
294 2 -3.53785 8.71367 11.0786
286 1 -3.17012 7.10376 10.8355
358 2 -3.75701 7.66806 15.8897
359 2 -4.90505 9.66505 16.1907
230 3 1.08768 9.16862 13.5124
353 2 -0.527038 13.2628 9.60937
131 2 -1.47326 10.6127 14.1595
129 2 -1.0888 9.73064 15.7627
231 3 -0.421649 11.3229 12.6064
290 2 -2.55042 6.99632 9.80246
103 2 -2.90562 10.1534 15.3161
64 1 -1.75709 10.456 15.2472
228 3 -0.844167 13.0982 14.7251
160 2 -0.0499421 7.73448 11.3699
161 2 -0.724134 9.08184 10.0979
227 3 -0.115823 11.9034 16.9571
261 3 1.91793 9.58703 8.90035
36 4 -1.40928 12.2145 16.0143
19 4 -0.156809 12.9147 13.2489
35 4 1.75497 8.22092 14.7812
37 4 0.494973 9.95714 12.2329
75 1 -0.559555 8.826 11.2136
162 2 -1.57422 8.94599 11.8
226 3 3.05305 7.34024 14.2079
326 2 -5.23629 10.1039 12.7145
145 2 -1.50741 10.39 8.86333
225 3 0.6199 7.13579 15.419
263 3 1.81526 10.6767 11.2077
18 4 8.14575 3.4415 5.57475
22 4 6.86312 5.38635 2.16226
39 4 10.6289 3.05879 3.63417
94 2 7.95642 4.89962 6.40234
201 3 8.1155 1.93239 1.09223
331 2 13.3568 1.30701 3.81101
204 3 8.62846 2.2004 6.52209
209 3 7.34242 4.34476 1.14657
232 3 10.169 1.78671 2.78985
233 3 9.41719 3.63853 4.59351
244 3 8.09464 6.02505 2.96796
16 4 9.58068 1.12013 7.53796
13 4 9.08088 0.958275 1.87199
258 3 8.37237 5.81537 7.81784
115 2 16.2111 1.22004 1.43778
174 2 11.1745 4.85413 6.04924
50 4 11.3874 6.59279 5.79269
342 2 9.18773 5.90236 0.70408
78 1 4.83956 6.65426 5.64913
354 2 16.0119 0.784656 6.22965
247 3 14.7124 4.20454 8.08484
163 2 15.792 2.62887 6.93325
7 4 15.5345 2.45534 2.47786
76 1 16.5263 1.76468 6.61587
241 3 11.4629 4.04208 2.66375
245 3 11.9136 6.25739 0.975154
167 2 11.3995 2.6321 5.80369
109 2 11.8703 6.218 8.22103
45 4 12.6539 4.913 1.70124
48 4 13.1928 3.83558 8.24199
77 1 11.9336 2.28153 4.86425
80 1 12.2977 5.81393 7.27261
106 2 13.2912 1.97775 8.29113
176 2 12.5349 3.93002 6.66685
234 3 13.2139 1.0674 0.643295
242 3 13.2788 3.80919 0.712544
166 2 11.9614 1.15176 4.75308
165 2 12.9979 2.76404 4.68187
332 2 13.7828 2.6325 2.71001
329 1 14.2895 0.788004 3.06655
170 2 5.70598 5.94021 5.82745
15 4 7.81225 3.25106 0.180233
175 2 13.3324 6.26146 7.03098
236 3 10.5673 1.96914 8.64493
208 3 5.70219 4.82481 3.26839
281 3 14.9396 2.8238 15.904
188 2 8.86113 4.66818 9.94008
49 4 7.82359 5.92578 9.26185
248 3 6.33253 5.54834 9.481
21 4 8.23721 2.58426 11.4019
42 4 10.9553 2.82014 9.92652
193 3 17.269 0.870355 10.5776
155 2 8.16894 4.68229 12.7944
356 2 11.482 1.0695 12.5394
237 3 9.79171 3.60254 10.6825
238 3 9.85489 4.39852 16.6934
302 1 10.5052 3.5081 14.1058
305 2 10.7164 2.40281 13.8841
306 2 10.857 4.08835 13.2156
307 2 9.37745 3.61758 14.3265
300 4 11.1807 4.21395 15.8262
108 2 6.65076 5.80879 12.7259
99 2 5.71141 6.66053 14.7246
85 1 6.21241 6.90695 12.9984
314 3 12.3336 3.11317 16.2292
127 2 9.23949 6.44258 10.9925
279 4 15.5154 1.17844 15.5656
338 2 11.3389 0.804798 14.4249
73 1 7.40161 3.91566 12.4043
293 2 13.2621 5.83813 10.7661
315 3 11.848 5.59963 15.4528
40 4 13.6762 3.08636 17.0785
246 3 12.0945 4.10421 9.4635
308 2 14.0118 2.02261 13.279
310 2 12.4702 3.55008 13.71
303 1 13.7049 3.48482 13.3302
104 2 13.5679 4.46628 11.7866
240 3 12.0411 2.01106 11.195
4 4 15.869 1.38798 9.62199
44 4 13.5529 2.69764 11.4228
110 2 14.3914 4.03389 14.0433
239 3 14.8289 2.13774 10.5506
126 2 15.6065 3.82282 12.8355
321 1 17.3148 1.22981 15.0985
144 2 16.2198 3.25696 17.1485
105 2 5.46817 6.68421 17.3488
96 2 6.52711 4.28005 11.734
133 2 8.30341 12.3322 8.47386
340 1 9.1452 6.81928 0.0809287
224 3 1.09588 12.758 6.70689
33 4 2.66092 9.49805 7.43999
65 1 8.83884 11.3436 8.76065
82 1 2.49577 11.7082 4.41735
180 2 2.23216 12.5959 3.72607
52 4 2.9233 10.4155 3.18297
179 2 3.50721 11.8603 5.23108
254 3 3.60282 11.4316 2.05441
264 3 3.87769 9.10512 3.89665
181 2 4.07208 10.4738 7.31536
12 4 7.41917 10.1389 8.62162
184 2 9.66344 11.5367 6.68807
187 2 3.75507 9.24902 0.358036
34 4 1.07035 11.4787 5.69705
148 2 4.56933 7.93911 0.24333
41 4 4.41597 12.9338 8.2335
249 3 12.5359 7.03986 4.75667
250 3 7.97064 7.18683 5.56294
352 2 9.66775 11.0281 8.00122
46 4 7.99104 7.51254 3.86174
335 2 6.07406 12.2655 6.46473
333 1 4.99599 11.9598 6.48793
355 2 4.83335 11.2457 5.65376
38 4 4.53943 12.6351 1.5773
51 4 9.9746 9.66929 2.69681
54 4 8.66427 7.42833 6.92718
56 4 4.96541 8.07231 4.31831
113 2 5.43625 8.29097 6.1457
251 3 9.15673 8.60678 3.50438
252 3 10.6911 8.77029 1.33121
256 3 8.83151 11.0437 2.07994
257 3 6.2343 11.9519 0.948136
259 3 10.2583 7.43063 6.63399
260 3 8.05634 8.73589 7.8433
265 3 6.41171 8.16554 3.54976
90 2 6.28151 10.944 7.58131
47 4 10.9563 7.44299 0.416924
53 4 7.86625 11.0243 0.808025
343 1 7.14821 9.27152 0.900562
345 2 7.7614 8.67434 1.63738
344 2 6.17133 9.48999 1.46144
341 2 8.36651 7.74285 0.369399
71 1 4.72178 6.85204 0.684071
149 2 5.91601 6.73733 1.35701
330 2 5.7654 12.7953 3.59533
362 3 0.786591 12.8613 0.759838
288 2 12.512 7.65385 7.92632
235 3 5.99263 12.9163 8.76226
112 2 9.25226 11.8734 4.94491
334 2 3.97484 13.1446 6.22376
336 1 1.7707 13.1822 13.3797
262 3 3.29173 12.0145 9.13241
337 2 1.96485 11.9902 13.2795
55 4 2.90686 10.7103 10.0532
57 4 3.39553 10.5727 15.767
324 2 7.00513 13.248 16.993
268 3 2.53162 12.0149 16.2344
351 2 3.66767 12.8708 12.788
270 3 4.25564 9.97801 10.4996
267 3 4.19108 10.7447 14.2362
316 3 12.6681 7.37798 13.2895
107 2 8.16949 7.8082 11.9728
323 2 8.46497 12.8731 14.9449
32 4 1.42031 12.1919 17.3792
274 2 10.514 10.0925 12.2553
339 1 12.2564 8.60631 16.1649
84 1 4.92209 10.3791 16.9207
172 2 10.0042 7.37483 12.41
171 2 8.18831 7.47062 9.91264
255 3 9.29835 11.8922 16.7459
275 2 10.7531 9.82848 16.1544
132 2 9.18229 11.3518 9.76557
79 1 9.26481 7.45846 11.5568
185 2 5.36777 11.3817 17.3026
282 3 5.57043 12.9724 14.5919
186 2 5.74454 9.75558 16.4136
168 2 9.62568 8.31429 10.8376
298 2 11.1523 7.83076 11.0965
311 2 7.01781 9.63164 15.3165
309 2 8.3212 8.32071 15.756
304 1 7.15616 8.56459 15.538
296 4 12.7407 7.48636 11.6762
346 2 7.60255 9.36703 17.3249
312 2 6.86472 7.95613 14.619
43 4 4.96513 11.8892 13.4481
58 4 5.67486 10.0399 11.2032
189 2 7.0322 7.67197 12.9121
190 2 5.80345 8.64339 12.1837
269 3 6.84838 9.89388 10.1038
271 3 5.92534 11.3226 12.3373
313 2 6.49073 8.1688 16.5099
357 2 10.9569 8.35498 15.013
95 2 4.79986 7.14402 11.9429
360 2 10.1008 7.23091 16.4069
301 4 12.3933 7.09967 14.888
ITEM: TIMESTEP
200
ITEM: NUMBER OF ATOMS
362
ITEM: BOX BOUNDS xy xz yz pp pp pp
-9.3473434971404981e+00 1.8182033083954039e+01 -9.2300903343314555e+00
1.8064571466808754e-01 1.3574970797197363e+01 7.1851285788880337e-01
7.2471757627983635e-02 1.7514228242371928e+01 6.2771651186538768e-01
ITEM: ATOMS id type x y z
152 2 -1.65092 4.12866 1.15243
142 2 -0.91529 5.83835 1.90936
69 1 -1.36415 3.0641 0.660394
143 2 -0.291746 2.9806 0.394018
2 4 -0.220271 2.82379 5.32482
5 4 3.02133 2.50885 5.82356
23 4 0.743199 5.813 5.15057
60 1 -0.382906 4.6258 5.86279
61 1 2.68646 3.0421 7.53515
114 2 2.22989 2.06471 3.0285
118 2 0.207281 4.4445 7.50973
119 2 -1.90309 5.32693 5.68578
121 2 3.22283 4.06735 7.80506
191 3 1.48053 2.43324 5.23894
194 3 -1.03811 2.71449 3.91054
122 2 3.21138 2.13287 8.15975
59 1 2.42055 0.879775 3.00668
211 3 1.91399 5.9782 6.17036
217 3 1.11786 5.72207 3.62329
26 4 3.36725 6.50122 6.65214
218 3 1.39483 4.80987 0.965934
1 4 4.2888 0.789894 2.73991
30 4 0.863764 5.81583 2.11271
200 3 4.13068 3.60372 5.1348
203 3 6.92704 2.99497 4.87409
120 2 1.52582 3.14988 7.66713
192 3 3.77279 0.700671 6.00294
123 2 -1.74891 6.13537 4.20929
283 4 -1.58987 5.16009 7.49784
212 3 3.97357 5.47042 8.19542
164 2 -0.128752 1.72047 7.42616
153 2 2.43346 2.21757 0.406754
320 2 5.92317 0.907596 4.63066
202 3 5.78786 0.727363 8.11664
199 3 5.03619 2.29225 3.00304
14 4 5.47352 3.42617 4.07241
169 2 3.90678 6.50456 3.87815
295 3 -1.50431 6.82619 8.36741
151 2 4.22647 3.89352 1.0417
116 2 2.0344 0.466102 2.05536
86 2 -1.12527 2.57925 8.4136
150 2 4.22174 6.25555 1.27942
100 2 7.35078 0.41365 5.86685
348 2 1.66194 1.33861 9.19397
287 2 1.28167 5.05957 11.2129
6 4 0.717976 1.37364 11.4064
9 4 -0.530111 4.38398 12.6884
63 1 0.672125 5.87867 11.4437
68 1 2.02937 1.84556 10.1795
89 2 -0.965992 5.45247 11.1305
139 2 3.29679 3.11804 11.0622
140 2 1.84329 3.01215 10.1837
141 2 3.21376 1.49192 10.4473
195 3 0.191874 3.01636 12.3436
214 3 -0.120565 5.0881 14.0742
215 3 1.97206 4.66353 15.804
28 4 0.644806 5.55943 15.4601
97 2 1.76629 3.17149 13.0183
128 2 0.915879 6.26985 12.4604
24 4 2.67498 4.50662 17.2516
27 4 3.38041 3.34106 12.7893
216 3 3.8131 4.8351 13.1154
98 2 -0.369098 5.18944 16.8176
29 4 4.14629 6.36354 13.3898
156 2 3.97683 1.83375 13.9179
154 2 7.04704 3.27583 13.2496
173 2 4.13809 5.17802 10.8773
280 2 -0.14551 2.12848 14.0399
136 2 4.80595 1.34226 11.7024
213 3 4.78601 2.19005 13.3438
350 2 4.78229 2.36687 17.3557
210 3 4.8837 3.26567 9.33857
67 1 5.07335 0.70268 10.7612
25 4 4.90872 4.84815 9.42742
91 2 5.35489 2.8784 14.6313
17 4 5.73529 1.89599 9.37288
20 4 5.79902 3.48677 16.2469
92 2 4.96341 5.23526 16.1635
297 2 -0.62742 6.57116 8.93623
117 2 0.958979 6.64868 10.6563
206 3 7.14238 2.13914 9.93263
322 2 0.20034 2.0495 15.8809
205 3 7.28292 3.59313 16.7038
96 2 6.3175 4.02368 11.6044
126 2 -2.26556 4.3384 12.7255
72 1 4.46342 4.1578 17.5059
66 1 -0.715522 12.7714 8.50666
8 4 -3.96001 6.91799 3.43498
3 4 -4.33312 12.6475 6.71626
198 3 -4.92887 12.7247 1.45193
319 2 -3.58038 11.2783 5.65172
10 4 -3.07667 9.71291 2.13691
196 3 -3.74716 8.304 2.67547
197 3 -4.07535 10.3238 1.1175
285 1 -5.13559 10.9315 7.39097
318 2 -4.34097 12.5094 4.02719
347 2 -4.0789 9.6442 6.37036
178 2 -6.88602 10.9384 4.63204
361 2 -5.92068 9.22556 4.51672
284 4 -4.34362 9.27759 8.06969
81 1 -6.23925 10.1656 3.99181
93 2 -0.553319 7.09891 5.27667
177 2 -5.38161 10.5492 3.42397
221 3 3.20327 7.99047 7.04962
349 2 -5.89026 11.52 8.05711
292 2 -2.6154 9.18541 8.38703
11 4 -4.64893 11.5975 0.336739
289 2 -5.76646 10.3619 6.59721
183 2 -7.00929 12.6955 5.82101
83 1 -8.10191 12.2086 5.67235
219 3 -2.67021 10.6515 3.31983
182 2 -8.89057 13.0615 6.05956
223 3 1.56502 10.1359 6.40698
157 2 -1.55302 7.5589 1.87239
159 2 -0.48043 7.82955 0.302784
62 1 -2.23989 7.15057 4.34544
74 1 -0.534873 7.6302 1.37868
317 1 -2.80115 12.8296 5.21654
135 2 -0.554954 11.5958 8.37932
102 2 -0.729165 9.8708 6.92746
147 2 -1.06873 8.48399 8.15183
125 2 -1.59969 8.02075 3.95736
220 3 -1.09022 12.7803 2.91433
70 1 -0.708699 9.61021 8.09004
130 2 -1.70169 9.25587 1.27533
146 2 0.409501 9.6677 8.46299
31 4 -1.6856 11.7982 3.95556
145 2 -1.37875 10.4151 8.69152
222 3 -0.570998 11.1597 4.89339
134 2 -1.87456 13.0902 8.31448
101 2 0.998069 10.4105 1.2632
111 2 0.756625 10.1875 3.22526
253 3 1.26642 9.61913 2.62427
158 2 1.39493 7.45579 1.67783
88 2 0.0632678 8.44127 1.97336
124 2 -2.77673 7.21843 5.41175
112 2 -8.29475 11.9404 4.60781
87 2 -7.21471 13.0669 4.04394
291 2 -5.05305 10.4699 9.21127
266 3 2.48732 9.23286 15.8228
276 3 -7.60444 13.0075 12.2427
328 2 -5.03878 10.9699 11.3186
138 2 -5.11714 12.9657 10.2958
327 2 -4.92835 12.2777 12.5841
325 1 -5.99415 10.7129 11.9461
277 3 -5.37182 12.0383 16.9406
229 3 -2.78532 12.5775 16.6512
272 4 -6.61108 12.0951 13.0705
273 4 -6.74141 11.5632 16.2686
278 3 -6.73076 11.8655 14.6574
137 2 -3.30015 12.7066 10.9271
294 2 -3.71184 8.85539 10.9308
286 1 -3.18992 7.26404 10.824
358 2 -3.77288 7.51689 16.1051
359 2 -4.91812 9.62201 16.104
230 3 1.09406 9.03754 13.3935
353 2 -0.374759 13.1326 9.52014
131 2 -1.3447 10.311 14.1974
129 2 -1.43718 9.52392 15.9635
231 3 -0.287901 11.393 12.6172
290 2 -2.517 7.11925 9.84168
103 2 -2.92947 10.2845 15.1531
64 1 -1.84711 10.3572 15.2043
228 3 -0.87401 13.0569 14.7535
160 2 0.00666657 7.78397 11.279
161 2 -0.608479 9.13709 10.0496
227 3 -0.256059 11.64 17.1094
261 3 2.16112 9.60809 8.91122
36 4 -1.36595 12.0792 16.0287
19 4 -0.150044 12.9619 13.302
35 4 1.82282 8.17326 14.6204
37 4 0.585828 10.0909 12.2074
75 1 -0.448096 8.88877 11.1802
162 2 -1.4188 9.01979 11.7713
226 3 3.05075 7.34863 13.8959
326 2 -5.80926 9.85062 12.7421
263 3 1.67471 10.6815 11.2148
225 3 0.783809 7.209 15.5881
299 2 -2.55185 7.04146 11.7629
18 4 8.33307 3.23584 5.56035
22 4 6.95257 5.45761 2.32597
39 4 10.6615 3.12361 3.63414
94 2 8.06266 4.50945 6.61925
201 3 8.11498 1.9813 1.12227
331 2 13.4271 1.29403 3.75111
204 3 8.79065 2.10119 6.63387
209 3 7.50813 4.47782 1.21258
232 3 10.0712 1.76162 3.00001
233 3 9.55173 3.82879 4.69088
244 3 8.18354 6.16228 3.08113
16 4 9.65939 1.10774 7.47831
13 4 9.00539 0.966476 2.01298
258 3 8.40909 5.75904 7.74346
115 2 16.1373 1.29687 1.44565
174 2 10.9296 4.97562 6.21269
50 4 11.2869 6.63121 5.79815
342 2 9.04449 6.03126 0.817341
78 1 4.53916 6.6844 5.27916
354 2 16.1831 0.643996 6.67329
247 3 14.7027 4.28027 8.00381
163 2 15.6893 2.48473 6.88047
7 4 15.64 2.46907 2.63451
76 1 16.5815 1.67563 6.67091
241 3 11.581 4.05856 2.72884
245 3 11.6279 6.06538 0.939056
167 2 11.3518 2.61965 5.86796
109 2 12.0607 6.08772 8.26253
45 4 12.436 4.79916 1.67041
48 4 13.1952 3.82132 8.12709
77 1 11.9052 2.25119 4.90595
80 1 12.3494 5.89903 7.19934
106 2 13.3034 1.99466 8.16102
176 2 12.4451 4.03039 6.59746
234 3 13.1114 0.954368 0.654484
242 3 13.208 3.83415 0.629434
166 2 11.9365 1.11177 4.84778
165 2 12.8809 2.74812 4.84697
332 2 13.8534 2.68969 2.81554
329 1 14.2586 0.854055 3.01834
170 2 5.22763 5.77731 5.43567
15 4 7.81178 3.26139 0.25732
175 2 13.3785 6.41366 6.9608
236 3 10.5875 2.02695 8.73148
208 3 5.74304 4.75242 3.28732
330 2 15.1139 0.454111 3.60273
334 2 13.3222 0.537635 6.31916
243 3 13.7673 5.51498 2.63944
281 3 14.9877 2.65868 16.0516
188 2 8.896 5.06238 10.1712
49 4 7.79665 5.86553 9.17492
248 3 6.35252 5.36206 9.5199
21 4 8.27536 2.68223 11.3274
42 4 10.9744 2.92679 9.94074
193 3 17.0588 0.914376 10.4982
155 2 7.77217 4.93996 12.3627
356 2 11.3101 1.19991 12.5959
237 3 9.67782 3.76685 10.7119
238 3 9.98016 4.16512 16.8775
302 1 10.4999 3.5163 14.279
305 2 10.7843 2.39854 13.9107
306 2 10.6348 4.19212 13.4324
307 2 9.3817 3.59175 14.4385
300 4 11.1982 4.16946 15.9066
108 2 6.53002 5.85547 12.5244
99 2 5.70696 6.43798 14.5258
85 1 6.09724 6.9036 12.8906
314 3 12.289 3.0651 16.4236