ITEM: TIMESTEP
0
ITEM: NUMBER OF ATOMS
365
ITEM: BOX BOUNDS xy xz yz pp pp pp
-5.5659876451833972e+00 1.7655595785470826e+01 -6.4428994818558056e+00
2.2801361211990781e-01 1.4716444095915433e+01 9.1810762214320507e-01
-1.1415923741646239e-02 1.7475615923741696e+01 -3.9342291964563701e-02
ITEM: ATOMS id type x y z
68 1 -0.977762 5.60841 4.28911
8 4 -0.0202607 4.07078 1.15888
107 3 0.637631 4.82926 6.68417
4 4 0.308474 4.61964 5.14524
10 4 1.29439 4.47707 8.24601
105 3 0.681409 2.78023 0.682379
102 3 1.82877 0.501123 1.871
120 3 1.49763 4.43801 4.18018
206 2 1.07023 5.51012 1.11769
260 2 1.10281 7.32458 0.339206
2 4 1.52695 1.44996 0.406842
34 4 4.50066 7.39131 6.1844
200 2 0.265051 6.89746 7.45234
119 3 2.24272 1.74385 4.19474
204 2 7.36806 3.41936 4.74519
252 2 2.65542 5.61948 3.03501
253 2 3.98877 6.70864 2.30424
254 2 2.34982 6.61529 1.37881
190 2 4.21874 1.8152 8.3477
21 4 2.80581 3.28516 4.26932
29 4 4.8659 3.89688 1.75414
78 1 2.88214 6.53797 2.43222
79 1 3.80073 4.56624 0.364988
123 3 3.69935 3.54998 5.61808
129 3 3.88458 3.46134 2.978
136 3 4.89796 6.05874 7.96625
25 4 5.2454 4.01849 5.85813
130 3 5.76722 2.84668 0.921214
133 3 5.64832 3.42985 7.71946
164 3 5.84263 5.15014 2.38615
247 2 5.79556 2.43704 4.2441
165 3 5.67455 5.7714 5.34965
257 2 3.92362 5.66117 0.389351
255 2 2.76362 4.23452 0.82291
328 2 4.7849 1.06211 3.05993
76 1 6.46383 2.85283 5.14113
1 4 2.48798 0.361398 3.30542
246 2 6.723 2.09696 5.95348
288 2 7.05148 2.6423 7.76381
121 3 7.52604 0.837285 1.00506
20 4 8.63948 0.498208 2.05006
106 3 1.82999 2.96682 8.50004
345 2 1.55022 0.374717 7.93181
11 4 -0.706639 7.47104 4.04744
271 2 -1.16631 6.55722 7.54261
33 4 3.59069 6.56204 8.7234
22 4 6.48277 1.55188 0.00259823
134 3 2.2318 5.67934 8.68466
168 3 7.13956 4.96687 9.29287
71 1 -0.0898034 4.77722 9.53537
259 2 3.15523 5.76091 17.356
12 4 0.853921 3.69221 13.5254
111 3 0.846492 4.97042 12.6086
110 3 0.979162 2.16238 12.8519
13 4 0.937236 6.41735 12.1117
227 2 1.43553 4.15075 15.7802
196 2 0.74028 6.38568 10.4202
261 2 1.47485 5.9783 16.5364
69 1 2.08368 4.02981 14.8413
103 3 1.92341 1.07518 10.7087
228 2 2.6483 5.04001 14.5427
35 4 5.02944 7.31175 11.4452
173 3 5.54739 7.07047 16.2419
155 3 8.24699 2.09796 10.1823
207 2 0.246481 4.67031 10.5995
128 3 7.28919 0.535241 12.2249
3 4 2.32168 1.51457 9.02092
7 4 2.26278 1.34641 12.2608
160 3 3.9606 0.872865 8.9169
80 1 2.32889 6.5593 16.9901
159 3 8.31272 2.17879 16.0841
208 2 2.52152 7.01921 12.4703
256 2 4.96566 3.94288 16.7682
229 2 2.75008 3.10597 14.958
24 4 4.9073 2.64091 11.2174
27 4 4.93995 1.36619 15.9024
82 1 4.11387 5.80474 12.3344
122 3 3.7708 2.49115 12.2369
124 3 4.34499 0.322951 14.7733
126 3 3.77989 1.72172 17.0046
132 3 4.69391 3.87275 10.1248
203 2 4.94147 1.27597 10.1468
251 2 4.47002 3.71758 15.0624
264 2 4.91661 5.02536 12.1553
265 2 3.16935 5.48543 11.7561
77 1 5.33991 3.00369 15.0398
249 2 5.55061 2.69133 13.9545
294 2 5.70869 5.31606 14.279
137 3 4.0813 7.18473 10.1601
263 2 3.95146 6.13648 13.4081
232 2 -0.504131 5.8686 9.2895
250 2 6.28123 3.39907 15.5252
28 4 7.80707 1.95594 11.7187
125 3 6.33535 0.573791 16.7808
127 3 6.41932 2.80934 11.8244
93 1 6.82349 5.45959 14.3139
296 2 7.38473 4.44425 14.3663
32 4 5.65514 4.39315 8.91361
66 1 -1.99419 9.39366 0.172781
135 3 3.44863 7.6097 5.0805
131 3 0.838277 7.74141 3.95533
75 1 2.48996 12.7501 8.41853
108 3 -1.45535 7.9792 2.58429
9 4 -2.46646 8.53159 1.5248
15 4 -0.556527 9.11268 6.62623
17 4 -0.746885 12.4655 6.42197
72 1 -0.362979 13.4276 7.92485
113 3 -1.15902 8.3036 5.31782
115 3 -0.739042 10.6348 6.92671
356 2 -0.129924 12.5906 8.67543
114 3 -2.30359 12.8217 6.11495
230 2 -1.28328 8.25761 8.44936
14 4 -3.89612 13.0597 5.89579
70 1 0.120383 7.91828 8.03861
143 3 3.33405 8.3296 7.72992
324 2 -3.61323 13.4932 0.5386
236 2 0.557035 14.0441 7.64714
37 4 1.52842 12.7002 3.96651
141 3 0.369178 12.705 5.13028
209 2 1.03305 11.6489 2.69043
140 3 1.86839 14.1247 3.33928
234 2 1.17953 8.70143 6.64907
245 2 2.00142 12.4572 7.32275
235 2 -1.20615 14.1064 8.26485
327 1 -2.15036 14.5755 2.73415
142 3 2.70023 11.3942 0.815196
357 2 -3.06683 11.6849 0.800422
139 3 3.08121 8.91551 0.286229
112 3 -4.43491 13.3413 4.36932
349 2 -1.71498 13.5947 3.18419
145 3 2.80889 11.9552 4.56466
146 3 3.92423 11.0386 6.83292
30 4 2.43296 7.96892 3.65773
36 4 3.22973 9.90848 1.48313
39 4 4.73261 9.82136 7.35778
138 3 2.79205 9.24362 2.81052
329 2 -2.34882 14.5418 1.62322
342 2 -1.40631 10.3394 0.52212
148 3 4.85074 8.62931 12.3319
325 2 -1.34679 12.7651 16.824
41 4 4.77 9.79098 13.407
222 2 -0.538779 8.4549 16.968
104 3 -4.02898 14.3139 13.023
5 4 -2.70556 13.8013 13.7269
358 2 -0.372947 13.2105 11.379
334 2 -1.61411 13.5796 12.4409
323 3 -2.92705 12.2917 14.7669
333 1 -0.810839 12.1603 11.3509
18 4 -1.39716 8.52379 13.0169
149 3 -0.912867 10.1947 13.3972
213 2 -1.99334 12.1407 11.1734
211 2 -0.1842 11.412 10.6352
299 2 0.92641 8.13649 8.84198
364 2 -2.38252 10.0459 16.6673
320 4 -3.2293 11.6091 16.201
326 2 -1.71325 10.7928 10.1791
243 2 1.69234 13.0671 9.18097
335 2 1.36807 10.4376 12.1786
42 4 0.0881723 11.3044 12.8869
150 3 0.698914 12.5214 13.772
268 2 1.57152 11.2109 10.3796
26 4 1.88283 13.8891 13.1167
359 2 1.45547 12.6292 15.3934
341 2 1.28735 12.4555 17.2785
81 1 1.98512 12.7013 16.4084
152 3 2.8251 13.3738 11.9426
151 3 3.57691 10.8491 13.0543
157 3 2.65634 14.6505 14.3399
266 2 2.42423 9.68691 11.0341
83 1 2.51776 10.6342 10.5279
212 2 2.2872 10.7943 15.9768
262 2 2.62003 13.7524 16.4856
38 4 3.53688 11.7017 16.7638
31 4 4.10688 7.91828 16.4951
210 2 4.32396 8.87481 14.9573
267 2 3.15285 10.5806 9.60134
43 4 3.5254 11.8679 11.7588
244 2 3.07042 11.798 8.79988
258 2 2.59285 7.62851 15.4975
116 3 0.0150268 7.53864 12.7111
321 1 -2.28136 12.537 17.4701
52 4 6.71098 5.99121 3.56171
171 3 8.33086 5.47402 4.06903
248 2 8.28319 4.83418 3.34214
282 2 7.93163 4.8866 1.14079
360 2 9.15434 2.16338 2.54114
276 2 9.18314 4.3115 7.73094
290 2 9.35608 6.60498 5.41199
154 3 9.3098 1.02456 7.93732
84 1 13.8163 0.577507 2.40375
286 2 16.4938 0.64519 6.19103
277 2 10.7123 3.23674 8.14177
87 1 9.70794 3.70117 8.5307
242 2 11.7468 1.75856 7.74134
225 2 14.0479 5.60724 5.06689
54 4 11.0685 6.31453 5.08025
167 3 12.0716 6.26357 6.3609
214 2 11.5439 6.14385 2.35652
289 2 11.0057 4.62893 3.87295
339 3 11.408 1.97805 2.5218
336 1 10.6757 1.55039 1.65028
166 3 10.3753 6.69946 0.333908
233 2 13.263 4.34064 8.0898
192 2 13.6807 2.02097 3.78787
67 1 14.044 3.71761 1.81704
354 2 13.2869 4.33876 2.3617
191 2 14.9045 3.39179 4.91983
47 4 13.023 6.04228 7.70695
183 3 13.5833 2.62979 4.63003
220 2 12.8894 3.20929 4.40206
226 2 14.5253 4.91337 3.31477
74 1 12.6489 2.49265 7.73711
287 2 12.9629 5.82602 3.63848
91 1 11.8348 5.85936 3.44052
285 2 14.5626 0.526501 5.55658
90 1 15.2124 0.961777 6.46602
219 2 15.1499 2.09897 6.48569
241 2 13.6401 1.86606 7.26024
337 2 12.4426 3.3444 7.06256
269 2 13.2751 0.576723 1.33764
223 2 13.6094 2.68896 1.4984
362 2 15.5231 0.770864 2.54649
46 4 8.49008 2.31006 8.65573
353 2 14.2436 4.47556 0.274932
89 1 7.92989 4.81374 0.0221941
361 2 13.1348 0.428979 3.33195
311 2 14.3557 0.408586 7.98203
351 2 15.3295 3.51552 2.92586
175 3 6.90582 7.45222 3.09408
295 2 7.83969 5.73347 16.966
194 2 8.68232 3.74454 17.0835
205 2 8.98322 2.72184 12.7433
216 2 7.18312 6.03082 13.4344
174 3 9.34561 6.32589 10.4831
55 4 7.60453 6.37876 10.0556
51 4 10.6217 5.18145 17.1895
49 4 9.63371 1.58436 15.3786
57 4 6.93598 6.73423 15.6646
274 2 9.41568 3.5927 14.1178
278 2 9.79621 4.25297 9.52202
283 2 9.58544 5.56377 15.8382
239 2 12.7417 7.3835 14.1051
169 3 6.64327 6.85234 11.1733
195 2 15.0782 3.95579 9.21249
350 2 16.0508 0.396329 17.1419
45 4 11.8505 2.2645 17.2538
86 1 10.3086 2.88741 14.1826
58 4 10.0357 7.02027 11.688
284 2 10.8042 6.0075 13.6775
201 2 11.6891 5.9065 9.56565
94 1 12.2579 6.91502 9.12182
273 2 11.2671 3.39143 14.6488
302 2 12.0989 6.64285 11.8173
300 2 10.8381 4.82469 12.077
95 1 10.9837 5.85411 12.5289
275 2 10.9284 3.01655 10.0831
158 3 10.954 1.24427 16.4075
50 4 11.5725 2.22341 12.7515
88 1 11.5293 2.54318 10.8997
280 2 10.2902 1.52149 11.5577
162 3 11.2824 3.7242 17.2041
156 3 14.6996 0.674225 14.961
332 2 16.0073 2.1637 16.7903
330 1 17.1152 0.496097 16.7157
109 3 14.9005 3.63449 14.6316
279 2 14.3026 3.11783 13.9097
301 2 12.4264 3.67976 11.6085
153 3 13.3729 2.18046 16.889
6 4 14.5421 2.0446 15.8444
281 2 12.3029 1.81362 10.4819
161 3 12.6606 1.1414 13.2438
231 2 13.206 7.22276 9.72642
238 2 14.2348 7.03255 15.1349
193 2 17.1363 1.06366 15.686
240 2 12.8747 2.8038 8.80117
181 3 5.71389 10.2697 8.65421
170 3 9.46408 10.3204 8.41945
23 4 3.54314 14.109 7.696
147 3 4.36585 13.7196 6.43633
40 4 4.08775 12.1588 5.51119
144 3 5.56712 8.88225 6.33433
178 3 5.52206 11.8927 4.76492
217 2 4.96994 10.0833 1.66887
53 4 10.4532 8.21025 0.937716
215 2 8.00268 7.81382 7.91682
172 3 9.08007 7.73413 6.49713
63 4 8.86395 13.4648 7.10843
60 4 7.13704 11.7874 4.87547
98 1 8.38319 9.82045 4.02662
177 3 7.73957 12.6038 3.58513
44 4 8.22022 13.4793 2.33791
184 3 7.96052 12.4395 6.24532
180 3 8.16568 12.9037 0.872718
59 4 7.77825 8.73607 2.53499
179 3 6.50169 9.94195 1.62859
308 2 7.4577 9.97029 4.83117
363 2 6.73029 10.7092 2.29651
352 2 8.64299 10.751 8.02272
163 3 11.7763 8.59232 1.76002
291 2 8.27454 8.17867 5.94041
310 2 8.80382 10.7719 3.50802
309 2 9.21271 9.12233 4.35305
176 3 9.12959 8.50829 1.79797
355 2 11.3663 7.63359 3.91511
96 1 11.6726 9.70865 6.18375
56 4 9.79674 9.52998 6.85154
306 2 12.0528 8.81135 6.7454
305 2 11.6557 9.59757 5.04281
303 2 10.1329 10.7561 5.58389
97 1 10.872 13.1768 7.11542
307 2 11.0017 12.2258 7.82256
293 2 6.24798 7.58373 8.38899
338 2 3.72747 14.3069 1.20285
304 2 12.1568 10.7543 6.49247
343 2 11.5352 7.76692 8.72877
322 1 10.6415 8.6593 15.3008
298 2 7.19596 14.002 10.194
48 4 7.32919 14.5404 13.8402
118 3 13.4728 8.62383 11.6751
92 1 7.29947 7.82418 8.77385
202 2 4.1361 13.4237 9.19746
62 4 5.95664 11.3433 9.69119
182 3 4.87464 12.0317 10.7389
189 3 4.88458 11.8856 15.8684
272 2 9.02552 13.1148 9.00714
186 3 9.46422 7.90571 12.8665
270 2 8.08759 12.7938 11.3267
292 2 7.40541 8.82464 9.40679
218 2 7.19236 12.5715 9.2104
85 1 8.21219 13.5883 10.5464
344 2 8.28358 14.097 12.4529
312 2 6.97581 9.62078 11.0239
61 4 9.44238 11.8907 17.0467
65 4 6.16673 11.8035 14.9456
187 3 6.14534 10.5883 13.7284
188 3 6.64643 13.2711 14.4007
99 1 7.38749 10.5254 10.5408
101 1 7.6634 11.2165 16.1154
313 2 7.72307 11.2253 11.3124
317 2 8.70061 12.6495 15.6231
318 2 7.97015 10.1621 15.82
319 2 6.93644 11.1868 17.0612
185 3 7.93293 7.89566 15.08
64 4 9.10816 8.70583 14.2398
314 2 9.11393 10.2761 12.2246
315 2 8.77373 10.4747 13.9639
198 2 8.30012 10.3091 9.70116
224 2 8.88859 14.4502 10.8233
297 2 12.5644 9.06216 9.23672
237 2 13.2982 8.71519 15.261
221 2 9.98464 7.99962 16.1631
331 2 11.3093 14.002 16.6293
199 2 9.57014 12.1011 10.3558
316 2 10.2499 12.4413 13.5615
100 1 10.204 11.2608 13.3651
340 3 11.1196 11.7064 16.585
348 2 11.7361 8.29021 15.1651
16 4 10.4692 11.3133 11.6566
347 2 11.2616 9.20782 17.0831
117 3 11.7186 10.5441 11.1926
346 2 10.5722 9.8433 15.4888
197 2 11.1594 10.7415 13.7957
19 4 12.9242 9.71904 10.7267
365 2 8.84798 10.2532 17.3827
73 1 13.6371 7.82381 14.6
ITEM: TIMESTEP
100
ITEM: NUMBER OF ATOMS
365
ITEM: BOX BOUNDS xy xz yz pp pp pp
-5.5659876451833972e+00 1.7655595785470826e+01 -6.4428994818558056e+00
2.2801361211990781e-01 1.4716444095915433e+01 9.1810762214320507e-01
-1.1415923741646239e-02 1.7466872407817956e+01 -3.9342291964563701e-02
ITEM: ATOMS id type x y z
68 1 -0.939895 5.76008 4.41612
8 4 -0.0266706 4.10394 1.27311
107 3 0.539537 4.72007 6.7052
4 4 0.394615 4.66191 5.13358
10 4 1.15207 4.51476 8.24991
105 3 0.634086 2.86581 0.690953
102 3 1.7713 0.377082 1.74048
120 3 1.53848 4.36084 4.11655
206 2 0.902601 5.57328 1.35298
260 2 1.18981 7.16151 0.483227
2 4 1.45862 1.5322 0.365263
34 4 4.59559 7.42432 5.94614
200 2 0.350923 6.99418 7.36623
119 3 2.37925 1.62798 4.25146
204 2 7.45835 3.40646 4.84537
252 2 2.37684 5.69197 3.25705
253 2 4.01105 6.41202 2.58121
254 2 2.41036 6.5432 1.52505
190 2 4.28358 1.91981 8.30268
21 4 2.93005 3.16515 4.18917
29 4 4.964 3.79857 1.75026
78 1 2.87992 6.47794 2.61538
79 1 3.88035 4.49456 0.38033
123 3 3.82686 3.49185 5.47262
129 3 3.86493 3.30316 2.80855
136 3 4.68811 6.06126 7.76489
25 4 5.29097 3.87698 5.91979
130 3 5.83647 2.58807 1.15306
133 3 5.77539 3.35791 7.74095
164 3 5.90592 5.05297 2.58433
247 2 5.91055 2.61799 4.00143
165 3 5.68652 5.79484 5.37115
257 2 4.16901 5.62067 0.453445
255 2 2.819 4.25234 0.731002
328 2 4.70387 1.04386 3.05518
76 1 6.47766 2.86175 4.96144
1 4 2.44822 0.318156 3.21343
246 2 6.53755 1.91945 5.68364
288 2 7.29079 2.73345 7.81057
121 3 7.57306 0.645045 0.855714
20 4 8.55486 0.597557 2.0567
106 3 1.70655 2.90955 8.52274
22 4 6.48783 1.53733 0.0142342
134 3 2.27231 5.67443 8.64624
271 2 -1.07472 6.65572 7.47704
33 4 3.61131 6.71104 8.66623
258 2 2.51047 7.36155 15.4832
71 1 -0.18619 4.7827 9.56763
259 2 3.24799 5.68593 17.4451
12 4 0.749082 3.65085 13.6686
111 3 0.735809 5.07555 12.9536
110 3 1.0898 2.31662 12.8748
13 4 0.859191 6.41073 12.1274
227 2 1.68467 3.45794 15.8471
196 2 0.924721 6.13775 10.4684
261 2 1.5515 5.98974 16.589
69 1 2.14551 3.74382 14.8267
103 3 2.20341 1.27506 10.6134
228 2 2.41751 4.88537 14.7294
35 4 4.99848 7.30588 11.4565
173 3 5.39449 7.0118 16.0964
155 3 8.15341 2.07274 10.2094
207 2 0.0710657 4.539 10.6294
128 3 7.23709 0.49751 12.1927
3 4 2.39172 1.47897 9.02457
7 4 2.32299 1.4359 12.2095
160 3 4.23159 1.07642 8.8182
80 1 2.43457 6.44839 17.146
159 3 8.13581 2.45987 16.3197
208 2 2.42924 6.95518 12.4395
256 2 5.0349 3.91388 16.7868
229 2 3.02963 3.121 14.4945
24 4 4.79526 2.6563 11.1931
27 4 4.8207 1.30985 15.9095
82 1 4.1861 5.93739 12.6372
122 3 3.55237 2.38741 12.2986
124 3 4.20167 0.331441 14.8564
126 3 3.74465 1.74473 17.0318
132 3 4.73016 3.94967 10.0498
203 2 4.73599 1.1592 10.286
251 2 4.55313 3.79941 15.1294
264 2 5.06849 5.20278 12.8204
265 2 3.42177 5.59893 11.8889
77 1 5.34105 2.94262 15.0384
249 2 5.41081 2.66012 13.9402
294 2 5.68407 5.17317 14.1121
137 3 4.02536 7.22455 10.1561
263 2 3.76914 6.40499 13.5867
232 2 -0.523034 5.892 9.4017
250 2 6.39771 3.17569 15.5284
28 4 7.56158 1.90423 11.6996
125 3 6.16312 0.62137 16.8338
127 3 6.12838 2.77905 11.9957
93 1 6.76425 5.49477 14.3296
296 2 7.34963 4.64333 14.6267
32 4 5.57606 4.54037 8.77775
157 3 9.01233 0.371752 14.3107
193 2 1.60782 1.10174 15.5214
168 3 7.06857 5.12069 9.13904
169 3 6.45972 6.7842 11.2469
66 1 -1.96305 9.4241 0.366091
135 3 3.51016 7.71522 4.86249
131 3 0.824322 7.79323 3.94971
75 1 2.66174 12.7723 8.56481
108 3 -1.65353 7.93632 2.77129
9 4 -2.53544 8.46968 1.58459
15 4 -0.656755 9.23676 6.66939
17 4 -0.840892 12.5059 6.33989
72 1 -0.195494 13.5656 7.79109
113 3 -1.33659 8.46212 5.48955
115 3 -0.730352 10.869 6.66053
356 2 0.0527571 12.8974 8.62326
114 3 -2.35156 12.9871 6.04127
230 2 -1.2199 8.48284 8.39346
14 4 -3.94848 13.0914 5.79183
70 1 0.246391 7.9885 7.92944
143 3 3.49311 8.30188 7.71381
324 2 -4.06021 13.2125 0.691266
236 2 0.701679 14.0567 7.31838
37 4 1.4729 12.8456 4.08567
141 3 0.269093 12.8755 5.20503
209 2 0.879066 11.7705 2.9314
140 3 1.72193 14.196 3.29335
234 2 1.21647 9.00271 6.8267
245 2 1.96949 12.4111 7.63658
235 2 -1.02997 14.3232 8.08101
327 1 -2.14906 14.4214 2.90458
142 3 2.76272 11.2471 0.962276
357 2 -2.66116 11.8577 0.558089
139 3 2.97978 8.82212 0.144059
112 3 -4.50942 13.4019 4.23839
349 2 -1.6783 13.7162 3.66319
145 3 2.87041 12.2889 4.45835
146 3 3.73482 10.8995 6.65905
30 4 2.44731 8.023 3.67968
36 4 3.29864 9.74215 1.40576
39 4 4.72459 9.7288 7.21922
138 3 2.65757 9.53803 2.81103
329 2 -2.02861 14.0431 1.86563
342 2 -1.41232 10.3611 0.936573
11 4 -0.721815 7.59144 4.07819
345 2 -4.69642 14.5205 8.12708
321 1 -3.24997 12.6485 0.0763813
148 3 4.89503 8.60958 12.3322
325 2 -1.70233 13.2707 16.927
41 4 4.79811 9.74571 13.4079
222 2 -0.380639 8.67485 17.1468
104 3 -3.94858 14.304 13.1069
5 4 -2.80859 13.6035 13.9366
358 2 -0.846567 13.3535 11.3739
334 2 -1.49926 13.3142 12.9757
323 3 -2.992 12.2566 14.7321
333 1 -0.907548 12.2074 11.4395
18 4 -1.33185 8.62283 12.8562
149 3 -0.710942 10.2157 13.5165
213 2 -1.98682 11.8032 11.5444
211 2 -0.1498 11.6339 10.6832
299 2 0.948292 7.97274 8.75543
331 2 -4.41094 14.0305 16.4627
320 4 -3.22304 11.6766 16.2309
326 2 -1.67604 10.8589 10.2016
243 2 2.02804 13.2642 9.40553
335 2 1.50298 10.4942 12.2309
42 4 0.211843 11.3521 12.8764
150 3 0.757777 12.5022 13.809
268 2 1.5222 11.1343 10.5777
26 4 1.84528 13.8219 13.0691
359 2 1.39661 12.5689 15.4298
341 2 1.14807 12.4693 17.2801
81 1 1.87234 12.629 16.4535
152 3 2.86766 13.2095 12.0637
151 3 3.68833 10.912 13.1653
116 3 -0.114686 7.51766 12.5115
266 2 2.55297 9.65906 11.1457
83 1 2.54601 10.693 10.5801
212 2 2.31832 10.7711 16.0119
262 2 2.47859 13.7312 16.6691
38 4 3.49438 11.7143 16.8559
31 4 4.00735 7.88735 16.3592
210 2 4.39802 8.89557 14.8687
267 2 3.07528 10.6541 9.49022
43 4 3.69843 11.8722 11.6865
244 2 3.41137 11.915 9.00188
364 2 -2.43838 10.0683 16.9151
52 4 6.82569 5.9568 3.63782
171 3 8.25036 5.34556 4.23002
248 2 8.26946 4.72769 3.40782
282 2 8.10295 5.20466 1.1957
360 2 9.00672 2.25908 2.48013
276 2 9.24424 4.47733 7.86456
290 2 9.34898 6.45054 5.65981
154 3 9.40409 1.22088 8.01039
84 1 13.7399 0.56749 2.46049
286 2 16.3982 0.863445 6.24638
277 2 10.9376 3.36929 8.22344
87 1 9.86009 3.81543 8.62803
242 2 11.8142 1.82585 7.76309
225 2 14.0747 5.64422 5.27308
54 4 11.0542 6.06945 5.13422
167 3 12.1485 6.04582 6.41509
214 2 11.8015 5.99451 2.43336
289 2 11.0386 4.50545 4.11106
339 3 11.3561 1.74878 2.5146
336 1 10.6052 1.6368 1.56836
166 3 10.216 6.57835 0.325352
233 2 13.2036 4.33049 8.16194
192 2 13.8096 1.95315 3.82686
67 1 13.9454 4.1838 1.76281
354 2 13.1923 4.81871 2.39343
191 2 14.792 3.6289 4.8679
47 4 13.0966 6.00035 7.71969
183 3 13.6736 2.68281 4.62115
220 2 12.8397 3.22589 4.41464
226 2 14.526 5.21341 3.35594
74 1 12.7261 2.49928 7.69942
287 2 12.9721 5.94754 3.79907
91 1 11.8791 5.96674 3.48721
285 2 14.7195 0.47209 5.3159
90 1 15.1889 0.962018 6.24959
219 2 15.0357 2.07604 6.25314
241 2 13.6853 1.96357 7.18328
337 2 12.4519 3.29157 7.01518
269 2 13.0928 0.57741 1.48025
223 2 13.4942 3.19905 1.56773
362 2 15.4976 0.632537 2.58661
46 4 8.6674 2.37602 8.7
353 2 14.2218 4.74754 0.270596
351 2 15.2247 3.63918 2.93886
361 2 13.1165 0.386195 3.44938
311 2 14.5909 0.536466 7.93891
295 2 7.88969 5.94593 17.2336
194 2 8.44904 4.16625 16.9469
205 2 8.80064 2.56207 12.7896
216 2 7.16813 6.05707 13.4678
174 3 9.21625 6.5104 10.5629
55 4 7.61976 6.43463 9.91805
51 4 10.732 5.17248 17.2911
49 4 9.5439 1.51416 15.3077
57 4 7.03314 6.61781 15.7696
274 2 9.19496 3.48522 14.181
278 2 9.8353 4.26759 9.65274
283 2 9.88809 5.39632 15.7999
239 2 12.5588 7.30767 13.7128
298 2 14.1931 0.379881 9.94027
195 2 14.8939 4.05367 9.11797
238 2 14.176 6.71764 14.5846
45 4 11.7866 2.24231 17.2109
86 1 10.1753 2.83385 14.1461
58 4 10.2403 6.88315 11.8195
284 2 11.0144 5.64062 13.6618
201 2 11.8704 6.00545 9.54717
94 1 12.4309 7.06151 9.02579
273 2 11.2153 3.46992 14.6187
302 2 12.2144 6.59388 11.693
300 2 10.7739 4.62545 12.0016
95 1 11.1806 5.58204 12.5213
275 2 11.0021 2.98154 10.1153
158 3 10.8248 1.33663 16.3226
50 4 11.5286 2.11317 12.838
88 1 11.7084 2.54716 10.9483
280 2 10.469 1.28116 11.6597
162 3 11.4711 3.74872 17.2543
156 3 14.7193 0.70029 14.8489
332 2 16.0055 2.0463 16.6162
330 1 17.3339 0.556128 16.4781
109 3 14.74 3.74661 14.7035
279 2 14.1164 3.23165 13.9694
301 2 12.2465 3.56973 11.5754
153 3 13.4068 2.0017 16.819
6 4 14.5456 2.03309 15.7722
281 2 12.48 1.90433 10.5192
161 3 12.6776 1.21865 13.4194
89 1 8.74197 5.14803 17.3341
350 2 16.2383 0.234093 16.6488
240 2 12.9707 2.95395 8.7402
181 3 5.55818 10.5786 8.53061
170 3 9.40844 10.1569 8.4308
23 4 3.48988 14.1756 7.6174
147 3 4.15153 13.7202 6.30667
40 4 4.10496 12.0591 5.51434
144 3 5.6816 8.65565 6.15993
178 3 5.59898 11.7067 5.05418
217 2 5.07867 9.91856 1.59605
53 4 10.3568 8.01101 0.810465
215 2 7.86055 7.95159 8.01131
172 3 8.94289 7.70132 6.4926
63 4 8.86558 13.5007 7.11462
60 4 7.1813 11.7801 4.89825
98 1 8.41 9.80847 4.05363
177 3 7.69687 12.4758 3.53848
44 4 8.11483 13.4427 2.31165
184 3 7.99893 12.5563 6.19066
180 3 8.24587 12.8339 0.89414
59 4 7.78857 8.88596 2.46108
179 3 6.55595 10.1243 1.53226
308 2 7.67057 9.98095 5.02163
363 2 6.74606 10.8836 2.14979
352 2 8.64363 10.6646 7.96072
163 3 11.7744 8.2694 1.54054
291 2 8.12916 8.2316 6.20981
310 2 9.03559 10.7045 3.69896
309 2 9.16888 8.91515 4.33384
176 3 9.0547 8.52575 1.54227
175 3 6.97934 7.63271 2.9963
96 1 11.7991 9.75256 6.38629
56 4 9.89912 9.35289 7.06072
306 2 12.1422 9.14033 7.35056
305 2 12.1799 9.30042 5.46617
303 2 10.211 10.3407 5.57844
97 1 10.8715 13.0968 7.09639
307 2 10.9674 11.9551 7.54483
293 2 6.12244 7.8467 8.69963
338 2 3.74162 14.3539 1.41196
304 2 12.1799 10.841 6.54222
343 2 11.6143 7.72436 8.59605
355 2 11.3793 7.55389 3.85783
322 1 10.6754 8.49674 15.2612
73 1 13.5749 7.63892 14.1987
48 4 7.3633 14.5819 13.7876
118 3 13.47 8.71514 11.6225
92 1 7.26067 8.00504 8.90497
202 2 4.45507 13.4745 8.92734
62 4 6.0956 11.388 9.74327
182 3 5.01939 11.8929 10.7532
189 3 4.78353 11.8087 15.8889
272 2 9.05602 13.1214 8.99269
186 3 9.76091 7.86807 12.8891
270 2 7.62829 13.3636 11.0586
292 2 7.46566 8.98346 9.53124
218 2 7.23218 12.669 9.31402
85 1 8.32491 13.9592 10.4071
344 2 8.28327 14.4552 12.3161
312 2 6.9618 9.80031 11.1715
61 4 9.44155 11.8967 16.9937
65 4 6.21247 11.8171 14.9687
187 3 6.10184 10.5532 13.7672
188 3 6.79537 13.0832 14.25
99 1 7.60208 10.6793 10.7049
101 1 7.47112 11.1776 16.1651
313 2 7.85092 11.6656 11.4026
317 2 8.58931 12.5263 15.561
318 2 7.52248 10.0156 15.962
319 2 6.951 11.4076 17.1604
185 3 7.92598 7.72154 14.982
64 4 9.16231 8.56278 14.1871
314 2 9.1241 10.348 12.153
315 2 8.73482 10.311 13.8569
198 2 8.37551 10.3088 10.0497
224 2 9.15001 14.3961 11.0771
297 2 12.4426 9.13533 9.14157
237 2 13.5388 8.4217 15.0138
221 2 10.1399 7.74929 16.1067
231 2 13.1754 7.52302 9.76108
199 2 9.79775 12.7562 10.7435
316 2 10.3167 12.3126 13.7401
100 1 10.2472 11.1837 13.4573
340 3 11.0684 11.6635 16.6067
348 2 11.7519 8.12674 14.8387
16 4 10.5238 11.4024 11.6748
347 2 11.513 9.06571 16.9328
117 3 11.7694 10.6443 11.1324
346 2 10.5587 9.7239 15.5282
197 2 11.0797 10.6139 13.9502
19 4 12.9463 9.79228 10.6234
365 2 8.97541 10.2574 17.2185
ITEM: TIMESTEP
200
ITEM: NUMBER OF ATOMS
365
ITEM: BOX BOUNDS xy xz yz pp pp pp
-5.5659876451833972e+00 1.7655595785470826e+01 -6.4428994818558056e+00
2.2801361211990781e-01 1.4716444095915433e+01 9.1810762214320507e-01
-1.1415923741646239e-02 1.7458128891894212e+01 -3.9342291964563701e-02
ITEM: ATOMS id type x y z
68 1 -0.918493 5.78918 4.55177
8 4 -0.117565 4.17489 1.37288
107 3 0.608628 4.6772 6.73568
4 4 0.388519 4.66854 5.20285
10 4 1.2256 4.49632 8.28512
105 3 0.473034 2.89754 0.690233
102 3 1.61033 0.522335 1.72277
120 3 1.53555 4.2351 4.24179
206 2 1.18099 5.38831 1.32306
260 2 1.3306 6.96567 0.551463
2 4 1.44453 1.45166 0.394616
33 4 3.46117 6.72618 8.62975
200 2 0.156966 7.17647 7.0192
119 3 2.26645 1.58853 4.16759
204 2 7.29191 3.30964 4.37324
252 2 2.38747 5.47873 3.23186
253 2 4.02861 6.44893 2.69899
254 2 2.45685 6.52307 1.57472
190 2 4.38995 2.04878 8.46914
21 4 2.91404 3.13477 4.22425
29 4 5.03938 3.76451 1.93828
78 1 2.8833 6.42486 2.65057
79 1 4.08515 4.42397 0.398269
123 3 3.98231 3.40619 5.5083
129 3 3.8644 3.2769 2.89694
136 3 4.59292 6.04803 7.77533
25 4 5.45437 3.90995 5.77032
130 3 5.93959 2.63744 1.21022
133 3 5.80054 3.58593 7.58195
164 3 5.89587 5.01902 2.61125
247 2 5.78341 2.15684 4.19234
165 3 5.68939 5.91723 5.29161
257 2 4.46561 5.53303 0.38887
255 2 3.02501 4.26842 0.707727
328 2 4.64743 1.04738 2.93769
76 1 6.48089 2.68639 4.93553
1 4 2.45787 0.273996 3.22332
246 2 6.90792 2.01891 5.77551
288 2 7.29001 2.8161 7.87964
121 3 7.4444 0.486046 0.802121
20 4 8.50489 0.591393 1.9971
106 3 1.812 2.98901 8.69902
22 4 6.43753 1.5968 0.109537
134 3 2.12577 5.78733 8.61361
271 2 -1.42973 6.84392 7.46201
169 3 6.34235 6.56655 11.5336
71 1 -0.201214 4.738 9.52256
168 3 7.03215 5.2008 9.21164
12 4 0.707501 3.6348 13.7369
111 3 0.854378 5.05905 12.9667
110 3 0.868373 2.37294 12.8767
13 4 0.895196 6.36754 12.095
227 2 1.44315 3.94424 16.0802
196 2 1.0125 6.03489 10.4195
261 2 1.7082 5.54109 16.8835
69 1 1.86478 3.64826 15.1079
103 3 2.03947 1.0309 10.5634
228 2 2.5864 4.58657 14.6137
35 4 4.89782 7.07336 11.4754
173 3 5.41066 6.95595 15.9772
155 3 8.18495 2.28451 10.2924
207 2 0.0614997 4.48441 10.6262
296 2 7.47141 4.42355 15.2914
3 4 2.41043 1.51692 9.09934
7 4 2.33566 1.45169 12.1306
160 3 4.19956 1.0506 8.80363
80 1 2.57201 6.26355 17.1116
159 3 8.2299 2.30381 16.0213
208 2 2.43088 7.03867 12.2747
256 2 5.2022 3.84493 16.7993
229 2 2.34759 2.57506 15.0954
24 4 4.79005 2.84133 11.1794
27 4 4.7958 1.28247 16.0349
82 1 4.03341 5.98755 12.8532
122 3 3.57361 2.4798 12.1046
124 3 4.09954 0.388468 14.8449
126 3 3.7297 2.01702 17.136
132 3 4.67292 4.06025 10.105
203 2 4.9483 1.46413 10.1016
251 2 4.56362 3.6475 15.3334
264 2 4.87753 5.30182 13.2539
265 2 3.14573 5.34133 12.4849
77 1 5.35722 2.89659 14.9841
249 2 5.59638 2.89927 13.8409
294 2 6.07407 4.80317 13.8794
137 3 3.97999 7.07116 10.1372
263 2 3.84621 6.81525 13.6166
232 2 -0.54467 5.73241 9.39765
250 2 6.32478 3.06701 15.5699
28 4 7.54214 1.98431 11.7587
125 3 6.14643 0.803511 16.7764
127 3 6.33669 2.95857 12.0812
93 1 7.05979 5.24562 14.387
258 2 2.43149 7.34608 15.6651
32 4 5.55475 4.59655 8.78507
157 3 8.79726 0.283524 14.282
116 3 -0.164394 7.41491 12.4081
128 3 7.33241 0.321645 12.0153
259 2 3.53298 5.62489 17.3381
66 1 -1.99318 9.4125 0.234448
135 3 3.60134 7.71405 4.89519
131 3 0.858023 7.76217 3.91939
75 1 2.94275 12.8245 8.71359
108 3 -1.59303 8.01391 2.75482
9 4 -2.52008 8.50814 1.59638
15 4 -0.702355 9.3875 6.61653
17 4 -0.764996 12.6695 6.25471
72 1 -0.262513 13.5778 7.77959
113 3 -1.18194 8.56896 5.40431
115 3 -0.776602 10.9385 6.87265
356 2 -0.137144 12.619 8.4824
114 3 -2.41134 13.0415 5.86866
230 2 -1.49789 8.58411 8.12888
14 4 -4.07134 13.1161 5.78635
70 1 0.1426 7.99065 7.80924
143 3 3.42449 8.13446 7.63022
324 2 -4.0423 13.2737 0.413632
236 2 0.706646 14.0275 7.49602
37 4 1.48479 12.8932 3.96106
141 3 0.398148 12.7681 5.1626
209 2 0.95352 11.9898 2.69112
140 3 1.65798 14.4845 3.52304
234 2 1.1212 9.03684 7.31505
245 2 2.10237 12.5458 7.90403
235 2 -1.08523 14.3411 8.20592
327 1 -2.2133 14.356 2.92075
142 3 2.79759 11.3653 0.967486
357 2 -3.01832 11.808 1.07589
139 3 3.06561 8.86023 0.100541
112 3 -4.69398 13.3384 4.41168
349 2 -1.76306 13.7183 3.77922
145 3 2.88592 12.216 4.31874
146 3 3.66472 10.8405 6.37521
30 4 2.54211 7.92665 3.67442
36 4 3.30989 9.95234 1.37709
39 4 4.68165 9.82026 7.10774
138 3 2.80478 9.19058 2.62712
329 2 -2.02469 13.9085 1.87134
342 2 -1.57635 10.4236 0.75125
11 4 -0.694935 7.64182 4.07477
345 2 -4.88817 14.6846 8.07895
321 1 -3.20376 12.4137 0.168994
34 4 4.71475 7.48386 6.00479
148 3 5.02378 8.62856 12.2649
325 2 -1.28277 12.7682 17.1194
41 4 4.86144 9.70681 13.4577
222 2 -0.343437 8.55747 17.1498
104 3 -4.08225 14.5137 13.068
5 4 -2.84096 13.7895 13.8031
358 2 -0.275919 13.1661 11.4041
334 2 -1.71801 13.3588 12.6082
323 3 -2.97727 12.4825 14.7561
333 1 -0.7621 12.0874 11.4256
18 4 -1.2879 8.45899 12.7529
149 3 -0.614986 10.0616 13.6067
213 2 -1.89679 12.0666 11.4424
211 2 -0.210376 11.3326 10.5864
299 2 0.529526 7.57257 8.82147
331 2 -4.39498 14.2208 16.1958
320 4 -3.26142 11.61 16.2858
326 2 -1.7388 11.1191 9.98263
243 2 2.5172 13.2795 9.67935
335 2 1.30934 10.3759 11.8062
42 4 0.170634 11.188 12.8511
150 3 0.838028 12.3655 13.6475
268 2 1.65241 11.5215 10.2523
26 4 1.83211 13.8595 13.0697
359 2 1.46283 12.4299 15.2389
341 2 1.0568 12.2445 17.0829
81 1 1.86148 12.4956 16.34
152 3 2.96996 13.3333 12.106
151 3 3.62677 10.5571 13.0341
244 2 3.62974 11.8717 8.86355
266 2 2.37527 9.81753 10.8821
83 1 2.58139 10.8051 10.4272
212 2 2.51231 10.6602 15.9574
262 2 2.36436 13.6795 16.4991
38 4 3.57338 11.7873 16.7201
31 4 4.06309 7.79349 16.4167
210 2 4.4545 8.71853 14.9128
267 2 3.13877 10.695 9.40428
43 4 3.62949 11.823 11.7251
19 4 -2.84067 9.99983 10.5968
364 2 -2.2994 10.0548 16.6018
118 3 -2.07315 9.1102 11.572
52 4 6.83502 6.03467 3.52918
171 3 8.25441 5.3622 4.20078
248 2 8.4913 5.0079 3.30803
282 2 7.92794 4.53491 1.27903
360 2 8.92207 2.35033 2.17883
276 2 9.37196 4.62434 8.2307
290 2 9.23645 6.3656 5.70784
154 3 9.27925 1.06803 8.17018
84 1 13.6158 0.529665 2.36522
286 2 16.3257 0.767891 5.92419
277 2 10.9768 3.43024 8.37745
89 1 7.90485 4.66452 0.148486
242 2 11.832 1.84673 7.66508
225 2 14.1638 5.79907 5.39645
54 4 10.9306 6.05885 5.32562
167 3 12.0201 5.96678 6.45957
214 2 11.7139 5.85145 2.49698
289 2 10.9517 4.55011 4.27467
339 3 11.2568 1.87063 2.47999
336 1 10.5594 1.59347 1.51652
166 3 10.1022 6.59929 0.365349
233 2 13.5451 4.34244 7.92787
192 2 13.5927 1.96138 3.71209
67 1 13.921 4.38651 1.80143
354 2 13.1741 4.96954 2.51033
191 2 14.861 3.58834 4.97025
47 4 12.9449 5.98766 7.70983
183 3 13.6716 2.71188 4.43547
220 2 12.8519 3.17239 4.25761
226 2 14.5169 5.24814 3.46083
74 1 12.7007 2.56845 7.63577
287 2 13.0205 5.94331 3.91863
91 1 11.8524 6.05234 3.6422
285 2 14.4594 0.848372 5.38665
90 1 15.1801 1.05894 6.19373
219 2 15.23 2.19797 6.29587
241 2 13.5972 2.04451 6.96309
337 2 12.2276 3.45274 7.1419
269 2 13.196 0.458484 1.22144
223 2 13.5026 3.4062 1.53557
362 2 15.1954 0.795334 2.82585
311 2 14.1595 0.321808 7.56246
353 2 14.2918 5.23361 0.489338
351 2 15.2075 3.74415 3.02936
361 2 12.8295 0.386052 3.21308
240 2 12.9947 2.75584 8.72213
295 2 7.95524 5.99496 17.178
194 2 8.62465 3.62989 17.0666
205 2 8.78533 2.69216 12.8118
216 2 7.86414 5.4376 13.6861
174 3 9.11124 6.39829 10.506
55 4 7.47128 6.45695 10.1071
51 4 10.5216 5.15611 17.2875
49 4 9.44818 1.75039 15.2358
57 4 6.96906 6.62821 15.5593
274 2 9.42209 3.72778 14.0206
278 2 9.9078 3.89644 10.0657
283 2 9.45708 5.19625 15.8669
239 2 12.483 7.29266 13.4342
298 2 14.6418 0.510702 9.82815
195 2 14.8709 4.00587 9.13763
238 2 13.9479 6.45167 14.2888