ITEM: TIMESTEP
0
ITEM: NUMBER OF ATOMS
365
ITEM: BOX BOUNDS xy xz yz pp pp pp
-5.5659876451833972e+00 1.7655595785470826e+01 -6.4428994818558056e+00
2.2801361211990781e-01 1.4716444095915433e+01 9.1810762214320507e-01
-1.1415923741646239e-02 1.7475615923741696e+01 -3.9342291964563701e-02
ITEM: ATOMS id type x y z
68 1 -0.977762 5.60841 4.28911
8 4 -0.0202607 4.07078 1.15888
107 3 0.637631 4.82926 6.68417
4 4 0.308474 4.61964 5.14524
10 4 1.29439 4.47707 8.24601
105 3 0.681409 2.78023 0.682379
102 3 1.82877 0.501123 1.871
120 3 1.49763 4.43801 4.18018
206 2 1.07023 5.51012 1.11769
260 2 1.10281 7.32458 0.339206
2 4 1.52695 1.44996 0.406842
34 4 4.50066 7.39131 6.1844
200 2 0.265051 6.89746 7.45234
119 3 2.24272 1.74385 4.19474
204 2 7.36806 3.41936 4.74519
252 2 2.65542 5.61948 3.03501
253 2 3.98877 6.70864 2.30424
254 2 2.34982 6.61529 1.37881
190 2 4.21874 1.8152 8.3477
21 4 2.80581 3.28516 4.26932
29 4 4.8659 3.89688 1.75414
78 1 2.88214 6.53797 2.43222
79 1 3.80073 4.56624 0.364988
123 3 3.69935 3.54998 5.61808
129 3 3.88458 3.46134 2.978
136 3 4.89796 6.05874 7.96625
25 4 5.2454 4.01849 5.85813
130 3 5.76722 2.84668 0.921214
133 3 5.64832 3.42985 7.71946
164 3 5.84263 5.15014 2.38615
247 2 5.79556 2.43704 4.2441
165 3 5.67455 5.7714 5.34965
257 2 3.92362 5.66117 0.389351
255 2 2.76362 4.23452 0.82291
328 2 4.7849 1.06211 3.05993
76 1 6.46383 2.85283 5.14113
1 4 2.48798 0.361398 3.30542
246 2 6.723 2.09696 5.95348
288 2 7.05148 2.6423 7.76381
121 3 7.52604 0.837285 1.00506
20 4 8.63948 0.498208 2.05006
106 3 1.82999 2.96682 8.50004
345 2 1.55022 0.374717 7.93181
11 4 -0.706639 7.47104 4.04744
271 2 -1.16631 6.55722 7.54261
33 4 3.59069 6.56204 8.7234
22 4 6.48277 1.55188 0.00259823
134 3 2.2318 5.67934 8.68466
168 3 7.13956 4.96687 9.29287
71 1 -0.0898034 4.77722 9.53537
259 2 3.15523 5.76091 17.356
12 4 0.853921 3.69221 13.5254
111 3 0.846492 4.97042 12.6086
110 3 0.979162 2.16238 12.8519
13 4 0.937236 6.41735 12.1117
227 2 1.43553 4.15075 15.7802
196 2 0.74028 6.38568 10.4202
261 2 1.47485 5.9783 16.5364
69 1 2.08368 4.02981 14.8413
103 3 1.92341 1.07518 10.7087
228 2 2.6483 5.04001 14.5427
35 4 5.02944 7.31175 11.4452
173 3 5.54739 7.07047 16.2419
155 3 8.24699 2.09796 10.1823
207 2 0.246481 4.67031 10.5995
128 3 7.28919 0.535241 12.2249
3 4 2.32168 1.51457 9.02092
7 4 2.26278 1.34641 12.2608
160 3 3.9606 0.872865 8.9169
80 1 2.32889 6.5593 16.9901
159 3 8.31272 2.17879 16.0841
208 2 2.52152 7.01921 12.4703
256 2 4.96566 3.94288 16.7682
229 2 2.75008 3.10597 14.958
24 4 4.9073 2.64091 11.2174
27 4 4.93995 1.36619 15.9024
82 1 4.11387 5.80474 12.3344
122 3 3.7708 2.49115 12.2369
124 3 4.34499 0.322951 14.7733
126 3 3.77989 1.72172 17.0046
132 3 4.69391 3.87275 10.1248
203 2 4.94147 1.27597 10.1468
251 2 4.47002 3.71758 15.0624
264 2 4.91661 5.02536 12.1553
265 2 3.16935 5.48543 11.7561
77 1 5.33991 3.00369 15.0398
249 2 5.55061 2.69133 13.9545
294 2 5.70869 5.31606 14.279
137 3 4.0813 7.18473 10.1601
263 2 3.95146 6.13648 13.4081
232 2 -0.504131 5.8686 9.2895
250 2 6.28123 3.39907 15.5252
28 4 7.80707 1.95594 11.7187
125 3 6.33535 0.573791 16.7808
127 3 6.41932 2.80934 11.8244
93 1 6.82349 5.45959 14.3139
296 2 7.38473 4.44425 14.3663
32 4 5.65514 4.39315 8.91361
66 1 -1.99419 9.39366 0.172781
135 3 3.44863 7.6097 5.0805
131 3 0.838277 7.74141 3.95533
75 1 2.48996 12.7501 8.41853
108 3 -1.45535 7.9792 2.58429
9 4 -2.46646 8.53159 1.5248
15 4 -0.556527 9.11268 6.62623
17 4 -0.746885 12.4655 6.42197
72 1 -0.362979 13.4276 7.92485
113 3 -1.15902 8.3036 5.31782
115 3 -0.739042 10.6348 6.92671
356 2 -0.129924 12.5906 8.67543
114 3 -2.30359 12.8217 6.11495
230 2 -1.28328 8.25761 8.44936
14 4 -3.89612 13.0597 5.89579
70 1 0.120383 7.91828 8.03861
143 3 3.33405 8.3296 7.72992
324 2 -3.61323 13.4932 0.5386
236 2 0.557035 14.0441 7.64714
37 4 1.52842 12.7002 3.96651
141 3 0.369178 12.705 5.13028
209 2 1.03305 11.6489 2.69043
140 3 1.86839 14.1247 3.33928
234 2 1.17953 8.70143 6.64907
245 2 2.00142 12.4572 7.32275
235 2 -1.20615 14.1064 8.26485
327 1 -2.15036 14.5755 2.73415
142 3 2.70023 11.3942 0.815196
357 2 -3.06683 11.6849 0.800422
139 3 3.08121 8.91551 0.286229
112 3 -4.43491 13.3413 4.36932
349 2 -1.71498 13.5947 3.18419
145 3 2.80889 11.9552 4.56466
146 3 3.92423 11.0386 6.83292
30 4 2.43296 7.96892 3.65773
36 4 3.22973 9.90848 1.48313
39 4 4.73261 9.82136 7.35778
138 3 2.79205 9.24362 2.81052
329 2 -2.34882 14.5418 1.62322
342 2 -1.40631 10.3394 0.52212
148 3 4.85074 8.62931 12.3319
325 2 -1.34679 12.7651 16.824
41 4 4.77 9.79098 13.407
222 2 -0.538779 8.4549 16.968
104 3 -4.02898 14.3139 13.023
5 4 -2.70556 13.8013 13.7269
358 2 -0.372947 13.2105 11.379
334 2 -1.61411 13.5796 12.4409
323 3 -2.92705 12.2917 14.7669
333 1 -0.810839 12.1603 11.3509
18 4 -1.39716 8.52379 13.0169
149 3 -0.912867 10.1947 13.3972
213 2 -1.99334 12.1407 11.1734
211 2 -0.1842 11.412 10.6352
299 2 0.92641 8.13649 8.84198
364 2 -2.38252 10.0459 16.6673
320 4 -3.2293 11.6091 16.201
326 2 -1.71325 10.7928 10.1791
243 2 1.69234 13.0671 9.18097
335 2 1.36807 10.4376 12.1786
42 4 0.0881723 11.3044 12.8869
150 3 0.698914 12.5214 13.772
268 2 1.57152 11.2109 10.3796
26 4 1.88283 13.8891 13.1167
359 2 1.45547 12.6292 15.3934
341 2 1.28735 12.4555 17.2785
81 1 1.98512 12.7013 16.4084
152 3 2.8251 13.3738 11.9426
151 3 3.57691 10.8491 13.0543
157 3 2.65634 14.6505 14.3399
266 2 2.42423 9.68691 11.0341
83 1 2.51776 10.6342 10.5279
212 2 2.2872 10.7943 15.9768
262 2 2.62003 13.7524 16.4856
38 4 3.53688 11.7017 16.7638
31 4 4.10688 7.91828 16.4951
210 2 4.32396 8.87481 14.9573
267 2 3.15285 10.5806 9.60134
43 4 3.5254 11.8679 11.7588
244 2 3.07042 11.798 8.79988
258 2 2.59285 7.62851 15.4975
116 3 0.0150268 7.53864 12.7111
321 1 -2.28136 12.537 17.4701
52 4 6.71098 5.99121 3.56171
171 3 8.33086 5.47402 4.06903
248 2 8.28319 4.83418 3.34214
282 2 7.93163 4.8866 1.14079
360 2 9.15434 2.16338 2.54114
276 2 9.18314 4.3115 7.73094
290 2 9.35608 6.60498 5.41199
154 3 9.3098 1.02456 7.93732
84 1 13.8163 0.577507 2.40375
286 2 16.4938 0.64519 6.19103
277 2 10.7123 3.23674 8.14177
87 1 9.70794 3.70117 8.5307
242 2 11.7468 1.75856 7.74134
225 2 14.0479 5.60724 5.06689
54 4 11.0685 6.31453 5.08025
167 3 12.0716 6.26357 6.3609
214 2 11.5439 6.14385 2.35652
289 2 11.0057 4.62893 3.87295
339 3 11.408 1.97805 2.5218
336 1 10.6757 1.55039 1.65028
166 3 10.3753 6.69946 0.333908
233 2 13.263 4.34064 8.0898
192 2 13.6807 2.02097 3.78787
67 1 14.044 3.71761 1.81704
354 2 13.2869 4.33876 2.3617
191 2 14.9045 3.39179 4.91983
47 4 13.023 6.04228 7.70695
183 3 13.5833 2.62979 4.63003
220 2 12.8894 3.20929 4.40206
226 2 14.5253 4.91337 3.31477
74 1 12.6489 2.49265 7.73711
287 2 12.9629 5.82602 3.63848
91 1 11.8348 5.85936 3.44052
285 2 14.5626 0.526501 5.55658
90 1 15.2124 0.961777 6.46602
219 2 15.1499 2.09897 6.48569
241 2 13.6401 1.86606 7.26024
337 2 12.4426 3.3444 7.06256
269 2 13.2751 0.576723 1.33764
223 2 13.6094 2.68896 1.4984
362 2 15.5231 0.770864 2.54649
46 4 8.49008 2.31006 8.65573
353 2 14.2436 4.47556 0.274932
89 1 7.92989 4.81374 0.0221941
361 2 13.1348 0.428979 3.33195
311 2 14.3557 0.408586 7.98203
351 2 15.3295 3.51552 2.92586
175 3 6.90582 7.45222 3.09408
295 2 7.83969 5.73347 16.966
194 2 8.68232 3.74454 17.0835
205 2 8.98322 2.72184 12.7433
216 2 7.18312 6.03082 13.4344
174 3 9.34561 6.32589 10.4831
55 4 7.60453 6.37876 10.0556
51 4 10.6217 5.18145 17.1895
49 4 9.63371 1.58436 15.3786
57 4 6.93598 6.73423 15.6646
274 2 9.41568 3.5927 14.1178
278 2 9.79621 4.25297 9.52202
283 2 9.58544 5.56377 15.8382
239 2 12.7417 7.3835 14.1051
169 3 6.64327 6.85234 11.1733
195 2 15.0782 3.95579 9.21249
350 2 16.0508 0.396329 17.1419
45 4 11.8505 2.2645 17.2538
86 1 10.3086 2.88741 14.1826
58 4 10.0357 7.02027 11.688
284 2 10.8042 6.0075 13.6775
201 2 11.6891 5.9065 9.56565
94 1 12.2579 6.91502 9.12182
273 2 11.2671 3.39143 14.6488
302 2 12.0989 6.64285 11.8173
300 2 10.8381 4.82469 12.077
95 1 10.9837 5.85411 12.5289
275 2 10.9284 3.01655 10.0831
158 3 10.954 1.24427 16.4075
50 4 11.5725 2.22341 12.7515
88 1 11.5293 2.54318 10.8997
280 2 10.2902 1.52149 11.5577
162 3 11.2824 3.7242 17.2041
156 3 14.6996 0.674225 14.961
332 2 16.0073 2.1637 16.7903
330 1 17.1152 0.496097 16.7157
109 3 14.9005 3.63449 14.6316
279 2 14.3026 3.11783 13.9097
301 2 12.4264 3.67976 11.6085
153 3 13.3729 2.18046 16.889
6 4 14.5421 2.0446 15.8444
281 2 12.3029 1.81362 10.4819
161 3 12.6606 1.1414 13.2438
231 2 13.206 7.22276 9.72642
238 2 14.2348 7.03255 15.1349
193 2 17.1363 1.06366 15.686
240 2 12.8747 2.8038 8.80117
181 3 5.71389 10.2697 8.65421
170 3 9.46408 10.3204 8.41945
23 4 3.54314 14.109 7.696
147 3 4.36585 13.7196 6.43633
40 4 4.08775 12.1588 5.51119
144 3 5.56712 8.88225 6.33433
178 3 5.52206 11.8927 4.76492
217 2 4.96994 10.0833 1.66887
53 4 10.4532 8.21025 0.937716
215 2 8.00268 7.81382 7.91682
172 3 9.08007 7.73413 6.49713
63 4 8.86395 13.4648 7.10843
60 4 7.13704 11.7874 4.87547
98 1 8.38319 9.82045 4.02662
177 3 7.73957 12.6038 3.58513
44 4 8.22022 13.4793 2.33791
184 3 7.96052 12.4395 6.24532
180 3 8.16568 12.9037 0.872718
59 4 7.77825 8.73607 2.53499
179 3 6.50169 9.94195 1.62859
308 2 7.4577 9.97029 4.83117
363 2 6.73029 10.7092 2.29651
352 2 8.64299 10.751 8.02272
163 3 11.7763 8.59232 1.76002
291 2 8.27454 8.17867 5.94041
310 2 8.80382 10.7719 3.50802
309 2 9.21271 9.12233 4.35305
176 3 9.12959 8.50829 1.79797
355 2 11.3663 7.63359 3.91511
96 1 11.6726 9.70865 6.18375
56 4 9.79674 9.52998 6.85154
306 2 12.0528 8.81135 6.7454
305 2 11.6557 9.59757 5.04281
303 2 10.1329 10.7561 5.58389
97 1 10.872 13.1768 7.11542
307 2 11.0017 12.2258 7.82256
293 2 6.24798 7.58373 8.38899
338 2 3.72747 14.3069 1.20285
304 2 12.1568 10.7543 6.49247
343 2 11.5352 7.76692 8.72877
322 1 10.6415 8.6593 15.3008
298 2 7.19596 14.002 10.194
48 4 7.32919 14.5404 13.8402
118 3 13.4728 8.62383 11.6751
92 1 7.29947 7.82418 8.77385
202 2 4.1361 13.4237 9.19746
62 4 5.95664 11.3433 9.69119
182 3 4.87464 12.0317 10.7389
189 3 4.88458 11.8856 15.8684
272 2 9.02552 13.1148 9.00714
186 3 9.46422 7.90571 12.8665
270 2 8.08759 12.7938 11.3267
292 2 7.40541 8.82464 9.40679
218 2 7.19236 12.5715 9.2104
85 1 8.21219 13.5883 10.5464
344 2 8.28358 14.097 12.4529
312 2 6.97581 9.62078 11.0239
61 4 9.44238 11.8907 17.0467
65 4 6.16673 11.8035 14.9456
187 3 6.14534 10.5883 13.7284
188 3 6.64643 13.2711 14.4007
99 1 7.38749 10.5254 10.5408
101 1 7.6634 11.2165 16.1154
313 2 7.72307 11.2253 11.3124
317 2 8.70061 12.6495 15.6231
318 2 7.97015 10.1621 15.82
319 2 6.93644 11.1868 17.0612
185 3 7.93293 7.89566 15.08
64 4 9.10816 8.70583 14.2398
314 2 9.11393 10.2761 12.2246
315 2 8.77373 10.4747 13.9639
198 2 8.30012 10.3091 9.70116
224 2 8.88859 14.4502 10.8233
297 2 12.5644 9.06216 9.23672
237 2 13.2982 8.71519 15.261
221 2 9.98464 7.99962 16.1631
331 2 11.3093 14.002 16.6293
199 2 9.57014 12.1011 10.3558
316 2 10.2499 12.4413 13.5615
100 1 10.204 11.2608 13.3651
340 3 11.1196 11.7064 16.585
348 2 11.7361 8.29021 15.1651
16 4 10.4692 11.3133 11.6566
347 2 11.2616 9.20782 17.0831
117 3 11.7186 10.5441 11.1926
346 2 10.5722 9.8433 15.4888
197 2 11.1594 10.7415 13.7957
19 4 12.9242 9.71904 10.7267
365 2 8.84798 10.2532 17.3827
73 1 13.6371 7.82381 14.6
ITEM: TIMESTEP
100
ITEM: NUMBER OF ATOMS
365
ITEM: BOX BOUNDS xy xz yz pp pp pp
-5.5659876451833972e+00 1.7655595785470826e+01 -6.4428994818558056e+00
2.1927009619616555e-01 1.4716444095915433e+01 9.1810762214320507e-01
-1.1415923741646239e-02 1.7475615923741696e+01 -4.8085807888305965e-02
ITEM: ATOMS id type x y z
68 1 -0.939895 5.75786 4.41834
8 4 -0.0266706 4.1033 1.27375
107 3 0.539537 4.71671 6.70856
4 4 0.394615 4.65934 5.13615
10 4 1.15207 4.51062 8.25404
105 3 0.634086 2.86546 0.691304
102 3 1.7713 0.376206 1.74136
120 3 1.53848 4.35878 4.11861
206 2 0.902601 5.57259 1.35366
260 2 1.18981 7.16127 0.483475
2 4 1.45862 1.53201 0.365451
34 4 4.59559 7.42134 5.94912
200 2 0.350923 6.99049 7.36992
119 3 2.37925 1.62585 4.25359
204 2 7.45835 3.40403 4.8478
252 2 2.37684 5.69033 3.25868
253 2 4.01105 6.41073 2.58251
254 2 2.41036 6.54243 1.52582
190 2 4.28358 1.91565 8.30684
21 4 2.93005 3.16304 4.19127
29 4 4.964 3.79769 1.75114
78 1 2.87992 6.47663 2.61669
79 1 3.88035 4.49437 0.380526
123 3 3.82686 3.48911 5.47536
129 3 3.86493 3.30175 2.80996
136 3 4.68811 6.05737 7.76878
25 4 5.29097 3.87401 5.92276
130 3 5.83647 2.58749 1.15364
133 3 5.77539 3.35403 7.74483
164 3 5.90592 5.05167 2.58563
247 2 5.91055 2.61598 4.00344
165 3 5.68652 5.79214 5.37385
257 2 4.16901 5.62044 0.453678
255 2 2.819 4.25197 0.731373
328 2 4.70387 1.04233 3.05672
76 1 6.47766 2.85927 4.96393
1 4 2.44822 0.316543 3.21505
246 2 6.53755 1.9166 5.68649
288 2 7.29079 2.72953 7.81449
121 3 7.57306 0.644611 0.856148
20 4 8.55486 0.596523 2.05774
106 3 1.70655 2.90529 8.52701
22 4 6.48783 1.53732 0.014247
134 3 2.27231 5.6701 8.65057
271 2 -1.07472 6.65197 7.48078
33 4 3.61131 6.7067 8.67057
258 2 2.51047 7.3538 15.491
71 1 -0.18619 4.77791 9.57242
259 2 3.24799 5.6772 17.4539
12 4 0.749082 3.64401 13.6754
111 3 0.735809 5.06907 12.9601
110 3 1.0898 2.31017 12.8813
13 4 0.859191 6.40465 12.1335
227 2 1.68467 3.45001 15.8551
196 2 0.924721 6.13251 10.4737
261 2 1.5515 5.98144 16.5973
69 1 2.14551 3.7364 14.8341
103 3 2.20341 1.26974 10.6188
228 2 2.41751 4.878 14.7368
35 4 4.99848 7.30014 11.4622
173 3 5.39449 7.00374 16.1044
155 3 8.15341 2.06763 10.2145
207 2 0.0710657 4.53368 10.6348
128 3 7.23709 0.491405 12.1988
3 4 2.39172 1.47445 9.02909
7 4 2.32299 1.42979 12.2156
160 3 4.23159 1.072 8.82261
80 1 2.43457 6.43981 17.1546
159 3 8.13581 2.4517 16.3278
208 2 2.42924 6.94895 12.4457
256 2 5.0349 3.90548 16.7952
229 2 3.02963 3.11375 14.5017
24 4 4.79526 2.65069 11.1987
27 4 4.8207 1.30189 15.9174
82 1 4.1861 5.93106 12.6436
122 3 3.55237 2.38126 12.3047
124 3 4.20167 0.324003 14.8639
126 3 3.74465 1.7362 17.0403
132 3 4.73016 3.94464 10.0548
203 2 4.73599 1.15405 10.2911
251 2 4.55313 3.79183 15.137
264 2 5.06849 5.19636 12.8268
265 2 3.42177 5.59298 11.8949
77 1 5.34105 2.93509 15.0459
249 2 5.41081 2.65314 13.9471
294 2 5.68407 5.1661 14.1192
137 3 4.02536 7.21946 10.1612
263 2 3.76914 6.39818 13.5935
232 2 -0.523034 5.88729 9.40641
250 2 6.39771 3.16791 15.5362
28 4 7.56158 1.89837 11.7055
125 3 6.16312 0.612943 16.8422
127 3 6.12838 2.77304 12.0017
93 1 6.76425 5.4876 14.3367
296 2 7.34963 4.63601 14.6341
32 4 5.57606 4.53598 8.78215
157 3 9.01233 0.364587 14.3178
193 2 1.60782 1.09397 15.5292
168 3 7.06857 5.11611 9.14362
169 3 6.45972 6.77857 11.2525
66 1 -1.96305 9.42391 0.36628
135 3 3.51016 7.71278 4.86493
131 3 0.824322 7.79125 3.95169
75 1 2.66174 12.768 8.5691
108 3 -1.65353 7.93493 2.77268
9 4 -2.53544 8.46888 1.58539
15 4 -0.656755 9.23342 6.67273
17 4 -0.840892 12.5027 6.34307
72 1 -0.195494 13.5617 7.795
113 3 -1.33659 8.45937 5.4923
115 3 -0.730352 10.8656 6.66387
356 2 0.0527571 12.893 8.62758
114 3 -2.35156 12.984 6.0443
230 2 -1.2199 8.47863 8.39767
14 4 -3.94848 13.0885 5.79474
70 1 0.246391 7.98453 7.93341
143 3 3.49311 8.29801 7.71768
324 2 -4.06021 13.2121 0.691618
236 2 0.701679 14.0531 7.32205
37 4 1.4729 12.8436 4.08772
141 3 0.269093 12.8729 5.20764
209 2 0.879066 11.7691 2.93288
140 3 1.72193 14.1944 3.295
234 2 1.21647 8.99929 6.83012
245 2 1.96949 12.4072 7.64041
235 2 -1.02997 14.3192 8.08506
327 1 -2.14906 14.42 2.90603
142 3 2.76272 11.2466 0.962763
357 2 -2.66116 11.8574 0.558374
139 3 2.97978 8.82204 0.144137
112 3 -4.50942 13.3998 4.24051
349 2 -1.6783 13.7143 3.66502
145 3 2.87041 12.2867 4.46059
146 3 3.73482 10.8962 6.66239
30 4 2.44731 8.02115 3.68153
36 4 3.29864 9.74144 1.40647
39 4 4.72459 9.72518 7.22283
138 3 2.65757 9.53662 2.81244
329 2 -2.02861 14.0421 1.86657
342 2 -1.41232 10.3606 0.937047
11 4 -0.721815 7.5894 4.08024
345 2 -4.69642 14.5165 8.13115
321 1 -3.24997 12.6484 0.0764252
148 3 4.89503 8.6034 12.3384
325 2 -1.70233 13.2623 16.9355
41 4 4.79811 9.739 13.4146
222 2 -0.380639 8.66626 17.1554
104 3 -3.94858 14.2974 13.1135
5 4 -2.80859 13.5965 13.9435
358 2 -0.846567 13.3478 11.3796
334 2 -1.49926 13.3077 12.9822
323 3 -2.992 12.2492 14.7394
333 1 -0.907548 12.2017 11.4452
18 4 -1.33185 8.61639 12.8626
149 3 -0.710942 10.2089 13.5232
213 2 -1.98682 11.7974 11.5501
211 2 -0.1498 11.6286 10.6886
299 2 0.948292 7.96835 8.75982
331 2 -4.41094 14.0223 16.471
320 4 -3.22304 11.6685 16.239
326 2 -1.67604 10.8538 10.2067
243 2 2.02804 13.2595 9.41024
335 2 1.50298 10.4881 12.2371
42 4 0.211843 11.3457 12.8828
150 3 0.757777 12.4953 13.8159
268 2 1.5222 11.129 10.583
26 4 1.84528 13.8153 13.0757
359 2 1.39661 12.5612 15.4375
341 2 1.14807 12.4607 17.2888
81 1 1.87234 12.6208 16.4617
152 3 2.86766 13.2035 12.0697
151 3 3.68833 10.9054 13.1719
116 3 -0.114686 7.5114 12.5178
266 2 2.55297 9.65348 11.1513
83 1 2.54601 10.6877 10.5854
212 2 2.31832 10.7631 16.0199
262 2 2.47859 13.7228 16.6774
38 4 3.49438 11.7059 16.8643
31 4 4.00735 7.87916 16.3674
210 2 4.39802 8.88813 14.8762
267 2 3.07528 10.6494 9.49497
43 4 3.69843 11.8663 11.6923
244 2 3.41137 11.9105 9.00639
364 2 -2.43838 10.0598 16.9236
52 4 6.82569 5.95497 3.63965
171 3 8.25036 5.34344 4.23214
248 2 8.26946 4.72598 3.40953
282 2 8.10295 5.20405 1.19631
360 2 9.00672 2.25783 2.48138
276 2 9.24424 4.47339 7.8685
290 2 9.34898 6.44771 5.66265
154 3 9.40409 1.21686 8.01441
84 1 13.7399 0.566254 2.46173
286 2 16.3982 0.860315 6.24951
277 2 10.9376 3.36517 8.22756
87 1 9.86009 3.8111 8.63235
242 2 11.8142 1.82196 7.76698
225 2 14.0747 5.64158 5.27572
54 4 11.0542 6.06687 5.13679
167 3 12.1485 6.0426 6.4183
214 2 11.8015 5.99329 2.43458
289 2 11.0386 4.50338 4.11312
339 3 11.3561 1.74751 2.51587
336 1 10.6052 1.63601 1.56915
166 3 10.216 6.57818 0.325521
233 2 13.2036 4.3264 8.16603
192 2 13.8096 1.95123 3.82878
67 1 13.9454 4.18292 1.7637
354 2 13.1923 4.8175 2.39464
191 2 14.792 3.62645 4.87034
47 4 13.0966 5.99648 7.72356
183 3 13.6736 2.6805 4.62346
220 2 12.8397 3.22368 4.41686
226 2 14.526 5.21173 3.35763
74 1 12.7261 2.49542 7.70328
287 2 12.9721 5.94563 3.80098
91 1 11.8791 5.96499 3.48896
285 2 14.7195 0.469425 5.31857
90 1 15.1889 0.958886 6.25272
219 2 15.0357 2.0729 6.25627
241 2 13.6853 1.95997 7.18688
337 2 12.4519 3.28805 7.01869
269 2 13.0928 0.576663 1.481
223 2 13.4942 3.19826 1.56852
362 2 15.4976 0.631237 2.58791
46 4 8.6674 2.37167 8.70435
353 2 14.2218 4.7474 0.270737
351 2 15.2247 3.6377 2.94034
361 2 13.1165 0.384463 3.45111
311 2 14.5909 0.532489 7.94288
295 2 7.88969 5.9373 17.2422
194 2 8.44904 4.15777 16.9554
205 2 8.80064 2.55567 12.796
216 2 7.16813 6.05033 13.4746
174 3 9.21625 6.50511 10.5682
55 4 7.61976 6.42967 9.92302
51 4 10.732 5.16382 17.2997
49 4 9.5439 1.5065 15.3154
57 4 7.03314 6.60992 15.7775
274 2 9.19496 3.47812 14.1881
278 2 9.8353 4.26275 9.65758
283 2 9.88809 5.38841 15.8078
239 2 12.5588 7.3008 13.7197
298 2 14.1931 0.374902 9.94524
195 2 14.8939 4.04911 9.12253
238 2 14.176 6.71034 14.5919
45 4 11.7866 2.23369 17.2195
86 1 10.1753 2.82676 14.1532
58 4 10.2403 6.87723 11.8254
284 2 11.0144 5.63378 13.6687
201 2 11.8704 6.00067 9.55195
94 1 12.4309 7.05699 9.03031
273 2 11.2153 3.4626 14.626
302 2 12.2144 6.58803 11.6989
300 2 10.7739 4.61944 12.0076
95 1 11.1806 5.57577 12.5275
275 2 11.0021 2.97647 10.1204
158 3 10.8248 1.32846 16.3307
50 4 11.5286 2.10675 12.8445
88 1 11.7084 2.54167 10.9538
280 2 10.469 1.27532 11.6655
162 3 11.4711 3.74009 17.263
156 3 14.7193 0.692856 14.8563
332 2 16.0055 2.03798 16.6245
330 1 17.3339 0.54788 16.4864
109 3 14.74 3.73925 14.7108
279 2 14.1164 3.22465 13.9764
301 2 12.2465 3.56394 11.5812
153 3 13.4068 1.99328 16.8274
6 4 14.5456 2.02519 15.7801
281 2 12.48 1.89907 10.5245
161 3 12.6776 1.21193 13.4262
89 1 8.74197 5.13936 17.3428
350 2 16.2383 0.225759 16.6571
240 2 12.9707 2.94957 8.74458
181 3 5.55818 10.5744 8.53489
170 3 9.40844 10.1527 8.43502
23 4 3.48988 14.1718 7.62121
147 3 4.15153 13.717 6.30983
40 4 4.10496 12.0563 5.5171
144 3 5.6816 8.65256 6.16301
178 3 5.59898 11.7042 5.05672
217 2 5.07867 9.91776 1.59686
53 4 10.3568 8.0106 0.810876
215 2 7.86055 7.94758 8.01532
172 3 8.94289 7.69807 6.49586
63 4 8.86558 13.4971 7.11819
60 4 7.1813 11.7776 4.9007
98 1 8.41 9.80644 4.05566
177 3 7.69687 12.4741 3.54026
44 4 8.11483 13.4416 2.31281
184 3 7.99893 12.5532 6.19376
180 3 8.24587 12.8335 0.894593
59 4 7.78857 8.88472 2.46232
179 3 6.55595 10.1236 1.53304
308 2 7.67057 9.97844 5.02415
363 2 6.74606 10.8826 2.15087
352 2 8.64363 10.6606 7.96471
163 3 11.7744 8.26863 1.54131
291 2 8.12916 8.22849 6.21292
310 2 9.03559 10.7027 3.70081
309 2 9.16888 8.91297 4.33601
176 3 9.0547 8.52497 1.54305
175 3 6.97934 7.6312 2.9978
96 1 11.7991 9.74936 6.38949
56 4 9.89912 9.34935 7.06426
306 2 12.1422 9.13665 7.35425
305 2 12.1799 9.29768 5.46891
303 2 10.211 10.3379 5.58124
97 1 10.8715 13.0932 7.09994
307 2 10.9674 11.9513 7.54861
293 2 6.12244 7.84234 8.70399
338 2 3.74162 14.3532 1.41268
304 2 12.1799 10.8378 6.54549
343 2 11.6143 7.72005 8.60036
355 2 11.3793 7.55195 3.85977
322 1 10.6754 8.4891 15.2689
73 1 13.5749 7.63181 14.2058
48 4 7.3633 14.575 13.7945
118 3 13.47 8.70932 11.6283
92 1 7.26067 8.00058 8.90943
202 2 4.45507 13.47 8.93181
62 4 6.0956 11.3831 9.74815
182 3 5.01939 11.8875 10.7586
189 3 4.78353 11.8008 15.8969
272 2 9.05602 13.1169 8.99719
186 3 9.76091 7.86161 12.8955
270 2 7.62829 13.358 11.0642
292 2 7.46566 8.97869 9.53601
218 2 7.23218 12.6644 9.31869
85 1 8.32491 13.954 10.4123
344 2 8.28327 14.449 12.3223
312 2 6.9618 9.79472 11.1771
61 4 9.44155 11.8882 17.0022
65 4 6.21247 11.8096 14.9762
187 3 6.10184 10.5463 13.7741
188 3 6.79537 13.0761 14.2571
99 1 7.60208 10.674 10.7102
101 1 7.47112 11.1695 16.1732
313 2 7.85092 11.6599 11.4083
317 2 8.58931 12.5185 15.5688
318 2 7.52248 10.0076 15.97
319 2 6.951 11.399 17.169
185 3 7.92598 7.71404 14.9895
64 4 9.16231 8.55567 14.1942
314 2 9.1241 10.3419 12.1591
315 2 8.73482 10.304 13.8639
198 2 8.37551 10.3037 10.0547
224 2 9.15001 14.3906 11.0827
297 2 12.4426 9.13075 9.14615
237 2 13.5388 8.41418 15.0213
221 2 10.1399 7.74123 16.1147
231 2 13.1754 7.51813 9.76597
199 2 9.79775 12.7508 10.7489
316 2 10.3167 12.3057 13.747
100 1 10.2472 11.177 13.4641
340 3 11.0684 11.6552 16.615
348 2 11.7519 8.11931 14.8461
16 4 10.5238 11.3966 11.6807
347 2 11.513 9.05723 16.9412
117 3 11.7694 10.6387 11.138
346 2 10.5587 9.71613 15.5359
197 2 11.0797 10.6069 13.9572
19 4 12.9463 9.78696 10.6287
365 2 8.97541 10.2488 17.2271
ITEM: TIMESTEP
200
ITEM: NUMBER OF ATOMS
365
ITEM: BOX BOUNDS xy xz yz pp pp pp
-5.5659876451833972e+00 1.7655595785470826e+01 -6.4428994818558056e+00
2.1052658027242366e-01 1.4716444095915433e+01 9.1810762214320507e-01
-1.1415923741646239e-02 1.7475615923741696e+01 -5.6829323812047861e-02
ITEM: ATOMS id type x y z
68 1 -0.918533 5.78986 4.55601
8 4 -0.116497 4.17348 1.37471
107 3 0.609374 4.66877 6.74278
4 4 0.389415 4.66419 5.20995
10 4 1.22562 4.48864 8.29194
105 3 0.472073 2.8962 0.690449
102 3 1.61083 0.520944 1.72564
120 3 1.53532 4.23226 4.24599
206 2 1.17801 5.38501 1.32224
260 2 1.33685 6.97004 0.549896
2 4 1.44469 1.45089 0.395495
33 4 3.46203 6.71553 8.639
200 2 0.15765 7.16987 7.02598
119 3 2.2668 1.58532 4.1709
204 2 7.29303 3.30669 4.38019
252 2 2.38803 5.47544 3.23714
253 2 4.02909 6.44909 2.70275
254 2 2.45816 6.52014 1.57869
190 2 4.39099 2.04165 8.47931
21 4 2.91498 3.13096 4.22746
29 4 5.03932 3.76223 1.94068
78 1 2.88326 6.42208 2.6539
79 1 4.08577 4.42306 0.399252
123 3 3.98197 3.40154 5.51314
129 3 3.86402 3.27437 2.89983
136 3 4.59357 6.04098 7.78261
25 4 5.45406 3.90498 5.77641
130 3 5.93943 2.63717 1.21102
133 3 5.79969 3.57886 7.58954
164 3 5.89515 5.01633 2.61459
247 2 5.78432 2.15309 4.19544
165 3 5.68888 5.91206 5.29728
257 2 4.46519 5.532 0.389959
255 2 3.02627 4.26965 0.707831
328 2 4.6481 1.04279 2.9444
76 1 6.48031 2.68209 4.94095
1 4 2.45765 0.271903 3.22623
246 2 6.90693 2.01367 5.78085
288 2 7.28823 2.80961 7.89191
121 3 7.44405 0.483754 0.803206
20 4 8.50495 0.589027 1.99839
106 3 1.81256 2.98004 8.70778
22 4 6.43769 1.59587 0.109888
134 3 2.12691 5.77887 8.62161
271 2 -1.42851 6.83704 7.4693
169 3 6.34242 6.55588 11.5439
71 1 -0.202078 4.72863 9.5299
168 3 7.0316 5.19122 9.22093
12 4 0.707037 3.62052 13.7506
111 3 0.855137 5.04589 12.9801
110 3 0.870048 2.36046 12.8889
13 4 0.894631 6.35369 12.1072
227 2 1.44032 3.92827 16.0949
196 2 1.01217 6.02062 10.4312
261 2 1.70673 5.52548 16.9043
69 1 1.86504 3.63393 15.1223
103 3 2.04054 1.02085 10.5734
228 2 2.58421 4.57422 14.6302
35 4 4.89804 7.06263 11.4864
173 3 5.41065 6.93993 15.9938
155 3 8.1852 2.27452 10.3047
207 2 0.0606174 4.47329 10.6331
296 2 7.47751 4.40696 15.3103
3 4 2.41104 1.50785 9.10926
7 4 2.33699 1.44002 12.1428
160 3 4.1994 1.04255 8.81286
80 1 2.57301 6.24642 17.1293
159 3 8.22958 2.28579 16.0367
208 2 2.4305 7.02642 12.2862
256 2 5.20197 3.82929 16.8201
229 2 2.35004 2.56039 15.1103
24 4 4.79032 2.82987 11.1899
27 4 4.79586 1.26623 16.0509
82 1 4.03467 5.97507 12.8658
122 3 3.57416 2.46799 12.1156
124 3 4.09943 0.37435 14.8602
126 3 3.72991 1.99939 17.1539
132 3 4.67388 4.04901 10.1147
203 2 4.95007 1.45335 10.1112
251 2 4.56599 3.63229 15.3489
264 2 4.87978 5.29059 13.2645
265 2 3.14689 5.32945 12.496
77 1 5.35795 2.882 14.9999
249 2 5.59705 2.88119 13.8559
294 2 6.07562 4.78505 13.8899
137 3 3.98094 7.0603 10.1466
263 2 3.84928 6.80243 13.63
232 2 -0.544167 5.72307 9.40531
250 2 6.32386 3.04934 15.5875
28 4 7.54202 1.97258 11.7711
125 3 6.14598 0.785724 16.792
127 3 6.33619 2.94596 12.0947
93 1 7.0578 5.22768 14.4022
258 2 2.43232 7.32845 15.6801
32 4 5.55378 4.58812 8.79433
157 3 8.79736 0.269308 14.2959
116 3 -0.165022 7.40119 12.4197
128 3 7.3326 0.309393 12.0271
259 2 3.53331 5.60744 17.3536
66 1 -1.99324 9.41184 0.236706
135 3 3.60098 7.71032 4.89781
131 3 0.857948 7.76008 3.92132
75 1 2.9437 12.8158 8.72369
108 3 -1.59291 8.00976 2.75882
9 4 -2.52 8.50617 1.59961
15 4 -0.702352 9.38066 6.62115
17 4 -0.76401 12.6634 6.25966
72 1 -0.263428 13.5706 7.78596
113 3 -1.18075 8.56164 5.40822
115 3 -0.775701 10.932 6.87779
356 2 -0.137994 12.6111 8.48802
114 3 -2.41124 13.0355 5.87293
230 2 -1.49896 8.57781 8.13118
14 4 -4.07146 13.1118 5.79114
70 1 0.142805 7.98374 7.81633
143 3 3.42485 8.12944 7.63668
324 2 -4.04407 13.2741 0.41054
236 2 0.705626 14.0204 7.50199
37 4 1.48547 12.8895 3.9651
141 3 0.398636 12.7639 5.16805
209 2 0.953819 11.9858 2.6958
140 3 1.65825 14.4805 3.52576
234 2 1.11633 9.02752 7.32344
245 2 2.0999 12.5402 7.91616
235 2 -1.08479 14.3334 8.21399
327 1 -2.21364 14.3522 2.92405
142 3 2.79678 11.3638 0.969663
357 2 -3.02033 11.808 1.07566
139 3 3.0658 8.86021 0.100006
112 3 -4.69401 13.3347 4.41567
349 2 -1.76635 13.7114 3.78302
145 3 2.88647 12.2123 4.32354
146 3 3.6642 10.8337 6.38013
30 4 2.54189 7.92273 3.67795
36 4 3.30976 9.95065 1.37784
39 4 4.68105 9.81365 7.11453
138 3 2.80455 9.18777 2.62934
329 2 -2.02302 13.9069 1.87563
342 2 -1.57655 10.4225 0.753233
11 4 -0.692845 7.6379 4.07774
345 2 -4.8874 14.6772 8.08756
321 1 -3.20364 12.4144 0.167525
34 4 4.71346 7.47729 6.01164
148 3 5.0234 8.61589 12.2782
325 2 -1.28403 12.7509 17.137
41 4 4.86104 9.69329 13.4719
222 2 -0.343665 8.53895 17.17
104 3 -4.0806 14.5017 13.0803
5 4 -2.84102 13.7766 13.8178
358 2 -0.277933 13.1548 11.4183
334 2 -1.71651 13.346 12.6228
323 3 -2.97814 12.4691 14.7711
333 1 -0.762096 12.0762 11.4387
18 4 -1.28764 8.44595 12.7641
149 3 -0.615573 10.0479 13.6209
213 2 -1.89621 12.0542 11.4538
211 2 -0.207863 11.3207 10.5997
299 2 0.529795 7.56646 8.82976
331 2 -4.39398 14.202 16.214
320 4 -3.2614 11.5937 16.302
326 2 -1.73903 11.1109 9.9952
243 2 2.52119 13.2693 9.69148
335 2 1.30987 10.3632 11.8174
42 4 0.171912 11.1761 12.8634
150 3 0.83898 12.3524 13.6608
268 2 1.65345 11.5128 10.2644
26 4 1.83238 13.8473 13.0827
359 2 1.46295 12.4149 15.2526
341 2 1.05865 12.2258 17.0986
81 1 1.86222 12.478 16.3551
152 3 2.9706 13.3204 12.1194
151 3 3.6266 10.5441 13.0476
244 2 3.6297 11.862 8.86815
266 2 2.37508 9.80799 10.8918
83 1 2.5814 10.7951 10.4375
212 2 2.51302 10.6427 15.9722
262 2 2.36481 13.6612 16.515
38 4 3.57361 11.7692 16.7365
31 4 4.06395 7.77792 16.4322
210 2 4.45454 8.70417 14.9275
267 2 3.13914 10.6869 9.4141
43 4 3.62977 11.8112 11.737
19 4 -2.8407 9.98902 10.6083
364 2 -2.30087 10.0407 16.6202
118 3 -2.07382 9.09833 11.5833
52 4 6.83462 6.032 3.53321
171 3 8.25339 5.35837 4.20491
248 2 8.48898 5.00384 3.31198
282 2 7.92957 4.54177 1.2806
360 2 8.92244 2.34684 2.18031
276 2 9.37014 4.61295 8.23567
290 2 9.2387 6.35665 5.71602
154 3 9.27891 1.05921 8.17938
84 1 13.6141 0.527689 2.36913
286 2 16.3268 0.761853 5.93281
277 2 10.9763 3.41958 8.38742
89 1 7.90351 4.66659 0.147752
242 2 11.8321 1.83878 7.67202
225 2 14.1693 5.76702 5.40721
54 4 10.9309 6.05371 5.33188
167 3 12.0206 5.96003 6.46548
214 2 11.7176 5.85259 2.50106
289 2 10.9535 4.54835 4.27778
339 3 11.2579 1.86691 2.47881
336 1 10.5582 1.59095 1.51576
166 3 10.1018 6.59904 0.365014
233 2 13.5475 4.33432 7.9293
192 2 13.5936 1.95875 3.71639
67 1 13.9215 4.38482 1.80586
354 2 13.173 4.96813 2.51527
191 2 14.8624 3.58267 4.97648
47 4 12.9448 5.98002 7.71633
183 3 13.6734 2.70632 4.43977
220 2 12.8551 3.16988 4.26225
226 2 14.5172 5.24809 3.46408
74 1 12.6996 2.56139 7.64328
287 2 13.0231 5.94378 3.92493
91 1 11.8517 6.05137 3.64728
285 2 14.4597 0.842109 5.39122
90 1 15.1786 1.05377 6.19961
219 2 15.2287 2.19327 6.29764
241 2 13.5978 2.03873 6.97153
337 2 12.2252 3.44547 7.1494
269 2 13.1918 0.457264 1.22929
223 2 13.5019 3.40452 1.54163
362 2 15.191 0.796614 2.82807
311 2 14.1602 0.316179 7.56777
353 2 14.2944 5.22846 0.495354
351 2 15.209 3.74415 3.02879
361 2 12.8296 0.384017 3.22092
240 2 12.9911 2.74808 8.72951
295 2 7.96043 5.97218 17.1902
194 2 8.62477 3.613 17.0862
205 2 8.78361 2.68306 12.8238
216 2 7.86716 5.43023 13.6947
174 3 9.1099 6.38788 10.5172
55 4 7.47109 6.44662 10.1171
51 4 10.5219 5.13901 17.3049
49 4 9.44776 1.73418 15.2517
57 4 6.96907 6.61333 15.5743
274 2 9.42353 3.72088 14.0282
278 2 9.90573 3.88912 10.0743
283 2 9.45803 5.17809 15.8826
239 2 12.4842 7.28007 13.4438
298 2 14.6408 0.499246 9.84399
195 2 14.8699 3.99696 9.14492
238 2 13.9482 6.43876 14.2979