ITEM: TIMESTEP
0
ITEM: NUMBER OF ATOMS
365
ITEM: BOX BOUNDS xy xz yz pp pp pp
-5.5659876451833972e+00 1.7655595785470826e+01 -6.4428994818558056e+00
2.2801361211990781e-01 1.4716444095915433e+01 9.1810762214320507e-01
-1.1415923741646239e-02 1.7475615923741696e+01 -3.9342291964563701e-02
ITEM: ATOMS id type x y z
68 1 -0.977762 5.60841 4.28911
8 4 -0.0202607 4.07078 1.15888
107 3 0.637631 4.82926 6.68417
4 4 0.308474 4.61964 5.14524
10 4 1.29439 4.47707 8.24601
105 3 0.681409 2.78023 0.682379
102 3 1.82877 0.501123 1.871
120 3 1.49763 4.43801 4.18018
206 2 1.07023 5.51012 1.11769
260 2 1.10281 7.32458 0.339206
2 4 1.52695 1.44996 0.406842
34 4 4.50066 7.39131 6.1844
200 2 0.265051 6.89746 7.45234
119 3 2.24272 1.74385 4.19474
204 2 7.36806 3.41936 4.74519
252 2 2.65542 5.61948 3.03501
253 2 3.98877 6.70864 2.30424
254 2 2.34982 6.61529 1.37881
190 2 4.21874 1.8152 8.3477
21 4 2.80581 3.28516 4.26932
29 4 4.8659 3.89688 1.75414
78 1 2.88214 6.53797 2.43222
79 1 3.80073 4.56624 0.364988
123 3 3.69935 3.54998 5.61808
129 3 3.88458 3.46134 2.978
136 3 4.89796 6.05874 7.96625
25 4 5.2454 4.01849 5.85813
130 3 5.76722 2.84668 0.921214
133 3 5.64832 3.42985 7.71946
164 3 5.84263 5.15014 2.38615
247 2 5.79556 2.43704 4.2441
165 3 5.67455 5.7714 5.34965
257 2 3.92362 5.66117 0.389351
255 2 2.76362 4.23452 0.82291
328 2 4.7849 1.06211 3.05993
76 1 6.46383 2.85283 5.14113
1 4 2.48798 0.361398 3.30542
246 2 6.723 2.09696 5.95348
288 2 7.05148 2.6423 7.76381
121 3 7.52604 0.837285 1.00506
20 4 8.63948 0.498208 2.05006
106 3 1.82999 2.96682 8.50004
345 2 1.55022 0.374717 7.93181
11 4 -0.706639 7.47104 4.04744
271 2 -1.16631 6.55722 7.54261
33 4 3.59069 6.56204 8.7234
22 4 6.48277 1.55188 0.00259823
134 3 2.2318 5.67934 8.68466
168 3 7.13956 4.96687 9.29287
71 1 -0.0898034 4.77722 9.53537
259 2 3.15523 5.76091 17.356
12 4 0.853921 3.69221 13.5254
111 3 0.846492 4.97042 12.6086
110 3 0.979162 2.16238 12.8519
13 4 0.937236 6.41735 12.1117
227 2 1.43553 4.15075 15.7802
196 2 0.74028 6.38568 10.4202
261 2 1.47485 5.9783 16.5364
69 1 2.08368 4.02981 14.8413
103 3 1.92341 1.07518 10.7087
228 2 2.6483 5.04001 14.5427
35 4 5.02944 7.31175 11.4452
173 3 5.54739 7.07047 16.2419
155 3 8.24699 2.09796 10.1823
207 2 0.246481 4.67031 10.5995
128 3 7.28919 0.535241 12.2249
3 4 2.32168 1.51457 9.02092
7 4 2.26278 1.34641 12.2608
160 3 3.9606 0.872865 8.9169
80 1 2.32889 6.5593 16.9901
159 3 8.31272 2.17879 16.0841
208 2 2.52152 7.01921 12.4703
256 2 4.96566 3.94288 16.7682
229 2 2.75008 3.10597 14.958
24 4 4.9073 2.64091 11.2174
27 4 4.93995 1.36619 15.9024
82 1 4.11387 5.80474 12.3344
122 3 3.7708 2.49115 12.2369
124 3 4.34499 0.322951 14.7733
126 3 3.77989 1.72172 17.0046
132 3 4.69391 3.87275 10.1248
203 2 4.94147 1.27597 10.1468
251 2 4.47002 3.71758 15.0624
264 2 4.91661 5.02536 12.1553
265 2 3.16935 5.48543 11.7561
77 1 5.33991 3.00369 15.0398
249 2 5.55061 2.69133 13.9545
294 2 5.70869 5.31606 14.279
137 3 4.0813 7.18473 10.1601
263 2 3.95146 6.13648 13.4081
232 2 -0.504131 5.8686 9.2895
250 2 6.28123 3.39907 15.5252
28 4 7.80707 1.95594 11.7187
125 3 6.33535 0.573791 16.7808
127 3 6.41932 2.80934 11.8244
93 1 6.82349 5.45959 14.3139
296 2 7.38473 4.44425 14.3663
32 4 5.65514 4.39315 8.91361
66 1 -1.99419 9.39366 0.172781
135 3 3.44863 7.6097 5.0805
131 3 0.838277 7.74141 3.95533
75 1 2.48996 12.7501 8.41853
108 3 -1.45535 7.9792 2.58429
9 4 -2.46646 8.53159 1.5248
15 4 -0.556527 9.11268 6.62623
17 4 -0.746885 12.4655 6.42197
72 1 -0.362979 13.4276 7.92485
113 3 -1.15902 8.3036 5.31782
115 3 -0.739042 10.6348 6.92671
356 2 -0.129924 12.5906 8.67543
114 3 -2.30359 12.8217 6.11495
230 2 -1.28328 8.25761 8.44936
14 4 -3.89612 13.0597 5.89579
70 1 0.120383 7.91828 8.03861
143 3 3.33405 8.3296 7.72992
324 2 -3.61323 13.4932 0.5386
236 2 0.557035 14.0441 7.64714
37 4 1.52842 12.7002 3.96651
141 3 0.369178 12.705 5.13028
209 2 1.03305 11.6489 2.69043
140 3 1.86839 14.1247 3.33928
234 2 1.17953 8.70143 6.64907
245 2 2.00142 12.4572 7.32275
235 2 -1.20615 14.1064 8.26485
327 1 -2.15036 14.5755 2.73415
142 3 2.70023 11.3942 0.815196
357 2 -3.06683 11.6849 0.800422
139 3 3.08121 8.91551 0.286229
112 3 -4.43491 13.3413 4.36932
349 2 -1.71498 13.5947 3.18419
145 3 2.80889 11.9552 4.56466
146 3 3.92423 11.0386 6.83292
30 4 2.43296 7.96892 3.65773
36 4 3.22973 9.90848 1.48313
39 4 4.73261 9.82136 7.35778
138 3 2.79205 9.24362 2.81052
329 2 -2.34882 14.5418 1.62322
342 2 -1.40631 10.3394 0.52212
148 3 4.85074 8.62931 12.3319
325 2 -1.34679 12.7651 16.824
41 4 4.77 9.79098 13.407
222 2 -0.538779 8.4549 16.968
104 3 -4.02898 14.3139 13.023
5 4 -2.70556 13.8013 13.7269
358 2 -0.372947 13.2105 11.379
334 2 -1.61411 13.5796 12.4409
323 3 -2.92705 12.2917 14.7669
333 1 -0.810839 12.1603 11.3509
18 4 -1.39716 8.52379 13.0169
149 3 -0.912867 10.1947 13.3972
213 2 -1.99334 12.1407 11.1734
211 2 -0.1842 11.412 10.6352
299 2 0.92641 8.13649 8.84198
364 2 -2.38252 10.0459 16.6673
320 4 -3.2293 11.6091 16.201
326 2 -1.71325 10.7928 10.1791
243 2 1.69234 13.0671 9.18097
335 2 1.36807 10.4376 12.1786
42 4 0.0881723 11.3044 12.8869
150 3 0.698914 12.5214 13.772
268 2 1.57152 11.2109 10.3796
26 4 1.88283 13.8891 13.1167
359 2 1.45547 12.6292 15.3934
341 2 1.28735 12.4555 17.2785
81 1 1.98512 12.7013 16.4084
152 3 2.8251 13.3738 11.9426
151 3 3.57691 10.8491 13.0543
157 3 2.65634 14.6505 14.3399
266 2 2.42423 9.68691 11.0341
83 1 2.51776 10.6342 10.5279
212 2 2.2872 10.7943 15.9768
262 2 2.62003 13.7524 16.4856
38 4 3.53688 11.7017 16.7638
31 4 4.10688 7.91828 16.4951
210 2 4.32396 8.87481 14.9573
267 2 3.15285 10.5806 9.60134
43 4 3.5254 11.8679 11.7588
244 2 3.07042 11.798 8.79988
258 2 2.59285 7.62851 15.4975
116 3 0.0150268 7.53864 12.7111
321 1 -2.28136 12.537 17.4701
52 4 6.71098 5.99121 3.56171
171 3 8.33086 5.47402 4.06903
248 2 8.28319 4.83418 3.34214
282 2 7.93163 4.8866 1.14079
360 2 9.15434 2.16338 2.54114
276 2 9.18314 4.3115 7.73094
290 2 9.35608 6.60498 5.41199
154 3 9.3098 1.02456 7.93732
84 1 13.8163 0.577507 2.40375
286 2 16.4938 0.64519 6.19103
277 2 10.7123 3.23674 8.14177
87 1 9.70794 3.70117 8.5307
242 2 11.7468 1.75856 7.74134
225 2 14.0479 5.60724 5.06689
54 4 11.0685 6.31453 5.08025
167 3 12.0716 6.26357 6.3609
214 2 11.5439 6.14385 2.35652
289 2 11.0057 4.62893 3.87295
339 3 11.408 1.97805 2.5218
336 1 10.6757 1.55039 1.65028
166 3 10.3753 6.69946 0.333908
233 2 13.263 4.34064 8.0898
192 2 13.6807 2.02097 3.78787
67 1 14.044 3.71761 1.81704
354 2 13.2869 4.33876 2.3617
191 2 14.9045 3.39179 4.91983
47 4 13.023 6.04228 7.70695
183 3 13.5833 2.62979 4.63003
220 2 12.8894 3.20929 4.40206
226 2 14.5253 4.91337 3.31477
74 1 12.6489 2.49265 7.73711
287 2 12.9629 5.82602 3.63848
91 1 11.8348 5.85936 3.44052
285 2 14.5626 0.526501 5.55658
90 1 15.2124 0.961777 6.46602
219 2 15.1499 2.09897 6.48569
241 2 13.6401 1.86606 7.26024
337 2 12.4426 3.3444 7.06256
269 2 13.2751 0.576723 1.33764
223 2 13.6094 2.68896 1.4984
362 2 15.5231 0.770864 2.54649
46 4 8.49008 2.31006 8.65573
353 2 14.2436 4.47556 0.274932
89 1 7.92989 4.81374 0.0221941
361 2 13.1348 0.428979 3.33195
311 2 14.3557 0.408586 7.98203
351 2 15.3295 3.51552 2.92586
175 3 6.90582 7.45222 3.09408
295 2 7.83969 5.73347 16.966
194 2 8.68232 3.74454 17.0835
205 2 8.98322 2.72184 12.7433
216 2 7.18312 6.03082 13.4344
174 3 9.34561 6.32589 10.4831
55 4 7.60453 6.37876 10.0556
51 4 10.6217 5.18145 17.1895
49 4 9.63371 1.58436 15.3786
57 4 6.93598 6.73423 15.6646
274 2 9.41568 3.5927 14.1178
278 2 9.79621 4.25297 9.52202
283 2 9.58544 5.56377 15.8382
239 2 12.7417 7.3835 14.1051
169 3 6.64327 6.85234 11.1733
195 2 15.0782 3.95579 9.21249
350 2 16.0508 0.396329 17.1419
45 4 11.8505 2.2645 17.2538
86 1 10.3086 2.88741 14.1826
58 4 10.0357 7.02027 11.688
284 2 10.8042 6.0075 13.6775
201 2 11.6891 5.9065 9.56565
94 1 12.2579 6.91502 9.12182
273 2 11.2671 3.39143 14.6488
302 2 12.0989 6.64285 11.8173
300 2 10.8381 4.82469 12.077
95 1 10.9837 5.85411 12.5289
275 2 10.9284 3.01655 10.0831
158 3 10.954 1.24427 16.4075
50 4 11.5725 2.22341 12.7515
88 1 11.5293 2.54318 10.8997
280 2 10.2902 1.52149 11.5577
162 3 11.2824 3.7242 17.2041
156 3 14.6996 0.674225 14.961
332 2 16.0073 2.1637 16.7903
330 1 17.1152 0.496097 16.7157
109 3 14.9005 3.63449 14.6316
279 2 14.3026 3.11783 13.9097
301 2 12.4264 3.67976 11.6085
153 3 13.3729 2.18046 16.889
6 4 14.5421 2.0446 15.8444
281 2 12.3029 1.81362 10.4819
161 3 12.6606 1.1414 13.2438
231 2 13.206 7.22276 9.72642
238 2 14.2348 7.03255 15.1349
193 2 17.1363 1.06366 15.686
240 2 12.8747 2.8038 8.80117
181 3 5.71389 10.2697 8.65421
170 3 9.46408 10.3204 8.41945
23 4 3.54314 14.109 7.696
147 3 4.36585 13.7196 6.43633
40 4 4.08775 12.1588 5.51119
144 3 5.56712 8.88225 6.33433
178 3 5.52206 11.8927 4.76492
217 2 4.96994 10.0833 1.66887
53 4 10.4532 8.21025 0.937716
215 2 8.00268 7.81382 7.91682
172 3 9.08007 7.73413 6.49713
63 4 8.86395 13.4648 7.10843
60 4 7.13704 11.7874 4.87547
98 1 8.38319 9.82045 4.02662
177 3 7.73957 12.6038 3.58513
44 4 8.22022 13.4793 2.33791
184 3 7.96052 12.4395 6.24532
180 3 8.16568 12.9037 0.872718
59 4 7.77825 8.73607 2.53499
179 3 6.50169 9.94195 1.62859
308 2 7.4577 9.97029 4.83117
363 2 6.73029 10.7092 2.29651
352 2 8.64299 10.751 8.02272
163 3 11.7763 8.59232 1.76002
291 2 8.27454 8.17867 5.94041
310 2 8.80382 10.7719 3.50802
309 2 9.21271 9.12233 4.35305
176 3 9.12959 8.50829 1.79797
355 2 11.3663 7.63359 3.91511
96 1 11.6726 9.70865 6.18375
56 4 9.79674 9.52998 6.85154
306 2 12.0528 8.81135 6.7454
305 2 11.6557 9.59757 5.04281
303 2 10.1329 10.7561 5.58389
97 1 10.872 13.1768 7.11542
307 2 11.0017 12.2258 7.82256
293 2 6.24798 7.58373 8.38899
338 2 3.72747 14.3069 1.20285
304 2 12.1568 10.7543 6.49247
343 2 11.5352 7.76692 8.72877
322 1 10.6415 8.6593 15.3008
298 2 7.19596 14.002 10.194
48 4 7.32919 14.5404 13.8402
118 3 13.4728 8.62383 11.6751
92 1 7.29947 7.82418 8.77385
202 2 4.1361 13.4237 9.19746
62 4 5.95664 11.3433 9.69119
182 3 4.87464 12.0317 10.7389
189 3 4.88458 11.8856 15.8684
272 2 9.02552 13.1148 9.00714
186 3 9.46422 7.90571 12.8665
270 2 8.08759 12.7938 11.3267
292 2 7.40541 8.82464 9.40679
218 2 7.19236 12.5715 9.2104
85 1 8.21219 13.5883 10.5464
344 2 8.28358 14.097 12.4529
312 2 6.97581 9.62078 11.0239
61 4 9.44238 11.8907 17.0467
65 4 6.16673 11.8035 14.9456
187 3 6.14534 10.5883 13.7284
188 3 6.64643 13.2711 14.4007
99 1 7.38749 10.5254 10.5408
101 1 7.6634 11.2165 16.1154
313 2 7.72307 11.2253 11.3124
317 2 8.70061 12.6495 15.6231
318 2 7.97015 10.1621 15.82
319 2 6.93644 11.1868 17.0612
185 3 7.93293 7.89566 15.08
64 4 9.10816 8.70583 14.2398
314 2 9.11393 10.2761 12.2246
315 2 8.77373 10.4747 13.9639
198 2 8.30012 10.3091 9.70116
224 2 8.88859 14.4502 10.8233
297 2 12.5644 9.06216 9.23672
237 2 13.2982 8.71519 15.261
221 2 9.98464 7.99962 16.1631
331 2 11.3093 14.002 16.6293
199 2 9.57014 12.1011 10.3558
316 2 10.2499 12.4413 13.5615
100 1 10.204 11.2608 13.3651
340 3 11.1196 11.7064 16.585
348 2 11.7361 8.29021 15.1651
16 4 10.4692 11.3133 11.6566
347 2 11.2616 9.20782 17.0831
117 3 11.7186 10.5441 11.1926
346 2 10.5722 9.8433 15.4888
197 2 11.1594 10.7415 13.7957
19 4 12.9242 9.71904 10.7267
365 2 8.84798 10.2532 17.3827
73 1 13.6371 7.82381 14.6
ITEM: TIMESTEP
100
ITEM: NUMBER OF ATOMS
365
ITEM: BOX BOUNDS xy xz yz pp pp pp
-5.5659876451833972e+00 1.7664339301394570e+01 -6.4428994818558056e+00
2.2801361211990781e-01 1.4716444095915433e+01 9.2685113806694730e-01
-1.1415923741646239e-02 1.7475615923741696e+01 -3.9342291964563701e-02
ITEM: ATOMS id type x y z
68 1 -0.93768 5.76008 4.41834
8 4 -0.026028 4.10394 1.27375
107 3 0.542897 4.72007 6.70856
4 4 0.397189 4.66191 5.13615
10 4 1.1562 4.51476 8.25404
105 3 0.634438 2.86581 0.691304
102 3 1.77218 0.377082 1.74136
120 3 1.54054 4.36084 4.11861
206 2 0.903284 5.57328 1.35366
260 2 1.19005 7.16151 0.483475
2 4 1.45881 1.5322 0.365451
34 4 4.59857 7.42432 5.94912
200 2 0.354613 6.99418 7.36992
119 3 2.38138 1.62798 4.25359
204 2 7.46078 3.40646 4.8478
252 2 2.37847 5.69197 3.25868
253 2 4.01235 6.41202 2.58251
254 2 2.41113 6.5432 1.52582
190 2 4.28774 1.91981 8.30684
21 4 2.93216 3.16515 4.19127
29 4 4.96488 3.79857 1.75114
78 1 2.88123 6.47794 2.61669
79 1 3.88055 4.49456 0.380526
123 3 3.8296 3.49185 5.47536
129 3 3.86634 3.30316 2.80996
136 3 4.692 6.06126 7.76878
25 4 5.29394 3.87698 5.92276
130 3 5.83705 2.58807 1.15364
133 3 5.77926 3.35791 7.74483
164 3 5.90722 5.05297 2.58563
247 2 5.91255 2.61799 4.00344
165 3 5.68921 5.79484 5.37385
257 2 4.16925 5.62067 0.453678
255 2 2.81937 4.25234 0.731373
328 2 4.7054 1.04386 3.05672
76 1 6.48015 2.86175 4.96393
1 4 2.44983 0.318156 3.21505
246 2 6.5404 1.91945 5.68649
288 2 7.2947 2.73345 7.81449
121 3 7.57349 0.645045 0.856148
20 4 8.55589 0.597557 2.05774
106 3 1.71082 2.90955 8.52701
22 4 6.48785 1.53733 0.014247
134 3 2.27664 5.67443 8.65057
271 2 -1.07098 6.65572 7.48078
33 4 3.61566 6.71104 8.67057
258 2 2.51822 7.36155 15.491
71 1 -0.181398 4.7827 9.57242
259 2 3.25672 5.68593 17.4539
12 4 0.755925 3.65085 13.6754
111 3 0.742294 5.07555 12.9601
110 3 1.09624 2.31662 12.8813
13 4 0.865263 6.41073 12.1335
227 2 1.69261 3.45794 15.8551
196 2 0.929964 6.13775 10.4737
261 2 1.55981 5.98974 16.5973
69 1 2.15293 3.74382 14.8341
103 3 2.20872 1.27506 10.6188
228 2 2.42488 4.88537 14.7368
35 4 5.00422 7.30588 11.4622
173 3 5.40255 7.0118 16.1044
155 3 8.15852 2.07274 10.2145
207 2 0.0763888 4.539 10.6348
128 3 7.24319 0.49751 12.1988
3 4 2.39624 1.47897 9.02909
7 4 2.3291 1.4359 12.2156
160 3 4.23601 1.07642 8.82261
80 1 2.44315 6.44839 17.1546
159 3 8.14398 2.45987 16.3278
208 2 2.43547 6.95518 12.4457
256 2 5.04331 3.91388 16.7952
229 2 3.03689 3.121 14.5017
24 4 4.80087 2.6563 11.1987
27 4 4.82866 1.30985 15.9174
82 1 4.19243 5.93739 12.6436
122 3 3.55852 2.38741 12.3047
124 3 4.20911 0.331441 14.8639
126 3 3.75317 1.74473 17.0403
132 3 4.7352 3.94967 10.0548
203 2 4.74114 1.1592 10.2911
251 2 4.56071 3.79941 15.137
264 2 5.07491 5.20278 12.8268
265 2 3.42773 5.59893 11.8949
77 1 5.34858 2.94262 15.0459
249 2 5.41779 2.66012 13.9471
294 2 5.69114 5.17317 14.1192
137 3 4.03045 7.22455 10.1612
263 2 3.77595 6.40499 13.5935
232 2 -0.518325 5.892 9.40641
250 2 6.40548 3.17569 15.5362
28 4 7.56743 1.90423 11.7055
125 3 6.17154 0.62137 16.8422
127 3 6.13439 2.77905 12.0017
93 1 6.77143 5.49477 14.3367
296 2 7.35695 4.64333 14.6341
32 4 5.58045 4.54037 8.78215
157 3 9.0195 0.371752 14.3178
193 2 1.61559 1.10174 15.5292
168 3 7.07315 5.12069 9.14362
169 3 6.46536 6.7842 11.2525
66 1 -1.96286 9.4241 0.36628
135 3 3.5126 7.71522 4.86493
131 3 0.826303 7.79323 3.95169
75 1 2.66603 12.7723 8.5691
108 3 -1.65214 7.93632 2.77268
9 4 -2.53464 8.46968 1.58539
15 4 -0.653413 9.23676 6.67273
17 4 -0.837715 12.5059 6.34307
72 1 -0.191591 13.5656 7.795
113 3 -1.33383 8.46212 5.4923
115 3 -0.727014 10.869 6.66387
356 2 0.0570766 12.8974 8.62758
114 3 -2.34853 12.9871 6.0443
230 2 -1.21569 8.48284 8.39767
14 4 -3.94558 13.0914 5.79474
70 1 0.250363 7.9885 7.93341
143 3 3.49698 8.30188 7.71768
324 2 -4.05986 13.2125 0.691618
236 2 0.705346 14.0567 7.32205
37 4 1.47495 12.8456 4.08772
141 3 0.271702 12.8755 5.20764
209 2 0.880538 11.7705 2.93288
140 3 1.72359 14.196 3.295
234 2 1.21989 9.00271 6.83012
245 2 1.97332 12.4111 7.64041
235 2 -1.02592 14.3232 8.08506
327 1 -2.14761 14.4214 2.90603
142 3 2.7632 11.2471 0.962763
357 2 -2.66088 11.8577 0.558374
139 3 2.97986 8.82212 0.144137
112 3 -4.50729 13.4019 4.24051
349 2 -1.67646 13.7162 3.66502
145 3 2.87265 12.2889 4.46059
146 3 3.73816 10.8995 6.66239
30 4 2.44915 8.023 3.68153
36 4 3.29935 9.74215 1.40647
39 4 4.72821 9.7288 7.22283
138 3 2.65898 9.53803 2.81244
329 2 -2.02767 14.0431 1.86657
342 2 -1.41185 10.3611 0.937047
11 4 -0.719769 7.59144 4.08024
345 2 -4.69235 14.5205 8.13115
321 1 -3.24993 12.6485 0.0764252
148 3 4.9012 8.60958 12.3384
325 2 -1.69385 13.2707 16.9355
41 4 4.80483 9.74571 13.4146
222 2 -0.372055 8.67485 17.1554
104 3 -3.94202 14.304 13.1135
5 4 -2.80162 13.6035 13.9435
358 2 -0.840871 13.3535 11.3796
334 2 -1.49276 13.3142 12.9822
323 3 -2.98462 12.2566 14.7394
333 1 -0.901819 12.2074 11.4452
18 4 -1.32541 8.62283 12.8626
149 3 -0.704175 10.2157 13.5232
213 2 -1.98104 11.8032 11.5501
211 2 -0.14445 11.6339 10.6886
299 2 0.952678 7.97274 8.75982
331 2 -4.4027 14.0305 16.471
320 4 -3.21492 11.6766 16.239
326 2 -1.67094 10.8589 10.2067
243 2 2.03275 13.2642 9.41024
335 2 1.50911 10.4942 12.2371
42 4 0.21829 11.3521 12.8828
150 3 0.764691 12.5022 13.8159
268 2 1.5275 11.1343 10.583
26 4 1.85182 13.8219 13.0757
359 2 1.40433 12.5689 15.4375
341 2 1.15672 12.4693 17.2888
81 1 1.88058 12.629 16.4617
152 3 2.8737 13.2095 12.0697
151 3 3.69492 10.912 13.1719
116 3 -0.108422 7.51766 12.5178
266 2 2.55855 9.65906 11.1513
83 1 2.55131 10.693 10.5854
212 2 2.32633 10.7711 16.0199
262 2 2.48693 13.7312 16.6774
38 4 3.50282 11.7143 16.8643
31 4 4.01554 7.88735 16.3674
210 2 4.40546 8.89557 14.8762
267 2 3.08004 10.6541 9.49497
43 4 3.70428 11.8722 11.6923
244 2 3.41587 11.915 9.00639
364 2 -2.42992 10.0683 16.9236
52 4 6.82751 5.9568 3.63965
171 3 8.25248 5.34556 4.23214
248 2 8.27118 4.72769 3.40953
282 2 8.10355 5.20466 1.19631
360 2 9.00797 2.25908 2.48138
276 2 9.24818 4.47733 7.8685
290 2 9.35181 6.45054 5.66265
154 3 9.4081 1.22088 8.01441
84 1 13.7411 0.56749 2.46173
286 2 16.4013 0.863445 6.24951
277 2 10.9417 3.36929 8.22756
87 1 9.86442 3.81543 8.63235
242 2 11.8181 1.82585 7.76698
225 2 14.0773 5.64422 5.27572
54 4 11.0568 6.06945 5.13679
167 3 12.1517 6.04582 6.4183
214 2 11.8027 5.99451 2.43458
289 2 11.0406 4.50545 4.11312
339 3 11.3573 1.74878 2.51587
336 1 10.606 1.6368 1.56915
166 3 10.2162 6.57835 0.325521
233 2 13.2077 4.33049 8.16603
192 2 13.8115 1.95315 3.82878
67 1 13.9463 4.1838 1.7637
354 2 13.1935 4.81871 2.39464
191 2 14.7945 3.6289 4.87034
47 4 13.1004 6.00035 7.72356
183 3 13.6759 2.68281 4.62346
220 2 12.8419 3.22589 4.41686
226 2 14.5277 5.21341 3.35763
74 1 12.73 2.49928 7.70328
287 2 12.974 5.94754 3.80098
91 1 11.8808 5.96674 3.48896
285 2 14.7222 0.47209 5.31857
90 1 15.192 0.962018 6.25272
219 2 15.0389 2.07604 6.25627
241 2 13.6889 1.96357 7.18688
337 2 12.4554 3.29157 7.01869
269 2 13.0935 0.57741 1.481
223 2 13.495 3.19905 1.56852
362 2 15.4989 0.632537 2.58791
46 4 8.67176 2.37602 8.70435
353 2 14.222 4.74754 0.270737
351 2 15.2262 3.63918 2.94034
361 2 13.1182 0.386195 3.45111
311 2 14.5948 0.536466 7.94288
295 2 7.89831 5.94593 17.2422
194 2 8.45753 4.16625 16.9554
205 2 8.80704 2.56207 12.796
216 2 7.17487 6.05707 13.4746
174 3 9.22154 6.5104 10.5682
55 4 7.62472 6.43463 9.92302
51 4 10.7406 5.17248 17.2997
49 4 9.55156 1.51416 15.3154
57 4 7.04103 6.61781 15.7775
274 2 9.20206 3.48522 14.1881
278 2 9.84014 4.26759 9.65758
283 2 9.896 5.39632 15.8078
239 2 12.5657 7.30767 13.7197
298 2 14.1981 0.379881 9.94524
195 2 14.8985 4.05367 9.12253
238 2 14.1833 6.71764 14.5919
45 4 11.7952 2.24231 17.2195
86 1 10.1824 2.83385 14.1532
58 4 10.2462 6.88315 11.8254
284 2 11.0212 5.64062 13.6687
201 2 11.8752 6.00545 9.55195
94 1 12.4355 7.06151 9.03031
273 2 11.2226 3.46992 14.626
302 2 12.2202 6.59388 11.6989
300 2 10.7799 4.62545 12.0076
95 1 11.1868 5.58204 12.5275
275 2 11.0071 2.98154 10.1204
158 3 10.833 1.33663 16.3307
50 4 11.535 2.11317 12.8445
88 1 11.7139 2.54716 10.9538
280 2 10.4748 1.28116 11.6655
162 3 11.4797 3.74872 17.263
156 3 14.7267 0.70029 14.8563
332 2 16.0138 2.0463 16.6245
330 1 17.3422 0.556128 16.4864
109 3 14.7473 3.74661 14.7108
279 2 14.1234 3.23165 13.9764
301 2 12.2523 3.56973 11.5812
153 3 13.4152 2.0017 16.8274
6 4 14.5535 2.03309 15.7801
281 2 12.4853 1.90433 10.5245
161 3 12.6843 1.21865 13.4262
89 1 8.75065 5.14803 17.3428
350 2 16.2466 0.234093 16.6571
240 2 12.975 2.95395 8.74458
181 3 5.56246 10.5786 8.53489
170 3 9.41266 10.1569 8.43502
23 4 3.4937 14.1756 7.62121
147 3 4.15469 13.7202 6.30983
40 4 4.10773 12.0591 5.5171
144 3 5.68468 8.65565 6.16301
178 3 5.60152 11.7067 5.05672
217 2 5.07948 9.91856 1.59686
53 4 10.3572 8.01101 0.810876
215 2 7.86456 7.95159 8.01532
172 3 8.94615 7.70132 6.49586
63 4 8.86915 13.5007 7.11819
60 4 7.18375 11.7801 4.9007
98 1 8.41203 9.80847 4.05566
177 3 7.69865 12.4758 3.54026
44 4 8.11599 13.4427 2.31281
184 3 8.00203 12.5563 6.19376
180 3 8.24633 12.8339 0.894593
59 4 7.7898 8.88596 2.46232
179 3 6.55672 10.1243 1.53304
308 2 7.67309 9.98095 5.02415
363 2 6.74714 10.8836 2.15087
352 2 8.64761 10.6646 7.96471
163 3 11.7752 8.2694 1.54131
291 2 8.13227 8.2316 6.21292
310 2 9.03744 10.7045 3.70081
309 2 9.17106 8.91515 4.33601
176 3 9.05547 8.52575 1.54305
175 3 6.98085 7.63271 2.9978
96 1 11.8023 9.75256 6.38949
56 4 9.90266 9.35289 7.06426
306 2 12.1459 9.14033 7.35425
305 2 12.1826 9.30042 5.46891
303 2 10.2138 10.3407 5.58124
97 1 10.8751 13.0968 7.09994
307 2 10.9712 11.9551 7.54861
293 2 6.1268 7.8467 8.70399
338 2 3.74233 14.3539 1.41268
304 2 12.1831 10.841 6.54549
343 2 11.6186 7.72436 8.60036
355 2 11.3813 7.55389 3.85977
322 1 10.683 8.49674 15.2689
73 1 13.582 7.63892 14.2058
48 4 7.3702 14.5819 13.7945
118 3 13.4758 8.71514 11.6283
92 1 7.26513 8.00504 8.90943
202 2 4.45954 13.4745 8.93181
62 4 6.10048 11.388 9.74815
182 3 5.02477 11.8929 10.7586
189 3 4.79149 11.8087 15.8969
272 2 9.06053 13.1214 8.99719
186 3 9.76736 7.86807 12.8955
270 2 7.63383 13.3636 11.0642
292 2 7.47043 8.98346 9.53601
218 2 7.23684 12.669 9.31869
85 1 8.33012 13.9592 10.4123
344 2 8.28944 14.4552 12.3223
312 2 6.96739 9.80031 11.1771
61 4 9.45005 11.8967 17.0022
65 4 6.21996 11.8171 14.9762
187 3 6.10873 10.5532 13.7741
188 3 6.8025 13.0832 14.2571
99 1 7.60744 10.6793 10.7102
101 1 7.47921 11.1776 16.1732
313 2 7.85663 11.6656 11.4083
317 2 8.5971 12.5263 15.5688
318 2 7.53047 10.0156 15.97
319 2 6.95959 11.4076 17.169
185 3 7.93348 7.72154 14.9895
64 4 9.16942 8.56278 14.1942
314 2 9.13018 10.348 12.1591
315 2 8.74176 10.311 13.8639
198 2 8.38054 10.3088 10.0547
224 2 9.15556 14.3961 11.0827
297 2 12.4471 9.13533 9.14615
237 2 13.5463 8.4217 15.0213
221 2 10.148 7.74929 16.1147
231 2 13.1803 7.52302 9.76597
199 2 9.80313 12.7562 10.7489
316 2 10.3236 12.3126 13.747
100 1 10.254 11.1837 13.4641
340 3 11.0767 11.6635 16.615
348 2 11.7593 8.12674 14.8461
16 4 10.5296 11.4024 11.6807
347 2 11.5215 9.06571 16.9412
117 3 11.775 10.6443 11.138
346 2 10.5665 9.7239 15.5359
197 2 11.0867 10.6139 13.9572
19 4 12.9516 9.79228 10.6287
365 2 8.98403 10.2574 17.2271
ITEM: TIMESTEP
200
ITEM: NUMBER OF ATOMS
365
ITEM: BOX BOUNDS xy xz yz pp pp pp
-5.5659876451833972e+00 1.7673082817318310e+01 -6.4428994818558056e+00
2.2801361211990781e-01 1.4716444095915433e+01 9.3559465399068742e-01
-1.1415923741646239e-02 1.7475615923741696e+01 -3.9342291964563701e-02
ITEM: ATOMS id type x y z
68 1 -0.915105 5.7951 4.55624
8 4 -0.115113 4.17468 1.37429
107 3 0.615389 4.67652 6.74308
4 4 0.393898 4.66863 5.21035
10 4 1.23363 4.49775 8.29157
105 3 0.472789 2.89716 0.690269
102 3 1.61168 0.524401 1.72681
120 3 1.53972 4.23605 4.24661
206 2 1.18664 5.38728 1.326
260 2 1.33563 6.96842 0.553562
2 4 1.44472 1.45116 0.39557
33 4 3.47051 6.72441 8.63947
200 2 0.165065 7.17547 7.02633
119 3 2.27126 1.58941 4.17183
204 2 7.29735 3.31075 4.3791
252 2 2.39108 5.47859 3.2354
253 2 4.03237 6.45123 2.70122
254 2 2.45918 6.52279 1.57796
190 2 4.39967 2.04918 8.47886
21 4 2.91886 3.13516 4.22801
29 4 5.04123 3.76378 1.94053
78 1 2.88611 6.42472 2.6536
79 1 4.08618 4.4227 0.399078
123 3 3.98729 3.40617 5.51397
129 3 3.86756 3.27776 2.89994
136 3 4.60182 6.04915 7.78275
25 4 5.45946 3.91057 5.77644
130 3 5.94036 2.63747 1.2113
133 3 5.8075 3.58678 7.58948
164 3 5.89881 5.01923 2.6142
247 2 5.78838 2.15708 4.19621
165 3 5.69329 5.9175 5.29697
257 2 4.46648 5.53133 0.389148
255 2 3.0272 4.27047 0.708697
328 2 4.65096 1.04694 2.94154
76 1 6.48521 2.68698 4.94125
1 4 2.4608 0.275295 3.22668
246 2 6.91281 2.01952 5.78154
288 2 7.29711 2.81833 7.89197
121 3 7.44401 0.484568 0.802608
20 4 8.50587 0.590999 1.99775
106 3 1.82152 2.98821 8.70763
22 4 6.43714 1.59626 0.109728
134 3 2.13545 5.7878 8.62146
271 2 -1.4201 6.84222 7.46853
169 3 6.35349 6.56618 11.545
71 1 -0.19346 4.73806 9.52945
168 3 7.0415 5.20104 9.22077
12 4 0.720806 3.63432 13.7506
111 3 0.8682 5.05899 12.9796
110 3 0.882479 2.37314 12.8897
13 4 0.906368 6.36615 12.1063
227 2 1.45774 3.94251 16.0952
196 2 1.0207 6.03153 10.431
261 2 1.72511 5.54216 16.9052
69 1 1.88032 3.64805 15.1214
103 3 2.05061 1.03112 10.5742
228 2 2.59973 4.58811 14.629
35 4 4.90954 7.07435 11.4868
173 3 5.42642 6.95603 15.9937
155 3 8.19572 2.28468 10.3042
207 2 0.0697248 4.48293 10.6322
296 2 7.4913 4.42245 15.3116
3 4 2.42008 1.5163 9.10909
7 4 2.34877 1.452 12.1435
160 3 4.20888 1.05102 8.8136
80 1 2.59005 6.26306 17.1316
159 3 8.24602 2.30195 16.0371
208 2 2.44279 7.0381 12.2832
256 2 5.21914 3.8454 16.82
229 2 2.36629 2.57489 15.11
24 4 4.8016 2.84116 11.1899
27 4 4.81222 1.28191 16.0512
82 1 4.04722 5.98919 12.8671
122 3 3.58575 2.47925 12.115
124 3 4.11498 0.388896 14.8603
126 3 3.74677 2.01604 17.1533
132 3 4.68393 4.0599 10.1148
203 2 4.96079 1.4644 10.111
251 2 4.58153 3.64778 15.35
264 2 4.8928 5.30659 13.2701
265 2 3.15939 5.34261 12.4981
77 1 5.37333 2.89722 14.9997
249 2 5.61207 2.89729 13.8554
294 2 6.09047 4.80145 13.8871
137 3 3.99128 7.07062 10.1471
263 2 3.86091 6.81977 13.6291
232 2 -0.535901 5.73254 9.40528
250 2 6.34055 3.06404 15.5861
28 4 7.55401 1.98386 11.7712
125 3 6.16265 0.802722 16.7928
127 3 6.34839 2.95809 12.0944
93 1 7.07242 5.24298 14.4012
258 2 2.44752 7.34356 15.6832
32 4 5.5633 4.5976 8.79418
157 3 8.81157 0.283078 14.2959
116 3 -0.152051 7.41452 12.4195
128 3 7.34477 0.321207 12.0284
259 2 3.55047 5.6241 17.3547
66 1 -1.99284 9.41274 0.236043
135 3 3.60541 7.71533 4.89828
131 3 0.861131 7.76366 3.9215
75 1 2.95238 12.8247 8.7237
108 3 -1.59054 8.01308 2.75941
9 4 -2.51799 8.50812 1.59996
15 4 -0.695602 9.38637 6.62053
17 4 -0.758422 12.6692 6.26025
72 1 -0.255585 13.5781 7.78601
113 3 -1.17592 8.5669 5.40767
115 3 -0.769965 10.9379 6.87802
356 2 -0.129076 12.6183 8.48601
114 3 -2.40575 13.0419 5.87376
230 2 -1.49211 8.58417 8.13034
14 4 -4.06564 13.1178 5.7918
70 1 0.150694 7.9906 7.81517
143 3 3.43212 8.13647 7.63751
324 2 -4.04322 13.2753 0.403745
236 2 0.713505 14.0281 7.50122
37 4 1.49003 12.8934 3.9653
141 3 0.403926 12.7685 5.16818
209 2 0.957582 11.9881 2.69648
140 3 1.66148 14.4839 3.52488
234 2 1.12351 9.03421 7.32044
245 2 2.10715 12.5485 7.91741
235 2 -1.07722 14.3411 8.21444
327 1 -2.21072 14.3559 2.92259
142 3 2.79734 11.3652 0.968778
357 2 -3.024 11.809 1.07656
139 3 3.06581 8.86034 0.100483
112 3 -4.68925 13.3393 4.41626
349 2 -1.7613 13.7157 3.78117
145 3 2.89132 12.2168 4.32406
146 3 3.67054 10.8401 6.38125
30 4 2.54562 7.92585 3.67807
36 4 3.31121 9.95224 1.37763
39 4 4.68845 9.82072 7.11446
138 3 2.80753 9.19019 2.62944
329 2 -2.02296 13.9098 1.87361
342 2 -1.57492 10.4232 0.751461
11 4 -0.689326 7.64191 4.0777
345 2 -4.87898 14.6854 8.0881
321 1 -3.20294 12.4132 0.166678
34 4 4.71946 7.48443 6.01124
148 3 5.03652 8.62856 12.2774
325 2 -1.26661 12.7619 17.1372
41 4 4.8751 9.70687 13.4716
222 2 -0.324863 8.55429 17.1712
104 3 -4.06792 14.5151 13.0818
5 4 -2.82642 13.7909 13.8184
358 2 -0.268295 13.1667 11.4149
334 2 -1.70382 13.3611 12.6217
323 3 -2.96263 12.4833 14.7708
333 1 -0.749923 12.0885 11.4395
18 4 -1.27514 8.45869 12.7645
149 3 -0.603217 10.0611 13.6211
213 2 -1.8844 12.0641 11.4576
211 2 -0.195723 11.3313 10.6
299 2 0.53754 7.57476 8.82928
331 2 -4.37615 14.2174 16.2155
320 4 -3.24515 11.6094 16.3017
326 2 -1.72814 11.1235 9.99634
243 2 2.5311 13.2801 9.69192
335 2 1.3211 10.3748 11.819
42 4 0.184488 11.1886 12.8639
150 3 0.852256 12.3655 13.6615
268 2 1.66354 11.5215 10.2648
26 4 1.84573 13.8602 13.0832
359 2 1.47641 12.4291 15.2523
341 2 1.07505 12.2406 17.1005
81 1 1.8773 12.493 16.3557
152 3 2.98269 13.3331 12.1192
151 3 3.64037 10.5572 13.0477
244 2 3.63837 11.8706 8.86968
266 2 2.38734 9.81838 10.8951
83 1 2.59213 10.805 10.4388
212 2 2.5297 10.6581 15.9739
262 2 2.37916 13.6771 16.5134
38 4 3.5899 11.7866 16.7363
31 4 4.08059 7.79466 16.4328
210 2 4.46961 8.7188 14.9281
267 2 3.14882 10.6952 9.41553
43 4 3.64168 11.8229 11.7372
19 4 -2.82909 10.0003 10.6084
364 2 -2.28656 10.0592 16.6209
118 3 -2.06206 9.10972 11.5834
52 4 6.83777 6.0353 3.53305
171 3 8.25787 5.36196 4.20434
248 2 8.4943 5.00818 3.31145
282 2 7.92937 4.54077 1.27918
360 2 8.91921 2.34982 2.1768
276 2 9.37952 4.62217 8.23733
290 2 9.24252 6.36273 5.71828
154 3 9.28748 1.06746 8.17893
84 1 13.6216 0.531117 2.36351
286 2 16.3338 0.768302 5.93159
277 2 10.9854 3.42773 8.38692
89 1 7.90362 4.66602 0.147226
242 2 11.8396 1.84573 7.67245
225 2 14.1738 5.76582 5.4084
54 4 10.9361 6.05935 5.33357
167 3 12.0264 5.96669 6.46665
214 2 11.7216 5.8567 2.50116
289 2 10.9586 4.5522 4.27882
339 3 11.2542 1.87249 2.48113
336 1 10.5579 1.5934 1.51575
166 3 10.1022 6.59892 0.365607
233 2 13.5519 4.34444 7.93545
192 2 13.6013 1.95846 3.71319
67 1 13.9256 4.38823 1.80593
354 2 13.1785 4.97214 2.51527
191 2 14.8673 3.58658 4.97687
47 4 12.9524 5.98821 7.71669
183 3 13.6791 2.71062 4.43888
220 2 12.8567 3.16799 4.2616
226 2 14.5219 5.25271 3.46478
74 1 12.708 2.56838 7.64373
287 2 13.0293 5.94836 3.92575
91 1 11.8559 6.05424 3.64757
285 2 14.4653 0.846465 5.39065
90 1 15.1855 1.05943 6.19894
219 2 15.2349 2.19895 6.29638
241 2 13.6055 2.04467 6.97109
337 2 12.2344 3.45354 7.15018
269 2 13.205 0.459347 1.22388
223 2 13.5075 3.40823 1.53725
362 2 15.2013 0.789235 2.82891
311 2 14.1684 0.323299 7.5675
353 2 14.2975 5.23658 0.49204
351 2 15.2113 3.74742 3.03462
361 2 12.8339 0.387684 3.20974
240 2 13.0013 2.75352 8.73034
295 2 7.97715 5.98794 17.1931
194 2 8.64133 3.62834 17.0844
205 2 8.79762 2.69524 12.8237
216 2 7.88173 5.44502 13.6966
174 3 9.11941 6.39851 10.5178
55 4 7.481 6.45638 10.1176
51 4 10.5392 5.15626 17.3052
49 4 9.46302 1.75006 15.2516
57 4 6.98435 6.6282 15.5745
274 2 9.43446 3.73133 14.0349
278 2 9.91652 3.897 10.0746
283 2 9.47251 5.19567 15.8827
239 2 12.497 7.29319 13.4457
298 2 14.6476 0.50904 9.84302
195 2 14.8788 4.00605 9.14465
238 2 13.9618 6.45167 14.2996