ITEM: TIMESTEP
0
ITEM: NUMBER OF ATOMS
271
ITEM: BOX BOUNDS xy xz yz pp pp pp
-7.2018999999999993e+00 1.4748699999999999e+01 -6.1971999999999996e+00
-1.8606000000000000e+00 1.3431800000000001e+01 -1.0046999999999999e+00
0.0000000000000000e+00 1.6609600000000000e+01 -1.8606000000000000e+00
ITEM: ATOMS id type q x y z
3 4 1.26212 1.0968 1.14485 5.27303
4 4 1.09977 0.355197 3.43892 7.34377
125 1 -0.660917 3.16843 3.92753 0.182045
21 4 1.25226 3.10061 5.80387 4.99939
41 2 -0.0220919 2.6579 1.01188 4.64074
50 2 0.0257756 3.80822 2.70874 1.41461
52 2 0.00925557 3.05492 4.12264 5.4056
246 2 -0.000257055 2.79129 0.0258595 3.18949
69 2 0.151029 -0.965068 5.54958 7.24335
68 2 0.188993 0.0619096 5.52613 5.66455
227 4 1.01216 1.36534 2.41719 0.516178
231 3 -0.772638 -0.121815 2.70073 0.232218
83 2 0.159791 0.465827 4.58573 2.54999
84 2 0.165395 -0.138688 5.63532 0.991871
120 1 -0.674103 -0.635034 4.97902 6.32568
126 1 -0.668252 -0.0121619 5.62658 2.14352
138 3 -0.835562 0.105318 1.38863 4.01972
139 3 -0.808936 0.881637 -0.12771 6.1125
140 3 -0.814166 1.0408 2.40266 6.25533
229 2 0.0173127 1.85119 3.59565 1.65928
204 2 0.140008 4.52779 3.37644 4.65667
155 3 -0.812623 2.25549 5.89637 3.63431
201 2 0.247923 5.2238 0.226608 3.17891
202 2 0.115046 3.88966 1.57943 3.66047
203 2 0.214484 3.93602 -0.191202 4.48871
206 2 0.167919 3.53739 2.74018 6.11224
213 1 -0.675013 4.49928 0.631997 3.96848
218 3 -0.820424 5.74843 0.622683 6.87489
67 2 0.165668 -1.5058 4.51128 5.81626
193 4 1.13832 5.68509 1.40358 5.44915
230 3 -0.82715 1.76633 0.971633 1.02395
255 2 0.168655 -1.92357 4.26646 2.23269
80 2 0.192038 2.83199 5.06647 0.490896
18 4 0.989238 5.17819 3.94887 1.15868
65 2 0.187632 -1.76127 3.08961 8.13779
214 1 -0.693447 4.59888 2.95525 5.73668
82 2 0.145364 -0.942165 5.94485 2.68814
14 4 1.31762 6.27071 -0.682471 7.68226
74 2 0.210073 3.09618 2.93088 8.12832
149 3 -0.785093 2.54464 -0.185294 8.3004
15 4 1.06525 3.0767 0.851202 9.5001
17 4 1.28596 5.14293 0.718424 11.7994
151 3 -0.829409 5.19808 -0.276979 13.1107
42 2 -0.0233955 -0.427106 3.58886 12.095
48 2 0.0361898 1.98768 2.22507 9.79488
266 2 0.00248183 3.7302 3.24422 16.5742
119 1 -0.665205 -0.831603 2.52865 8.4838
66 2 0.16834 -0.443938 2.90491 9.49222
153 3 -0.780624 1.32398 4.28182 8.40746
141 3 -0.807605 -2.2241 4.86462 10.559
76 2 0.232297 3.9874 3.373 9.68621
75 2 0.169543 4.73626 2.06735 8.52003
81 2 0.146142 2.65446 1.99662 15.7388
270 2 0.143343 -0.786621 -0.00986288 9.289
91 2 0.167102 1.74055 4.37057 15.1561
123 1 -0.681239 3.73892 2.54983 9.01121
228 2 0.0387915 1.3348 0.87038 15.5995
150 3 -0.797708 3.8747 0.362545 10.7887
64 2 0.190082 -1.00319 1.35229 8.3882
6 4 1.24986 -0.828491 5.2039 11.3853
19 4 0.991989 1.46797 6.69139 2.48125
2 4 1.26129 -4.06344 12.2559 7.08815
8 4 1.00617 -1.9272 8.41242 6.5552
9 4 1.48748 -2.55739 10.5619 4.59108
253 2 0.164659 -2.0123 12.497 1.37198
61 2 0.163157 -4.86224 9.84359 7.16564
239 2 0.184715 -3.46748 9.27315 0.562742
25 4 1.33882 -0.0246406 11.1939 2.99406
27 4 1.34294 1.83469 7.76687 6.99093
29 4 1.35303 1.55936 10.7573 5.76581
44 2 0.00111528 -1.02309 6.94231 6.30418
45 2 -0.0464291 -3.3708 7.71965 7.03032
51 2 0.0200889 0.638112 8.09608 3.17272
60 2 0.15385 -3.05272 11.1843 0.0839046
171 3 -0.832234 0.95359 11.7799 6.76982
170 3 -0.788726 1.27843 9.1185 6.28828
93 2 0.164136 -0.56868 8.70624 2.25415
94 2 0.18903 1.15988 9.26907 1.89761
95 2 0.184182 -0.208092 9.91219 0.956142
117 1 -0.658773 -2.85287 12.2949 0.41836
118 1 -0.680262 -5.18333 10.8321 7.62754
130 1 -0.695029 0.105113 9.53896 1.92925
142 3 -0.750479 -5.06935 11.7587 2.02971
143 3 -0.817943 -3.93151 10.1544 3.85182
144 3 -0.817461 -2.02989 9.12749 5.16613
145 3 -0.796473 -3.02341 11.659 5.91946
159 3 -0.785771 2.41928 7.01213 1.08898
160 3 -0.845938 0.370383 12.539 2.11766
161 3 -0.847366 -1.58919 11.2952 3.51178
166 3 -0.811642 -1.40554 9.33379 7.70449
24 4 1.02436 3.45385 7.89339 0.114997
260 2 0.2555 -5.98016 11.9652 5.22285
169 3 -0.817718 1.05181 10.9727 4.19409
165 3 -0.86151 2.34355 6.64534 6.08401
1 4 1.09316 -4.17004 13.0008 1.65287
238 2 0.0233433 -5.35153 10.0426 15.7865
167 3 -0.810094 -0.979763 11.8655 8.44581
10 4 1.26586 -2.28218 7.22931 13.2196
11 4 1.15714 -3.11252 9.70338 11.2979
16 4 1.25577 -0.326979 11.7609 13.6345
28 4 1.58139 -1.08732 10.3008 8.99046
30 4 1.31226 -1.18158 9.31806 15.1138
43 2 -0.0172104 -2.02058 6.86277 8.76734
46 2 -0.0198863 -3.71666 6.38646 13.5203
47 2 0.0722656 -4.87232 9.94228 11.1954
31 4 1.37994 1.14388 10.173 11.2562
129 1 -0.642281 2.48882 5.2662 14.995
240 1 -0.681883 -4.59966 7.49751 16.0506
63 2 0.175698 -5.09998 10.9059 8.73562
72 2 0.194459 -3.51856 10.9746 13.1864
267 2 0.192964 2.23586 6.04289 14.2096
99 2 0.202517 1.6921 7.67443 11.3951
100 2 0.229964 0.146578 8.26568 12.4205
121 1 -0.676103 -3.81676 11.2683 12.098
175 3 -0.826018 0.139607 9.98861 9.94676
132 1 -0.670238 1.24724 8.47089 12.1174
262 2 0.153431 -3.76363 8.0936 15.5541
146 3 -0.828214 -1.2758 6.20053 12.5501
147 3 -0.825464 -2.69607 8.51122 12.2426
176 3 -0.857069 0.539075 11.0762 12.4225
70 2 0.15685 -4.9588 11.611 12.1347
157 3 -0.833894 2.84991 6.12862 9.91386
168 3 -0.829787 -2.44636 10.1442 9.96577
172 3 -0.836101 -1.74103 7.85962 14.5206
173 3 -0.902951 0.161766 9.20113 15.7974
174 3 -0.84042 -1.34557 10.639 14.2682
252 2 0.179279 -3.86064 11.2069 16.2248
20 4 1.48474 1.32897 5.82787 9.27589
5 4 1.21882 -3.05799 5.73338 9.40188
101 2 0.171825 1.92779 8.59143 13.0583
154 3 -0.860816 0.299754 5.61541 10.4611
164 3 -0.797943 0.858059 7.03122 8.32105
55 2 0.0227909 -2.23592 9.52681 16.5066
71 2 0.2511 -3.0931 12.1171 11.6835
268 2 0.228493 13.7112 -0.328407 7.37231
226 3 -0.833038 11.0921 4.8244 8.2178
256 2 0.14558 11.0615 4.45022 1.69356
73 2 0.0181701 9.13279 3.07917 0.405685
105 2 0.172914 7.31991 3.90917 4.38122
257 1 -0.641624 12.0975 3.93271 1.49846
224 3 -0.799714 11.1736 0.27898 7.1867
111 2 0.155652 8.57676 5.7507 1.7722
33 4 1.20365 5.88861 5.80004 3.78305
106 2 0.154775 7.07253 4.88204 5.88777
222 3 -0.840214 12.4333 1.16909 5.00876
152 3 -0.829726 6.35469 3.15006 0.528433
177 3 -0.808193 5.4772 4.73317 2.54747
192 4 1.25763 13.3008 1.31239 3.67974
223 3 -0.864311 9.82241 0.807475 4.82493
194 4 1.25928 8.62148 1.40213 4.0185
196 4 1.49434 11.0855 1.21602 5.78135
197 4 1.04005 10.2593 3.84931 7.27655
212 2 0.184876 7.81754 4.39504 7.99662
199 2 -0.0316252 8.92926 2.99287 3.86378
200 2 0.0162001 8.89323 4.5918 6.42839
205 2 0.159851 5.27473 3.50453 6.46646
217 1 -0.663483 8.45149 3.43412 7.90661
225 3 -0.832402 10.8949 2.81347 6.27144
247 2 0.0518401 11.933 2.27968 1.39825
198 2 -0.0120637 12.7892 2.79529 2.90737
219 3 -0.800716 12.8507 0.0747367 2.69533
220 3 -0.861928 8.58388 0.917044 2.47505
221 3 -0.817295 7.17473 1.41003 4.77438
134 1 -0.678364 7.2207 4.92276 4.76814
107 2 0.157062 8.10998 5.61314 4.46717
211 2 0.174952 7.97539 2.59703 7.34258
113 2 0.157104 8.16715 6.58084 0.0441233
22 4 0.97189 5.82944 4.00165 11.9337
148 3 -0.805211 6.60434 -1.13108 16.4302
57 2 -0.00490104 8.64694 5.17833 11.2564
77 2 0.155271 6.42963 1.12848 9.68937
49 2 0.0901577 7.0568 -1.36053 14.8352
79 2 0.143998 7.58606 0.919279 11.2488
53 2 0.0313844 6.05493 4.45912 13.7631
86 2 0.164611 8.23707 4.01619 13.4447
122 1 -0.680681 7.66881 1.3745 15.1935
124 1 -0.65955 6.6863 0.522011 10.6021
127 1 -0.647331 7.55662 4.55082 12.7651
158 3 -0.834001 5.06064 5.08657 11.0992
195 4 1.07822 11.4171 -0.3935 8.59098
207 2 0.156006 11.5282 0.39472 10.8945
208 2 0.162119 9.80292 0.531443 10.1547
209 2 0.171601 11.2056 1.76309 9.57526
210 2 0.127165 9.02941 2.9444 8.93339
254 2 0.0377651 11.4427 2.93775 16.5585
215 1 -0.67811 10.9298 0.746111 9.99395
249 2 0.00664667 7.37635 -0.0909358 8.83146
92 2 0.120763 3.63826 4.94442 15.0715
233 4 1.24678 11.3437 -0.734114 14.0201
234 2 -0.0188587 10.1289 -0.246654 12.9322
235 3 -0.781095 11.4202 0.414628 15.1946
85 2 0.0516669 7.59475 3.73356 11.2549
265 2 0.166556 8.58308 0.843096 14.9854
248 2 0.144281 6.67819 1.08688 14.3782
264 2 0.158096 7.7784 2.49375 15.3847
216 1 -0.659042 13.4638 -0.633718 8.50512
236 3 -0.780959 12.6429 -0.9491 13.1477
156 3 -0.76511 5.23298 2.33488 11.9839
13 4 1.03725 6.55924 0.472031 16.5259
78 2 0.181023 6.55212 -0.65631 10.424
232 4 0.966805 11.9607 1.1693 16.5671
112 2 0.17432 9.66391 7.19134 1.09731
12 4 1.38175 1.7735 13.1946 1.48078
32 4 1.1273 5.71965 12.3644 2.11632
36 4 1.22629 7.55256 7.92136 1.96461
7 4 1.33733 9.36748 10.4017 3.22705
110 2 0.181276 7.79284 9.82922 8.07577
96 2 0.243898 3.46177 12.3068 5.41876
97 2 0.154655 3.87555 10.394 5.33062
98 2 0.243976 3.86564 11.2575 7.04695
102 2 0.17996 5.72557 10.3832 3.49392
103 2 0.1586 4.1501 11.5486 3.58525
104 2 0.200249 5.68633 11.9074 4.74952
259 2 0.191633 7.27033 11.0189 4.32733
109 2 0.181639 5.95539 9.71183 7.83055
261 1 -0.666977 8.41252 10.9538 4.71528
114 2 0.203916 4.22018 7.81091 7.11914
178 3 -0.791048 4.60467 6.28816 4.81247
116 2 0.18041 3.59343 9.62979 7.22598
131 1 -0.670509 3.41563 11.2256 5.96224
133 1 -0.661242 5.35689 11.4397 3.73327
136 1 -0.671837 8.62919 6.69448 1.09166
137 1 -0.656058 3.49187 8.50118 7.64602
163 3 -0.823387 2.99028 12.0797 1.11777
250 2 0.0854346 4.39753 13.0308 1.29374
182 3 -0.768515 6.79503 7.21733 3.16166
183 3 -0.778136 8.61709 9.16405 2.63815
184 3 -0.793175 6.35255 8.5999 0.688538
185 3 -0.816279 6.41876 11.3345 1.12029
62 2 0.173329 8.56741 11.3092 7.18417
258 2 0.172183 8.56788 10.1035 5.44424
56 2 0.0149492 6.50355 8.08572 6.90849
54 2 0.0898247 5.01466 7.62243 0.877991
37 4 1.56198 6.75238 10.1769 0.0564527
23 4 1.34535 4.36564 6.32323 10.3479
26 4 1.51615 1.63391 9.12054 16.212
263 2 0.152039 9.95608 6.53371 15.5056
34 4 1.02631 6.63059 7.39584 8.51173
35 4 1.2091 8.99199 6.65146 10.3414
38 4 1.2096 4.1075 10.5974 10.244
39 4 1.21323 7.79085 8.60669 12.3501
40 4 1.20859 6.51171 11.4079 11.8063
58 2 0.0113967 4.60032 8.9706 10.0108
59 2 -0.0204174 6.32857 7.7185 12.3728
269 2 0.159331 7.42223 11.7159 8.80727
88 2 0.142402 3.25276 8.13829 11.8395
89 2 0.14084 5.14227 8.80509 11.6148
90 2 0.140421 4.82835 7.04921 12.4858
237 4 1.08619 8.63865 8.54013 15.3655
271 3 -0.80183 7.27029 8.30598 16.186
128 1 -0.680046 4.46589 7.89322 11.6747
108 2 0.134365 6.6553 9.42175 9.6247
245 3 -0.862385 2.62593 9.76219 15.0698
179 3 -0.83466 5.29948 6.90324 9.23349
87 2 0.127507 7.79381 5.64824 12.5744
181 3 -0.8008 7.94271 6.60576 8.97189
186 3 -0.791034 4.4618 11.4302 8.88417
187 3 -0.851696 2.54392 10.4984 10.6062
188 3 -0.84446 8.80672 7.95598 11.2821
189 3 -0.826822 8.46757 8.50004 13.8175
190 3 -0.889849 5.03618 11.2632 11.3865
191 3 -0.877768 7.27873 10.0476 11.981
241 4 1.34279 4.13739 9.82815 14.6774
242 2 0.0108139 4.22941 9.29007 13.06
243 3 -0.867468 4.92716 8.70598 15.3605
244 3 -0.833714 4.72632 11.294 14.6959
180 3 -0.835126 10.4441 6.53364 9.92091
115 2 0.185682 3.42794 8.39287 8.7824
162 3 -0.811235 2.05036 7.58863 16.4764
135 1 -0.689048 6.82307 9.32022 8.39919
251 2 -0.0197077 7.18533 12.238 10.3703
ITEM: TIMESTEP
100
ITEM: NUMBER OF ATOMS
271
ITEM: BOX BOUNDS xy xz yz pp pp pp
-7.2063772666666663e+00 1.4748699999999999e+01 -6.1971999999999996e+00
-1.8606000000000000e+00 1.3431800000000001e+01 -1.0091772666666667e+00
0.0000000000000000e+00 1.6609600000000000e+01 -1.8606000000000000e+00
ITEM: ATOMS id type q x y z
3 4 1.25213 1.04475 1.28498 5.27143
4 4 1.12391 0.327537 3.60332 7.34006
125 1 -0.68138 3.24349 3.62266 0.124633
21 4 1.25833 3.04178 5.7992 4.93186
41 2 -0.0207225 2.70613 1.22819 4.82574
50 2 0.0277764 3.89208 2.61113 1.52308
52 2 0.0161005 3.02632 4.23738 5.60762
246 2 0.00791733 3.00338 -0.188894 3.28896
69 2 0.16009 -1.61846 5.37338 6.91383
68 2 0.193918 0.0726384 5.81067 6.1764
227 4 1.01357 1.45548 2.29515 0.506663
231 3 -0.777085 0.0516571 2.79691 0.18652
83 2 0.144731 -0.0852804 5.10389 3.12268
84 2 0.197626 0.0910633 5.24595 1.22693
120 1 -0.681133 -0.690761 5.00021 6.38254
126 1 -0.672931 -0.10451 5.81943 2.16066
138 3 -0.83076 0.130258 1.43605 3.98249
139 3 -0.802907 0.771587 -0.106575 5.8911
140 3 -0.838192 0.879658 2.57893 6.26501
229 2 0.0401221 2.03215 3.42683 1.70506
204 2 0.16882 4.51716 3.41982 4.49624
155 3 -0.797901 2.37271 5.84211 3.4913
201 2 0.237583 5.16472 0.109629 3.4623
202 2 0.134154 3.92833 1.52799 3.93247
203 2 0.231632 3.9148 -0.121332 4.96975
206 2 0.152814 3.70989 2.67723 6.15486
213 1 -0.662871 4.49156 0.617677 4.24823
218 3 -0.843842 5.75809 0.676881 6.95232
67 2 0.156102 -0.92939 4.52628 5.41567
193 4 1.17805 5.79614 1.48101 5.61059
230 3 -0.808981 1.84147 0.858159 1.18175
255 2 0.157573 -2.12844 4.20435 2.20203
80 2 0.191013 2.9521 4.63098 0.279384
18 4 0.982667 5.15868 3.90204 1.25436
65 2 0.207209 -1.81385 3.02249 7.95611
214 1 -0.693049 4.64772 3.03091 5.57395
254 2 0.0568185 -2.17454 4.83363 0.0748715
14 4 1.3271 6.35218 -0.616367 7.76054
74 2 0.21701 3.03695 2.86222 7.85047
82 2 0.148102 -1.01253 6.44449 2.13656
149 3 -0.770096 2.64261 -0.251733 8.18888
266 2 0.0162921 4.57907 5.0719 0.0897175
15 4 1.01367 3.16889 0.827757 9.43618
17 4 1.2592 5.22075 0.800296 11.7533
151 3 -0.778656 5.4507 -0.25497 13.1352
42 2 -0.0175389 -0.201153 3.83584 12.3025
48 2 0.0205236 1.98729 2.06649 9.82116
5 4 1.24167 -2.89571 5.61472 9.2978
119 1 -0.664036 -0.878156 2.59328 8.49237
66 2 0.185768 -0.676764 2.98877 9.52826
6 4 1.21091 -0.898198 5.16575 11.4374
141 3 -0.811457 -2.11346 4.69171 10.4437
76 2 0.198952 3.61606 3.30499 9.60828
75 2 0.16129 4.72953 2.15757 8.42594
81 2 0.156199 2.6348 1.67502 15.662
270 2 0.142202 -0.664268 -0.173538 9.53886
91 2 0.184119 1.71995 4.50176 15.0021
123 1 -0.67906 3.59127 2.52549 8.72098
228 2 0.0407285 1.28479 0.596457 15.5341
150 3 -0.787005 3.80775 0.428643 10.8836
64 2 0.189778 -0.881881 1.47671 8.40346
153 3 -0.79591 1.38632 4.51504 8.3284
19 4 0.99775 1.47188 6.78894 2.50051
2 4 1.20446 -4.09401 12.276 6.9467
8 4 1.02561 -1.87671 8.39307 6.55695
9 4 1.44638 -2.56071 10.554 4.69531
253 2 0.154796 -2.00184 12.1644 1.28026
61 2 0.179696 -4.21968 9.89251 7.10382
239 2 0.179042 -3.70626 9.2776 0.496075
25 4 1.35238 0.0965838 11.2223 3.13016
27 4 1.36337 1.66252 7.74642 7.0081
29 4 1.38604 1.64092 10.7727 5.8267
44 2 -0.00787492 -0.902326 6.99139 6.43787
45 2 -0.0486076 -3.31364 7.61325 6.7528
51 2 0.0107021 0.891333 8.25777 3.20903
1 4 1.07506 -4.0546 12.8842 1.83006
171 3 -0.810701 1.03264 11.9735 6.79424
170 3 -0.812109 1.37728 9.2614 6.37725
93 2 0.153831 -0.378753 8.79005 2.21894
94 2 0.207421 1.34147 9.39765 1.79472
95 2 0.181555 -0.100365 10.1512 1.02512
117 1 -0.657599 -2.96909 12.0713 0.443217
118 1 -0.671922 -4.90797 10.6782 7.54556
130 1 -0.682004 0.278803 9.66891 1.94658
142 3 -0.755859 -5.20134 11.8526 2.18554
143 3 -0.850942 -4.01452 10.2675 3.98313
144 3 -0.840144 -1.88351 9.14622 5.21929
145 3 -0.80996 -2.93197 11.7466 5.90302
159 3 -0.755223 2.31521 7.00032 1.07606
160 3 -0.829778 0.302282 12.5151 2.05763
161 3 -0.832843 -1.42232 11.2598 3.61358
166 3 -0.848197 -1.53441 9.21745 7.78276
24 4 1.02117 3.40229 7.97937 0.180502
164 3 -0.806493 0.868346 7.02472 8.20465
169 3 -0.823997 1.26641 11.0519 4.25709
165 3 -0.847849 2.15259 6.70475 5.8855
60 2 0.155506 -3.28781 10.9732 0.117384
238 2 0.0201452 -5.4823 10.0519 15.7404
167 3 -0.800295 -0.819917 11.8287 8.49091
10 4 1.24748 -2.33533 7.27974 13.0952
11 4 1.18898 -3.23113 9.59412 11.195
16 4 1.22527 -0.25822 11.6917 13.5695
28 4 1.61071 -1.2407 10.2397 9.0016
30 4 1.26925 -1.19072 9.35016 15.0997
43 2 0.0085363 -1.72696 6.65815 8.70324
46 2 -0.018213 -3.64803 6.34269 13.5419
47 2 0.0627406 -4.98623 10.0282 11.2244
31 4 1.34606 0.980588 10.0403 11.2192
129 1 -0.658611 2.30976 5.42819 15.0346
240 1 -0.674719 -4.8278 7.32532 15.9669
63 2 0.173905 -4.91873 10.7463 8.70178
72 2 0.253801 -3.01215 10.9183 13.1516
267 2 0.187996 1.76524 6.32888 14.4575
99 2 0.210842 1.49982 7.55852 11.3418
100 2 0.217444 0.176795 8.13815 12.5276
121 1 -0.69352 -3.80787 11.0898 12.2854
175 3 -0.794998 0.0808831 9.79487 9.80684
132 1 -0.700475 1.23089 8.35759 12.1094
262 2 0.164885 -3.95128 7.82122 15.3676
146 3 -0.831743 -1.21488 6.23783 12.6145
147 3 -0.85722 -2.88816 8.39023 12.0745
176 3 -0.842585 0.45917 11.1605 12.1928
70 2 0.17361 -4.83506 11.0395 12.5993
157 3 -0.846371 2.91289 6.05623 9.87288
168 3 -0.877256 -2.45997 10.1565 9.99115
172 3 -0.824772 -1.92644 8.03566 14.4761
173 3 -0.884919 0.261995 9.17359 15.7048
174 3 -0.852416 -1.39702 10.599 14.1535
252 2 0.166985 -4.01084 11.0666 16.2607
20 4 1.47597 1.40637 5.7933 9.32334
55 2 0.0264086 -2.15772 9.78478 16.5056
154 3 -0.834001 0.261795 5.65957 10.4957
71 2 0.222404 -3.64538 11.9727 11.6086
180 3 -0.835261 -4.0405 6.51388 9.89458
101 2 0.162305 1.96991 8.52401 12.9162
211 2 0.168924 7.87555 3.15246 7.01455
226 3 -0.845773 11.369 4.72904 8.12206
256 2 0.15467 11.0193 3.9658 1.49599
73 2 0.00783235 9.31019 3.10513 0.392254
105 2 0.195482 7.07538 3.86819 4.24009
257 1 -0.654309 12.0685 3.71693 1.37276
224 3 -0.783561 11.0398 0.301657 7.26402
111 2 0.156158 8.54217 5.71459 2.05151
33 4 1.21844 5.81313 5.89978 3.76798
106 2 0.160213 7.01191 4.92843 5.84957
222 3 -0.831015 12.475 1.17212 5.0172
152 3 -0.798303 6.47431 3.20644 0.632011
177 3 -0.791867 5.27276 4.75382 2.58807
192 4 1.28364 13.3161 1.31399 3.69561
223 3 -0.79328 9.69555 0.70089 4.78846
194 4 1.24522 8.60622 1.56043 4.00161
196 4 1.41098 11.044 1.17456 5.77026
197 4 1.02865 10.2953 3.80073 7.22868
113 2 0.162229 8.55527 6.51791 0.310805
199 2 -0.038743 9.24689 3.06883 3.80999
200 2 0.0246734 9.00543 4.86391 6.70453
205 2 0.167428 5.24562 3.77744 6.14713
217 1 -0.664032 8.49685 3.44514 7.9523
225 3 -0.831803 10.7001 2.81823 6.11245
247 2 0.0609313 12.2097 1.90598 1.14543
198 2 -0.00553226 12.9084 2.80947 2.89893
219 3 -0.832069 12.7147 0.173868 2.69703
220 3 -0.861547 8.44471 0.883797 2.54939
221 3 -0.824829 7.15299 1.72836 4.8074
134 1 -0.672796 7.09256 4.90383 4.71178
107 2 0.142103 8.0359 5.47131 4.40197
268 2 0.219444 13.9761 -0.241083 7.73437
22 4 0.995719 5.99709 3.96817 11.9033
148 3 -0.807567 6.76811 -1.10954 16.4609
57 2 -0.0254656 8.67104 5.42202 11.2908
77 2 0.133549 6.55707 1.27792 9.81013
49 2 0.103213 7.06414 -1.54823 14.8882
79 2 0.163721 7.79575 0.943318 11.2364
53 2 0.0510596 6.17857 4.65439 13.7339
86 2 0.157891 8.4406 4.17115 13.3807
122 1 -0.680882 7.68342 1.48111 15.1997
124 1 -0.665379 6.85783 0.602124 10.722
127 1 -0.649861 7.59225 4.63815 12.7673
158 3 -0.826078 5.22595 5.09262 11.0955
195 4 1.02952 11.4081 -0.393651 8.62815
207 2 0.142448 12.1645 0.998425 10.2561
208 2 0.178291 10.3683 0.0121551 10.7034
209 2 0.157691 10.3283 1.6214 9.6326
210 2 0.122906 9.05368 2.4979 8.59449
78 2 0.204739 6.89669 -0.517277 10.6049
215 1 -0.652827 10.9695 0.705138 9.96273
249 2 0.0107447 7.40332 -0.0159321 8.97762
232 4 0.917163 12.0306 1.1083 16.5191
233 4 1.20108 11.1807 -0.757644 14.0796
234 2 -0.00790315 9.82865 -0.286784 13.1786
235 3 -0.783317 11.3024 0.449434 15.0068
85 2 0.0354923 7.74108 3.76836 11.2094
265 2 0.164218 8.8514 1.25083 15.0659
248 2 0.178166 7.01948 0.950091 14.3551
264 2 0.171464 7.48223 2.56775 15.1987
216 1 -0.677175 13.5456 -0.619874 8.65944
236 3 -0.754901 12.5695 -0.834073 13.0421
156 3 -0.784603 5.45755 2.36561 12.0229
13 4 1.00556 6.73861 0.539804 16.5588
251 2 -0.00753452 13.3259 -1.11347 10.5548
212 2 0.170151 8.01815 4.10287 8.69226
112 2 0.181093 9.85634 7.0463 1.58791
12 4 1.42659 1.73685 13.2265 1.52877
32 4 1.12218 5.80769 12.3041 2.17453
36 4 1.29942 7.68239 7.95756 2.10475
7 4 1.30535 9.34481 10.4844 3.28346
110 2 0.181433 8.07818 9.89042 8.20385
96 2 0.234429 3.64994 12.0184 5.52254
97 2 0.166884 4.08662 10.1304 5.4662
98 2 0.251045 3.85872 10.9992 7.1888
102 2 0.178789 5.34183 10.1984 3.53487
103 2 0.222338 3.90233 11.4415 3.30925
104 2 0.180855 5.33598 11.7241 4.5586
259 2 0.187927 6.96582 11.1302 4.30812
109 2 0.163213 6.16375 9.92528 7.91501
261 1 -0.661366 8.09575 10.9757 4.63013
114 2 0.228584 4.01072 7.34389 7.35336
178 3 -0.792567 4.53862 6.26276 4.91359
116 2 0.191044 3.67772 9.20856 7.45948
131 1 -0.659351 3.51204 10.9494 6.03318
133 1 -0.696277 5.0328 11.2759 3.58028
136 1 -0.659883 8.83719 6.64513 1.42706
137 1 -0.650525 3.38111 8.1832 7.77506
163 3 -0.823959 2.82539 12.0597 1.3703
250 2 0.0892365 4.37592 12.8369 1.43859
182 3 -0.808021 6.63024 7.15172 2.95494
183 3 -0.804913 8.66081 9.04176 2.66478
184 3 -0.7622 6.56081 8.54265 0.699832
185 3 -0.820831 6.45613 11.2458 1.11457
62 2 0.143702 8.77839 10.8876 6.98716
258 2 0.158744 8.1484 10.0634 5.31874
56 2 0.0216467 6.55458 8.26111 7.03815
54 2 0.0937884 5.01569 7.83985 0.74563
37 4 1.5007 6.76054 10.1164 0.0226633
260 2 0.260839 8.63469 11.9279 5.08253
162 3 -0.830683 3.06451 9.51086 0.119089
23 4 1.28334 4.4202 6.32951 10.4017
26 4 1.46165 1.65365 9.18507 16.3264
263 2 0.172247 9.56188 6.35345 15.6419
34 4 1.03184 6.76023 7.56908 8.63346
35 4 1.15113 9.14398 6.70735 10.2426
38 4 1.23021 3.95597 10.5158 10.2838
39 4 1.20037 7.64086 8.5518 12.2127
40 4 1.18338 6.35751 11.4668 11.8279
58 2 0.0064068 4.68226 9.01753 10.1318
59 2 -0.0169275 6.37228 7.44033 12.1086
269 2 0.165316 7.35703 11.6807 8.56539
88 2 0.145057 3.25585 8.10256 11.7955
89 2 0.144749 5.16141 8.6919 11.8461
90 2 0.13894 4.74294 6.93645 12.556
237 4 1.06505 8.56222 8.49075 15.232
271 3 -0.791647 7.27629 8.22853 16.1183
128 1 -0.697508 4.45573 7.82803 11.7133
108 2 0.157217 6.82377 9.60583 9.73137
245 3 -0.843123 2.59577 9.87761 15.0987
179 3 -0.812917 5.42918 6.94496 9.1933
87 2 0.140525 7.67248 5.72326 12.6289
181 3 -0.770763 8.24371 6.87838 8.8118
186 3 -0.779075 4.31629 11.2705 8.89473
187 3 -0.83925 2.49087 10.4356 10.6904
188 3 -0.827024 8.63679 8.09716 11.0111
189 3 -0.828252 8.31765 8.40086 13.641
190 3 -0.873023 4.83759 11.26 11.4511
191 3 -0.856345 7.12107 10.0277 11.9407
241 4 1.31784 4.04836 9.74233 14.5697
242 2 0.00328416 3.91447 9.31219 12.9187
243 3 -0.844313 4.84836 8.58973 15.1709
244 3 -0.818198 4.61108 11.185 14.7878
92 2 0.140666 3.41257 5.38747 14.8829
115 2 0.193539 3.22461 8.10054 8.9005
135 1 -0.682151 7.00563 9.44946 8.51773
ITEM: TIMESTEP
200
ITEM: NUMBER OF ATOMS
271
ITEM: BOX BOUNDS xy xz yz pp pp pp
-7.2108545333333334e+00 1.4748699999999999e+01 -6.1971999999999996e+00
-1.8606000000000000e+00 1.3431800000000001e+01 -1.0136545333333338e+00
0.0000000000000000e+00 1.6609600000000000e+01 -1.8606000000000000e+00
ITEM: ATOMS id type q x y z
3 4 1.23026 1.05668 1.21029 5.27941
4 4 1.13753 0.204668 3.54775 7.36264
149 3 -0.803463 2.62662 -0.191215 8.18557
21 4 1.21664 3.0198 5.85066 4.90817
41 2 -0.0224688 2.62387 1.24535 4.5277
50 2 0.032241 4.07709 2.5252 1.39954
52 2 0.0122308 3.2467 4.23327 5.43663
80 2 0.155096 2.83857 4.47115 0.0879537
69 2 0.153775 -1.54008 5.34135 7.00294
68 2 0.201182 -0.0428982 5.81653 5.95007
227 4 1.00115 1.47108 2.24423 0.557821
231 3 -0.788805 0.00352107 2.53 0.273419
83 2 0.148345 -0.521285 5.57296 3.00161
84 2 0.160759 0.102738 5.25968 1.19663
120 1 -0.67695 -0.751768 4.99371 6.30388
126 1 -0.680588 -0.216098 6.03215 1.94727
138 3 -0.834305 0.0525739 1.40858 4.07783
139 3 -0.794435 0.773513 -0.0834895 6.08602
140 3 -0.795566 0.895996 2.47517 6.43328
229 2 0.0325608 2.06918 3.60104 1.58312
204 2 0.153327 4.76356 3.4168 4.89561
155 3 -0.804083 2.18855 5.71272 3.49133
201 2 0.218152 5.41788 0.399954 3.60327
202 2 0.127474 3.91395 1.5642 3.74576
203 2 0.265768 3.98805 -0.217415 4.87873
206 2 0.159438 3.69336 2.97062 6.55126
213 1 -0.664322 4.4876 0.698398 4.24567
218 3 -0.84246 5.88319 0.600601 6.93567
67 2 0.162463 -1.24092 4.37957 5.47257
193 4 1.1499 5.83773 1.48542 5.67656
230 3 -0.790991 1.81569 0.804684 1.31527
74 2 0.201004 2.91701 2.62743 7.60113
14 4 1.29975 6.3776 -0.678518 7.81732
18 4 0.995883 5.23466 3.86442 1.18457
125 1 -0.695952 3.23479 3.46108 0.0442057
214 1 -0.662303 4.75817 3.05722 5.98977
254 2 0.0413949 -2.13796 4.62586 0.0359095
15 4 1.0588 3.05111 0.830221 9.40462
17 4 1.22079 5.30369 0.74171 11.7944
151 3 -0.782362 5.36643 -0.256377 13.147
42 2 -0.029936 -0.485423 4.01132 12.3612
48 2 0.0131123 1.81127 1.985 9.63877
5 4 1.21138 -2.85851 5.57905 9.39573
119 1 -0.641296 -0.845333 2.52452 8.55756
66 2 0.173114 -0.384979 2.87811 9.54185
6 4 1.18271 -0.781866 5.28054 11.4945
141 3 -0.77988 -2.18945 4.68979 10.5652
76 2 0.202668 3.29006 3.25073 9.43152
75 2 0.18165 4.61239 2.28697 8.39239
81 2 0.168089 2.59466 1.40325 15.6783
270 2 0.139258 -0.717512 -0.225425 9.3856
91 2 0.170641 1.4587 4.72312 15.0008
123 1 -0.666729 3.51138 2.48081 8.64523
228 2 0.0347594 1.19611 0.548039 15.5298
150 3 -0.780086 4.03047 0.466767 10.6071
64 2 0.178623 -1.03441 1.31615 8.5406
153 3 -0.788365 1.24164 4.30949 8.43603
266 2 0.010304 3.60878 2.97976 16.4931
65 2 0.20743 -1.87763 3.06036 8.42591
71 2 0.16596 1.80623 -1.25248 11.8376
19 4 0.97998 1.50002 6.68149 2.40885
2 4 1.26377 -4.01614 12.4431 6.91635
8 4 0.982946 -2.01955 8.40865 6.52723
9 4 1.43209 -2.49385 10.5576 4.6734
253 2 0.163963 -2.20457 11.6812 1.39786
61 2 0.182832 -3.91918 10.1379 7.57254
60 2 0.154063 -3.2386 10.6265 0.124237
25 4 1.31137 0.198993 11.1641 3.06957
27 4 1.31691 1.82556 7.79233 7.10475
165 3 -0.832482 2.10937 6.64301 5.97142
44 2 -0.00836607 -1.19975 6.87799 6.41867
45 2 -0.0410531 -3.61029 7.90649 6.716
51 2 0.0252203 0.768071 8.0492 3.15172
1 4 1.07501 -4.10361 12.8157 1.94926
82 2 0.169178 -0.908648 6.7614 1.55571
170 3 -0.780328 1.31622 9.26627 6.39513
93 2 0.16857 -0.435224 8.87866 2.3476
94 2 0.198406 1.45765 9.27318 2.01319
95 2 0.172608 -0.013237 10.1256 0.950917
117 1 -0.646295 -3.14067 11.6948 0.671794
118 1 -0.666583 -4.87622 10.8084 7.52372
130 1 -0.676805 0.331333 9.63587 2.0068
142 3 -0.737938 -5.30549 11.8619 2.35977
143 3 -0.835251 -3.87749 10.273 3.95416
144 3 -0.82618 -1.93812 9.14227 5.16151
145 3 -0.823525 -2.88731 11.9875 5.79894
159 3 -0.792002 2.52477 7.27415 1.08622
160 3 -0.814069 0.318059 12.6355 1.87902
161 3 -0.812007 -1.25084 11.2322 3.65935
166 3 -0.828782 -1.53734 9.30284 7.74225
24 4 1.05889 3.44766 8.06125 0.153129
169 3 -0.807683 1.26783 11.0458 4.25305
246 2 0.019891 -2.92972 13.0209 3.21631
238 2 0.00119812 -5.07379 9.69242 15.5206
167 3 -0.850712 -0.826171 11.7723 8.58595
10 4 1.27573 -2.45021 7.36341 13.0719
11 4 1.17611 -3.3651 9.74747 11.1675
16 4 1.21688 -0.185102 11.71 13.5855
28 4 1.60513 -1.21991 10.2899 8.95639
30 4 1.30294 -1.34482 9.41722 15.0602
43 2 0.0109215 -1.64037 6.57708 8.73774
46 2 -0.0146675 -3.80599 6.58403 13.6009
47 2 0.0786631 -5.10028 9.99818 10.9723
31 4 1.37034 1.04573 9.94999 11.0979
129 1 -0.66885 2.14878 5.57672 15.0007
240 1 -0.685549 -4.91873 7.07349 15.6468
63 2 0.172765 -5.3011 11.161 8.53301
72 2 0.207771 -3.23971 11.2073 12.8798
267 2 0.199301 1.85507 6.50037 14.5305
99 2 0.218968 1.51857 7.47621 11.4672
100 2 0.24499 0.0981282 8.12541 12.4943
121 1 -0.680186 -4.21323 11.1122 12.2285
175 3 -0.792384 -0.131239 9.59747 9.97214
132 1 -0.664554 1.12896 8.31529 12.0968
262 2 0.162515 -3.86058 7.41783 15.7706
146 3 -0.845174 -1.43527 6.34248 12.4188
147 3 -0.815563 -2.95375 8.51406 12.0618
176 3 -0.825066 0.591551 10.8617 12.3325
70 2 0.172373 -5.18549 10.7012 12.8308
157 3 -0.833905 3.01073 6.10652 9.79286
168 3 -0.819513 -2.6227 10.2024 9.90559
172 3 -0.85556 -1.93137 8.11375 14.4
173 3 -0.878426 0.053996 9.18784 15.6963
174 3 -0.828084 -1.36401 10.7887 14.251
252 2 0.14543 -4.08222 10.6817 16.4609
20 4 1.4772 1.48746 5.77296 9.28565
55 2 0.0124263 -2.43441 9.8458 16.2998
154 3 -0.828878 0.503405 5.63166 10.5479
164 3 -0.793334 1.02255 7.07746 8.37266
180 3 -0.838046 -3.92272 6.60506 9.84508
101 2 0.159366 1.83343 8.53668 13.0075
211 2 0.166353 7.69585 3.24848 7.45728
226 3 -0.823801 11.3444 4.59777 8.12989
256 2 0.151567 10.8734 3.89746 1.29017
73 2 0.00176476 9.27909 3.19372 0.596289
105 2 0.203154 7.22867 4.00416 4.7836
257 1 -0.644078 11.9561 3.54907 1.3371
224 3 -0.790804 11.0579 0.369994 7.1512
111 2 0.160669 8.30603 5.62637 1.79816
33 4 1.20941 5.81189 5.89571 3.7735
106 2 0.161527 6.93746 5.36949 5.98451
222 3 -0.825291 12.3664 1.15782 4.98658
152 3 -0.82946 6.52993 3.2069 0.648769
177 3 -0.789677 5.41136 4.74255 2.52782
192 4 1.30805 13.276 1.14582 3.70194
223 3 -0.800561 9.76255 0.479018 4.8351
194 4 1.20626 8.58317 1.53621 4.04365
196 4 1.41977 10.9228 1.22541 5.73636
197 4 1.01547 10.1696 3.97381 7.19091
255 2 0.14843 12.5904 4.06892 2.14853
199 2 -0.0261846 9.26319 3.07194 3.71848
200 2 0.0300084 8.84036 5.03956 6.82271
205 2 0.147844 5.52879 3.64856 6.69346
217 1 -0.668379 8.53621 3.62339 8.12601
225 3 -0.812825 10.555 2.95239 5.98984
247 2 0.0579623 12.0959 1.91513 1.4164
198 2 -0.00145381 12.8823 2.60578 2.77502
219 3 -0.842253 12.8078 -0.032784 2.75789
220 3 -0.881524 8.25079 0.977454 2.59111
221 3 -0.829113 7.25036 1.87851 4.89754
134 1 -0.670734 7.11817 5.12547 4.89817
107 2 0.147836 8.02602 5.75194 4.40027
268 2 0.242855 13.5743 -0.197338 7.56197
13 4 1.04461 7.79702 2.51077 0.0666071
12 4 1.43687 7.89532 -0.118017 1.51653
22 4 1.01782 6.02728 3.8779 12.0064
148 3 -0.790564 6.91509 -0.98271 16.4234
57 2 -0.00968822 8.68886 5.35865 10.8792
77 2 0.131607 6.8562 1.23761 10.0385
49 2 0.109061 7.08698 -1.3815 14.8742
79 2 0.161346 7.92604 0.496166 11.4489
53 2 0.0424144 6.44625 4.57321 13.7096
86 2 0.162531 8.66377 4.40259 13.1381
122 1 -0.692665 7.74848 1.71027 15.3841
124 1 -0.651861 6.92406 0.402163 10.8876
127 1 -0.634618 7.80914 4.71658 12.5172
158 3 -0.805564 5.1847 4.9742 11.2061
195 4 1.02468 11.3279 -0.283028 8.59096
207 2 0.144654 12.044 1.08532 10.2978
208 2 0.182642 10.5772 -0.00255912 10.901
209 2 0.14833 10.1709 1.54492 9.72342
210 2 0.122258 9.22842 2.84561 8.87944
78 2 0.176477 6.62379 -0.673209 10.4434
215 1 -0.677 10.9468 0.695112 10.0793
249 2 0.00412472 7.44952 -0.0342112 8.94497
232 4 0.954815 12.0635 0.99035 16.5302
233 4 1.23618 11.1515 -0.824592 14.216
234 2 -0.0179588 9.82268 -0.463237 13.2391
235 3 -0.823358 11.3054 0.324417 15.1638
85 2 0.0561018 7.69808 3.91839 11.0249
265 2 0.174854 8.66775 1.24749 15.0715
248 2 0.193805 6.97062 1.60296 14.5785
264 2 0.15954 7.88845 2.81171 15.7034
216 1 -0.663799 13.4263 -0.661389 8.54595
236 3 -0.759835 12.4706 -1.04216 13.1317
156 3 -0.783573 5.63752 2.37904 12.2623
212 2 0.173276 8.11123 4.42289 8.7801