LAMMPS data file generated by OpenBabel
271 atoms
249 bonds
418 angles
443 dihedrals
0 impropers
4 atom types
4 bond types
9 angle types
12 dihedral types
0 improper types
  -5.99357   17.09949 xlo xhi
  -5.99357   17.09949 ylo yhi
  -5.99357   17.09949 zlo zhi



Masses

1 12.0107 # C
2 1.00794 # H
3 15.9994 # O
4 28.0855 # Si


Atoms

1       1    4    0.00000   -4.38185   12.99552    2.18572 #  Si
2       1    4    0.00000   -3.91595   12.55008    7.04696 #  Si
3       1    4    0.00000    1.20056    1.56515    5.43590 #  Si
4       1    4    0.00000   -0.10764    3.82902    7.21409 #  Si
5       1    4    0.00000   -3.61332    5.99624    9.44598 #  Si
6       1    4    0.00000   -0.76737    5.77813   10.84361 #  Si
7       1    4    0.00000   -5.36992   10.37130    3.62067 #  Si
8       1    4    0.00000   -1.71919    8.37077    6.91707 #  Si
9       1    4    0.00000   -2.56098   10.66613    4.97839 #  Si
10      1    4    0.00000   -2.26227    7.43064   13.00367 #  Si
11      1    4    0.00000   -3.33603    9.92956   11.29981 #  Si
12      1    4    0.00000    1.42599   13.08937    1.73093 #  Si
13      1    4    0.00000    7.27093    2.28063    0.07582 #  Si
14      1    4    0.00000    0.35857   12.39261    7.53399 #  Si
15      1    4    0.00000    2.77634    0.55800    9.70250 #  Si
16      1    4    0.00000    6.30597   -1.45115   13.28329 #  Si
17      1    4    0.00000    5.16583    0.89458   11.67699 #  Si
18      1    4    0.00000    5.02667    4.06182    1.23966 #  Si
19      1    4    0.00000    0.93929    6.47436    2.29994 #  Si
20      1    4    0.00000    1.56880    6.02355    8.89943 #  Si
21      1    4    0.00000    3.08899    5.70314    4.30221 #  Si
22      1    4    0.00000    4.54992    3.84597   12.51470 #  Si
23      1    4    0.00000    4.35801    5.86076   10.29994 #  Si
24      1    4    0.00000    2.71703    7.87351    0.12098 #  Si
25      1    4    0.00000   -0.30808   10.84246    2.89345 #  Si
26      1    4    0.00000    2.67251   10.94419   -0.00757 #  Si
27      1    4    0.00000    2.47352    7.76871    6.51971 #  Si
28      1    4    0.00000   -0.95587   10.32570    9.30271 #  Si
29      1    4    0.00000    1.55279   10.49680    5.36365 #  Si
30      1    4    0.00000   -1.00613    9.60290   14.93260 #  Si
31      1    4    0.00000    1.44294   10.15853   11.19746 #  Si
32      1    4    0.00000    5.99937   12.53518    1.99802 #  Si
33      1    4    0.00000    5.84947    6.34551    3.08782 #  Si
34      1    4    0.00000    6.89876    6.53094    8.49805 #  Si
35      1    4    0.00000    8.62834    5.84364   10.94082 #  Si
36      1    4    0.00000    7.84041    8.26330    1.85992 #  Si
37      1    4    0.00000    7.59645   10.78220    0.02103 #  Si
38      1    4    0.00000    4.36206   10.54342    9.89999 #  Si
39      1    4    0.00000    7.78043    8.11919   12.83309 #  Si
40      1    4    0.00000    6.85970   11.06464   11.92132 #  Si
41      1    2    0.41000    2.45412    1.93828    4.77464 #   H
42      1    2    0.41000   -0.50860    4.36364   11.18494 #   H
43      1    2    0.41000   -3.94397    7.36244    9.00951 #   H
44      1    2    0.41000   -0.60454    7.43260    6.69688 #   H
45      1    2    0.41000   -3.02493    7.66091    6.94988 #   H
46      1    2    0.41000   -3.25516    6.48913   13.54648 #   H
47      1    2    0.41000   -4.38555    9.61043   10.29971 #   H
48      1    2    0.41000    1.64701   -0.25732   10.24244 #   H
49      1    2    0.41000    7.27093   -1.10195   14.34549 #   H
50      1    2    0.41000    4.17780    3.49453    2.32326 #   H
51      1    2    0.41000    0.70618    7.64457    3.18244 #   H
52      1    2    0.41000    3.48229    4.35967    4.75949 #   H
53      1    2    0.41000    3.17002    4.28320   12.86875 #   H
54      1    2    0.41000    4.04951    7.40635    0.57099 #   H
55      1    2    0.41000   -1.92767   10.03566   15.98929 #   H
56      1    2    0.41000    6.88472    5.83181    7.19181 #   H
57      1    2    0.41000    8.12035    4.80291   11.85417 #   H
58      1    2    0.41000    4.56201    9.29874    9.14721 #   H
59      1    2    0.41000    6.55636    7.49334   13.35144 #   H
60      1    2    0.41000   -2.45672   11.87390    1.08431 #   H
61      1    2    0.41000   -4.04222   10.41648    8.19451 #   H
62      1    2    0.41000   -5.49357   10.63873    7.20183 #   H
63      1    2    0.41000   -5.34526   11.46670    8.76494 #   H
64      1    2    0.41000   -0.55456    2.47564    9.24670 #   H
65      1    2    0.41000   -1.68040    2.11770    7.92046 #   H
66      1    2    0.41000   -1.91477    3.57721    8.89864 #   H
67      1    2    0.41000   -1.85133    5.33913    6.31531 #   H
68      1    2    0.41000   -1.52646    4.00946    5.19836 #   H
69      1    2    0.41000   -0.37335    5.37023    5.31662 #   H
70      1    2    0.41000   -4.31525   12.04517   12.04579 #   H
71      1    2    0.41000   -3.13602   11.46227   13.23871 #   H
72      1    2    0.41000   -4.75860   10.71947   13.14453 #   H
73      1    2    0.41000    9.48562    2.92698    0.98619 #   H
74      1    2    0.41000    1.62688    2.61243    9.01044 #   H
75      1    2    0.41000    3.27779    2.95810    9.51900 #   H
76      1    2    0.41000    2.03141    2.65848   10.74661 #   H
77      1    2    0.41000    6.60726    2.01715   10.04069 #   H
78      1    2    0.41000    7.24437    0.40681   10.44186 #   H
79      1    2    0.41000    7.47451    1.76153   11.57237 #   H
80      1    2    0.41000    3.17113    4.66232   -0.25587 #   H
81      1    2    0.41000    3.89516    3.11400   -0.74770 #   H
82      1    2    0.41000   -1.11654    5.28081    2.94729 #   H
83      1    2    0.41000   -0.37503    4.53184    1.52190 #   H
84      1    2    0.41000   -1.30444    6.04617    1.35165 #   H
85      1    2    0.41000    6.78773    4.00802   13.57613 #   H
86      1    2    0.41000    5.49713    3.92158   14.79687 #   H
87      1    2    0.41000    5.80417    5.44556   13.94236 #   H
88      1    2    0.41000    3.69843    8.08432   11.15042 #   H
89      1    2    0.41000    5.11079    7.44086   12.00414 #   H
90      1    2    0.41000    3.49229    6.83080   12.38591 #   H
91      1    2    0.41000    2.54962    6.66306   -2.01833 #   H
92      1    2    0.41000    3.27928    8.26305   -2.25203 #   H
93      1    2    0.41000   -1.27639    8.71013    2.14954 #   H
94      1    2    0.41000    0.11767    9.15486    1.13168 #   H
95      1    2    0.41000   -1.44177    9.97997    0.92261 #   H
96      1    2    0.41000    3.31762   12.16747    4.94690 #   H
97      1    2    0.41000    4.00540   10.53142    5.01343 #   H
98      1    2    0.41000    3.51034   11.35741    6.50667 #   H
99      1    2    0.41000    1.53550    7.77987   11.79771 #   H
100     1    2    0.41000    0.26198    8.63012   12.64186 #   H
101     1    2    0.41000    1.93104    8.80413   13.20679 #   H
102     1    2    0.41000    4.87963   10.36108    1.72191 #   H
103     1    2    0.41000    4.10478   11.31021    2.99823 #   H
104     1    2    0.41000    5.63138   10.44907    3.30424 #   H
105     1    2    0.41000    7.99613    5.25423    3.63278 #   H
106     1    2    0.41000    6.65046    4.36372    4.34991 #   H
107     1    2    0.41000    7.20365    5.87614    5.09387 #   H
108     1    2    0.41000    6.80835    8.83782    7.59116 #   H
109     1    2    0.41000    8.47281    8.31732    7.95251 #   H
110     1    2    0.41000    7.40612    8.83362    9.27362 #   H
111     1    2    0.41000    7.81467    6.20406    0.52416 #   H
112     1    2    0.41000    9.04651    6.10495    1.80382 #   H
113     1    2    0.41000    9.37101    7.04591    0.34211 #   H
114     1    2    0.41000    4.60910    8.43737    5.52642 #   H
115     1    2    0.41000    4.83329    7.37378    6.92553 #   H
116     1    2    0.41000    4.46765    9.09750    7.18025 #   H
117     1    1    0.00000   -2.93542   12.85646    1.03162 #   C
118     1    1    0.00000   -4.79566   11.14890    7.87270 #   C
119     1    1    0.00000   -1.16092    2.92489    8.44894 #   C
120     1    1    0.00000   -1.05236    4.72165    5.88580 #   C
121     1    1    0.00000   -3.93670   11.15043   12.55817 #   C
122     1    1    0.00000    9.00646    2.93663   -0.00350 #   C
123     1    1    0.00000    2.38969    2.35802    9.75126 #   C
124     1    1    0.00000    6.77171    1.30558   10.85921 #   C
125     1    1    0.00000    4.12225    4.12569   -0.38204 #   C
126     1    1    0.00000   -0.60585    5.49487    1.99762 #   C
127     1    1    0.00000    5.77350    4.35295   13.82435 #   C
128     1    1    0.00000    4.14015    7.17579   11.56933 #   C
129     1    1    0.00000    2.49064    7.71793   -1.71401 #   C
130     1    1    0.00000   -0.75752    9.54560    1.66122 #   C
131     1    1    0.00000    3.25459   11.19638    5.44953 #   C
132     1    1    0.00000    1.30176    8.71186   12.31651 #   C
133     1    1    0.00000    5.06962   11.03498    2.56691 #   C
134     1    1    0.00000    7.02581    5.37223    4.13389 #   C
135     1    1    0.00000    7.43380    8.29969    8.31490 #   C
136     1    1    0.00000    8.59014    6.76987    1.05723 #   C
137     1    1    0.00000    4.26282    8.23020    6.54610 #   C
138     1    3   -0.82000    0.02417    1.50200    4.30186 #   O
139     1    3   -0.82000    1.28578    0.09433    6.16796 #   O
140     1    3   -0.82000    0.90056    2.71300    6.54321 #   O
141     1    3   -0.82000   -2.03285    5.88798    9.81639 #   O
142     1    3   -0.82000   -5.10872   11.55124    2.51187 #   O
143     1    3   -0.82000   -3.96162   10.05881    4.40468 #   O
144     1    3   -0.82000   -1.75702    9.44121    5.68125 #   O
145     1    3   -0.82000   -2.81963   11.90411    6.00476 #   O
146     1    3   -0.82000   -1.09305    6.57917   12.22993 #   O
147     1    3   -0.82000   -2.95062    8.47464   11.97474 #   O
148     1    3   -0.82000    7.24580    0.70113    0.54762 #   O
149     1    3   -0.82000    3.03609    0.06332    8.15040 #   O
150     1    3   -0.82000    4.10369    0.25643   10.61754 #   O
151     1    3   -0.82000    5.37288   -0.18012   12.90203 #   O
152     1    3   -0.82000    6.38545    3.13602    1.16639 #   O
153     1    3   -0.82000    0.88425    4.87601    8.00429 #   O
154     1    3   -0.82000    0.54529    6.43254   10.11832 #   O
155     1    3   -0.82000    2.07680    5.51974    3.03191 #   O
156     1    3   -0.82000    4.50390    2.21934   12.38149 #   O
157     1    3   -0.82000    2.95178    5.47174    9.56225 #   O
158     1    3   -0.82000    4.94909    4.51259   11.04596 #   O
159     1    3   -0.82000    1.53784    6.98567    0.84940 #   O
160     1    3   -0.82000    0.10051   12.23163    2.10938 #   O
161     1    3   -0.82000   -1.64658   11.22463    3.75855 #   O
162     1    3   -0.82000    2.56764    9.45026    0.62018 #   O
163     1    3   -0.82000    2.57243   12.06504    1.17036 #   O
164     1    3   -0.82000    1.91324    7.33687    8.00248 #   O
165     1    3   -0.82000    2.30192    6.48661    5.50067 #   O
166     1    3   -0.82000   -1.52891    9.13542    8.35284 #   O
167     1    3   -0.82000   -0.80343   11.72039    8.47596 #   O
168     1    3   -0.82000   -2.01017   10.53143   10.52569 #   O
169     1    3   -0.82000    0.94885   10.39763    3.84103 #   O
170     1    3   -0.82000    1.52093    8.99268    6.01280 #   O
171     1    3   -0.82000    0.53565   11.46074    6.20643 #   O
172     1    3   -0.82000   -1.57645    8.22221   14.26390 #   O
173     1    3   -0.82000    0.47616    9.30020   15.52392 #   O
174     1    3   -0.82000   -0.87459   10.77179   13.79844 #   O
175     1    3   -0.82000    0.51904    9.91498    9.86833 #   O
176     1    3   -0.82000    0.94763   11.52722   11.95922 #   O
177     1    3   -0.82000    5.51386    5.57614    1.67119 #   O
178     1    3   -0.82000    4.41997    6.57563    3.87353 #   O
179     1    3   -0.82000    5.40867    6.36114    9.15584 #   O
180     1    3   -0.82000   10.24862    5.63703   10.79453 #   O
181     1    3   -0.82000    7.98451    5.71474    9.44346 #   O
182     1    3   -0.82000    6.51595    7.81017    2.73722 #   O
183     1    3   -0.82000    8.94871    8.99899    2.82039 #   O
184     1    3   -0.82000    7.32848    9.33775    0.72617 #   O
185     1    3   -0.82000    7.17567   12.03170    0.95625 #   O
186     1    3   -0.82000    4.29829   11.81640    8.88569 #   O
187     1    3   -0.82000    2.98763   10.43633   10.74918 #   O
188     1    3   -0.82000    8.24058    7.34207   11.47188 #   O
189     1    3   -0.82000    8.98913    7.95439   13.90296 #   O
190     1    3   -0.82000    5.62716   10.69876   10.92521 #   O
191     1    3   -0.82000    7.52088    9.69104   12.49267 #   O
192     2    4    0.00000   13.18907    1.27313    4.01830 #  Si
193     2    4    0.00000    5.98035    1.59865    5.89678 #  Si
194     2    4    0.00000    8.59340    1.60176    4.10414 #  Si
195     2    4    0.00000   11.39581   -0.24276    8.62314 #  Si
196     2    4    0.00000   10.95543    1.46455    6.04417 #  Si
197     2    4    0.00000    9.80634    3.98186    7.38729 #  Si
198     2    2    0.41000   12.66600    2.39128    3.20209 #   H
199     2    2    0.41000    8.88154    2.84086    3.35457 #   H
200     2    2    0.41000    9.03737    4.88153    6.49134 #   H
201     2    2    0.41000    5.51701    0.30520    3.86046 #   H
202     2    2    0.41000    4.70593    1.88559    3.81739 #   H
203     2    2    0.41000    4.03432    0.54736    4.77641 #   H
204     2    2    0.41000    5.33390    4.00182    6.15582 #   H
205     2    2    0.41000    5.90696    3.30261    7.68656 #   H
206     2    2    0.41000    4.28494    2.91078    7.08066 #   H
207     2    2    0.41000   11.61288    1.84869    9.96774 #   H
208     2    2    0.41000   11.95533    0.41342   10.94247 #   H
209     2    2    0.41000   10.27216    0.82913   10.55799 #   H
210     2    2    0.41000    9.33005    2.59240    9.36808 #   H
211     2    2    0.41000    8.44410    1.99385    7.95216 #   H
212     2    2    0.41000    7.87725    3.44190    8.82189 #   H
213     2    1    0.00000    4.96156    1.03229    4.46309 #   C
214     2    1    0.00000    5.32563    3.09947    6.77755 #   C
215     2    1    0.00000   11.29632    0.81558   10.15845 #   C
216     2    1    0.00000   13.10711   -0.79187    8.16782 #   C
217     2    1    0.00000    8.76436    2.90125    8.47907 #   C
218     2    3   -0.82000    6.13044    0.45798    7.07955 #   O
219     2    3   -0.82000   12.91658   -0.14754    3.27710 #   O
220     2    3   -0.82000    8.16621    0.42237    3.05688 #   O
221     2    3   -0.82000    7.49252    1.91553    5.25950 #   O
222     2    3   -0.82000   12.47634    1.25418    5.50283 #   O
223     2    3   -0.82000    9.95253    1.04732    4.82702 #   O
224     2    3   -0.82000   10.69051    0.52278    7.34028 #   O
225     2    3   -0.82000   10.74916    3.03562    6.41598 #   O
226     2    3   -0.82000   10.84412    4.92200    8.26132 #   O
227     3    4    0.00000    0.77606    1.76235    0.32570 #  Si
228     3    2    0.41000    1.29278    1.19819   -0.95630 #   H
229     3    2    0.41000    1.62567    2.89957    0.77665 #   H
230     3    3   -0.82000    0.74522    0.61608    1.49056 #   O
231     3    3   -0.82000   -0.74962    2.32513    0.08815 #   O
232     4    4    0.00000   12.09190    1.40265   15.68792 #  Si
233     4    4    0.00000   11.07963   -0.94374   13.80971 #  Si
234     4    2    0.41000   10.07255   -0.71620   12.75479 #   H
235     4    3   -0.82000   11.28723    0.44452   14.61485 #   O
236     4    3   -0.82000   12.50744   -1.43358   13.14706 #   O
237     5    4    0.00000   -5.30072    8.42733   15.41272 #  Si
238     5    2    0.41000   -4.32234    9.52280   15.23960 #   H
239     5    2    0.41000   -3.48822    6.88351   16.01937 #   H
240     5    1    0.00000   -4.56130    6.93902   16.24649 #   C
241     6    4    0.00000    4.27109    9.68576   14.82009 #  Si
242     6    2    0.41000    3.99589    9.21622   13.45445 #   H
243     6    3   -0.82000    5.67206    8.98407   15.27317 #   O
244     6    3   -0.82000    4.35491   11.32146   14.83496 #   O
245     6    3   -0.82000    3.09431    9.22952   15.84267 #   O
246     7    2    0.41000    2.24573    0.11101    3.48989 #   H
247     8    2    0.41000   12.06156    3.93386   -0.09416 #   H
248     9    2    0.41000    5.56746    0.48794   15.37965 #   H
249    10    2    0.41000    7.81798   -0.96349    8.30092 #   H
250    11    2    0.41000   11.36033    0.10830    1.29158 #   H
251    12    2    0.41000   -0.64867   -1.61478   11.20043 #   H
252    13    2    0.41000   -4.23209   11.17761   16.59949 #   H
253    14    2    0.41000    4.02511    0.16303    1.31544 #   H
254    15    2    0.41000   -2.22990    3.22018   14.07033 #   H
255    15    2    0.41000   -0.85933    2.08950   14.12387 #   H
256    15    2    0.41000   -1.07167    3.29716   15.41882 #   H
257    15    1    0.00000   -1.60446    2.61311   14.74211 #   C
258    16    2    0.41000    7.96347    9.94216    5.56470 #   H
259    16    2    0.41000    7.10284   10.96003    4.39149 #   H
260    16    2    0.41000    8.33156   11.68930    5.42231 #   H
261    16    1    0.00000    8.07294   10.78204    4.86327 #   C
262    17    2    0.41000    9.72802    6.02650   15.84316 #   H
263    18    2    0.41000   -3.68029    8.81260    0.72745 #   H
264    19    2    0.41000    8.00191    2.11515   16.24466 #   H
265    20    2    0.41000    8.62210    0.47859   15.92351 #   H
266    21    2    0.41000    3.70370    2.77524   15.45190 #   H
267    22    2    0.41000    0.51556    6.25528   14.56794 #   H
268    23    2    0.41000    6.85868   11.94700    7.31595 #   H
269    24    2    0.41000    7.36347   12.10522    9.01247 #   H
270    25    2    0.41000   -0.97315    0.02987    7.88674 #   H
271    26    3   -0.82000    8.15112    9.06250   16.19312 #   O


Bonds

1       1  189  138 #  C: H
2       1  189  137 #  C: H
3       2   29  189 # Si: C
4       3    3   54 # Si: H
5       1  185  125 #  C: H
6       1  185  124 #  C: H
7       2   23  185 # Si: C
8       4   31  228 # Si: O
9       4   31  229 # Si: O
10      2   17  180 # Si: C
11      1  180  111 #  C: H
12      4   47  260 # Si: O
13      4   47  261 # Si: O
14      4   17  213 # Si: O
15      4   17  218 # Si: O
16      4    3  204 # Si: O
17      3   29   73 # Si: H
18      4   29  228 # Si: O
19      4   29  225 # Si: O
20      3    3   55 # Si: H
21      4    3  201 # Si: O
22      1  199  168 #  C: H
23      1  199  166 #  C: H
24      4   46  260 # Si: O
25      4   24  225 # Si: O
26      1  190  141 #  C: H
27      4   37  261 # Si: O
28      1  172   86 #  C: H
29      2    1  172 # Si: C
30      1  199  167 #  C: H
31      2   46  199 # Si: C
32      1  190  140 #  C: H
33      4   23  218 # Si: O
34      4   16  229 # Si: O
35      4   23  250 # Si: O
36      3   23   69 # Si: H
37      1  186  129 #  C: H
38      1  186  128 #  C: H
39      1  190  139 #  C: H
40      2   30  190 # Si: C
41      4   42  250 # Si: O
42      1  193  148 #  C: H
43      4   16  226 # Si: O
44      4   46  257 # Si: O
45      4   46  258 # Si: O
46      2   24  186 # Si: C
47      1  186  127 #  C: H
48      2   37  193 # Si: C
49      4   30  226 # Si: O
50      4    1  207 # Si: O
51      4   24  221 # Si: O
52      3   24   70 # Si: H
53      4   10  207 # Si: O
54      1  193  149 #  C: H
55      1  193  150 #  C: H
56      4   42  257 # Si: O
57      4   30  227 # Si: O
58      4   30  235 # Si: O
59      4   26  221 # Si: O
60      4   38  244 # Si: O
61      4   42  251 # Si: O
62      2   42  196 # Si: C
63      3    2   53 # Si: H
64      4    2  243 # Si: O
65      3   38   76 # Si: H
66      4   10  208 # Si: O
67      1  196  157 #  C: H
68      4   12  227 # Si: O
69      1  182  116 #  C: H
70      4   34  235 # Si: O
71      1  182  115 #  C: H
72      4   26  251 # Si: O
73      4    2  246 # Si: O
74      4   38  247 # Si: O
75      4   38  245 # Si: O
76      1  196  158 #  C: H
77      1  196  159 #  C: H
78      4    5  202 # Si: O
79      3   26   71 # Si: H
80      4   26  231 # Si: O
81      1  177  101 #  C: H
82      4   12  208 # Si: O
83      1  182  117 #  C: H
84      2   20  182 # Si: C
85      3    5   56 # Si: H
86      4   40  247 # Si: O
87      1  177  102 #  C: H
88      1  177  100 #  C: H
89      1  191  142 #  C: H
90      4   12  209 # Si: O
91      4   12  210 # Si: O
92      1  191  143 #  C: H
93      1  176   98 #  C: H
94      4   20  245 # Si: O
95      1  176   99 #  C: H
96      2   34  191 # Si: C
97      4   34  236 # Si: O
98      4   34  237 # Si: O
99      4    5  203 # Si: O
100     4    5  205 # Si: O
101     1  191  144 #  C: H
102     4   32  231 # Si: O
103     4   40  246 # Si: O
104     1  200  169 #  C: H
105     4   11  209 # Si: O
106     1  176   97 #  C: H
107     2    7  176 # Si: C
108     2   20  183 # Si: C
109     4   20  215 # Si: O
110     4    4  210 # Si: O
111     4   32  236 # Si: O
112     4   40  252 # Si: O
113     4   40  248 # Si: O
114     1  183  118 #  C: H
115     4   18  237 # Si: O
116     4   43  252 # Si: O
117     3   43   78 # Si: H
118     2   32  200 # Si: C
119     4   32  230 # Si: O
120     4    7  205 # Si: O
121     1  200  170 #  C: H
122     1  200  171 #  C: H
123     3   11   60 # Si: H
124     1  183  120 #  C: H
125     1  183  119 #  C: H
126     3   11   61 # Si: H
127     4   11  232 # Si: O
128     2    4  173 # Si: C
129     3   44   79 # Si: H
130     1  173   89 #  C: H
131     4    7  219 # Si: O
132     2    7  175 # Si: C
133     4   39  248 # Si: O
134     4   43  253 # Si: O
135     2   43  197 # Si: C
136     4   18  233 # Si: O
137     1  198  163 #  C: H
138     1  173   88 #  C: H
139     1  173   90 #  C: H
140     1  175   95 #  C: H
141     1  197  161 #  C: H
142     1  198  164 #  C: H
143     4   25  230 # Si: O
144     4   25  219 # Si: O
145     4   19  214 # Si: O
146     2   39  195 # Si: C
147     2   44  198 # Si: C
148     1  198  165 #  C: H
149     4   33  232 # Si: O
150     1  175   96 #  C: H
151     1  175   94 #  C: H
152     4   33  233 # Si: O
153     1  197  162 #  C: H
154     1  197  160 #  C: H
155     4   44  254 # Si: O
156     4   44  256 # Si: O
157     2   39  194 # Si: C
158     4   48  262 # Si: O
159     4   25  223 # Si: O
160     4   25  220 # Si: O
161     3    8   59 # Si: H
162     1  181  112 #  C: H
163     3   48   81 # Si: H
164     4   28  254 # Si: O
165     4   33  241 # Si: O
166     4   33  234 # Si: O
167     4   45  256 # Si: O
168     4    8  206 # Si: O
169     1  181  113 #  C: H
170     4   28  223 # Si: O
171     2   19  181 # Si: C
172     3   19   67 # Si: H
173     4   19  216 # Si: O
174     1  181  114 #  C: H
175     4    9  206 # Si: O
176     4   36  241 # Si: O
177     4   48  263 # Si: O
178     4   48  269 # Si: O
179     1  194  151 #  C: H
180     1  184  121 #  C: H
181     4    9  220 # Si: O
182     1  194  153 #  C: H
183     1  194  152 #  C: H
184     3   15   64 # Si: H
185     4   28  224 # Si: O
186     2   28  188 # Si: C
187     1  184  122 #  C: H
188     4   15  234 # Si: O
189     4   22  216 # Si: O
190     4   36  263 # Si: O
191     4   45  255 # Si: O
192     3    9   58 # Si: H
193     4    9  211 # Si: O
194     1  184  123 #  C: H
195     2   22  184 # Si: C
196     4   51  269 # Si: O
197     4   45  264 # Si: O
198     3   45   80 # Si: H
199     4   27  224 # Si: O
200     1  188  133 #  C: H
201     4   36  242 # Si: O
202     2   36  192 # Si: C
203     4   15  212 # Si: O
204     2   15  179 # Si: C
205     4   49  264 # Si: O
206     1  188  134 #  C: H
207     1  188  135 #  C: H
208     4   22  222 # Si: O
209     4   22  217 # Si: O
210     1  192  145 #  C: H
211     4   51  270 # Si: O
212     4   13  212 # Si: O
213     1  179  106 #  C: H
214     4   13  211 # Si: O
215     1  192  146 #  C: H
216     1  192  147 #  C: H
217     4   27  222 # Si: O
218     4   49  270 # Si: O
219     3   27   72 # Si: H
220     2   27  187 # Si: C
221     1  179  108 #  C: H
222     1  179  107 #  C: H
223     3   41   77 # Si: H
224     3   49   82 # Si: H
225     4   49  265 # Si: O
226     4   21  217 # Si: O
227     3   13   62 # Si: H
228     4   13  238 # Si: O
229     4   41  271 # Si: O
230     3   21   68 # Si: H
231     3   50   83 # Si: H
232     1  187  130 #  C: H
233     4   35  240 # Si: O
234     4   41  249 # Si: O
235     1  187  132 #  C: H
236     1  187  131 #  C: H
237     1  174   91 #  C: H
238     1  174   92 #  C: H
239     4   35  238 # Si: O
240     4    6  249 # Si: O
241     1  174   93 #  C: H
242     4   50  267 # Si: O
243     4   50  266 # Si: O
244     4   50  268 # Si: O
245     4   35  239 # Si: O
246     3   35   74 # Si: H
247     3   14   63 # Si: H
248     2   14  178 # Si: C
249     1  178  103 #  C: H


Angles

1       5  207    1  172 #  O:Si: C
2       6  243    2   53 #  O:Si: H
3       6  246    2   53 #  O:Si: H
4       7  246    2  243 #  O:Si: O
5       6  204    3   54 #  O:Si: H
6       4   55    3   54 #  H:Si: H
7       6  201    3   54 #  O:Si: H
8       6  204    3   55 #  O:Si: H
9       7  204    3  201 #  O:Si: O
10      6  201    3   55 #  O:Si: H
11      5  210    4  173 #  O:Si: C
12      6  202    5   56 #  O:Si: H
13      7  203    5  202 #  O:Si: O
14      7  205    5  202 #  O:Si: O
15      6  203    5   56 #  O:Si: H
16      6  205    5   56 #  O:Si: H
17      7  205    5  203 #  O:Si: O
18      5  205    7  176 #  O:Si: C
19      5  219    7  176 #  O:Si: C
20      1  176    7  175 #  C:Si: C
21      7  219    7  205 #  O:Si: O
22      5  205    7  175 #  O:Si: C
23      5  219    7  175 #  O:Si: C
24      6  206    8   59 #  O:Si: H
25      7  220    9  206 #  O:Si: O
26      6  206    9   58 #  O:Si: H
27      7  211    9  206 #  O:Si: O
28      6  220    9   58 #  O:Si: H
29      7  220    9  211 #  O:Si: O
30      6  211    9   58 #  O:Si: H
31      7  208   10  207 #  O:Si: O
32      6  209   11   60 #  O:Si: H
33      6  209   11   61 #  O:Si: H
34      7  232   11  209 #  O:Si: O
35      4   61   11   60 #  H:Si: H
36      6  232   11   60 #  O:Si: H
37      6  232   11   61 #  O:Si: H
38      7  227   12  208 #  O:Si: O
39      7  227   12  209 #  O:Si: O
40      7  227   12  210 #  O:Si: O
41      7  209   12  208 #  O:Si: O
42      7  210   12  208 #  O:Si: O
43      7  210   12  209 #  O:Si: O
44      7  212   13  211 #  O:Si: O
45      6  212   13   62 #  O:Si: H
46      7  238   13  212 #  O:Si: O
47      6  211   13   62 #  O:Si: H
48      7  238   13  211 #  O:Si: O
49      6  238   13   62 #  O:Si: H
50      2  178   14   63 #  C:Si: H
51      6  234   15   64 #  O:Si: H
52      6  212   15   64 #  O:Si: H
53      2  179   15   64 #  C:Si: H
54      7  234   15  212 #  O:Si: O
55      5  234   15  179 #  O:Si: C
56      5  212   15  179 #  O:Si: C
57      7  229   16  226 #  O:Si: O
58      5  213   17  180 #  O:Si: C
59      5  218   17  180 #  O:Si: C
60      7  218   17  213 #  O:Si: O
61      7  237   18  233 #  O:Si: O
62      5  214   19  181 #  O:Si: C
63      6  214   19   67 #  O:Si: H
64      7  216   19  214 #  O:Si: O
65      2  181   19   67 #  C:Si: H
66      5  216   19  181 #  O:Si: C
67      6  216   19   67 #  O:Si: H
68      5  245   20  182 #  O:Si: C
69      1  183   20  182 #  C:Si: C
70      5  215   20  182 #  O:Si: C
71      5  245   20  183 #  O:Si: C
72      7  245   20  215 #  O:Si: O
73      5  215   20  183 #  O:Si: C
74      6  217   21   68 #  O:Si: H
75      5  216   22  184 #  O:Si: C
76      7  222   22  216 #  O:Si: O
77      7  217   22  216 #  O:Si: O
78      5  222   22  184 #  O:Si: C
79      5  217   22  184 #  O:Si: C
80      7  222   22  217 #  O:Si: O
81      5  218   23  185 #  O:Si: C
82      5  250   23  185 #  O:Si: C
83      2  185   23   69 #  C:Si: H
84      7  250   23  218 #  O:Si: O
85      6  218   23   69 #  O:Si: H
86      6  250   23   69 #  O:Si: H
87      5  225   24  186 #  O:Si: C
88      7  225   24  221 #  O:Si: O
89      6  225   24   70 #  O:Si: H
90      5  221   24  186 #  O:Si: C
91      2  186   24   70 #  C:Si: H
92      6  221   24   70 #  O:Si: H
93      7  230   25  219 #  O:Si: O
94      7  230   25  223 #  O:Si: O
95      7  230   25  220 #  O:Si: O
96      7  223   25  219 #  O:Si: O
97      7  220   25  219 #  O:Si: O
98      7  223   25  220 #  O:Si: O
99      7  251   26  221 #  O:Si: O
100     6  221   26   71 #  O:Si: H
101     7  231   26  221 #  O:Si: O
102     6  251   26   71 #  O:Si: H
103     7  251   26  231 #  O:Si: O
104     6  231   26   71 #  O:Si: H
105     7  224   27  222 #  O:Si: O
106     6  224   27   72 #  O:Si: H
107     5  224   27  187 #  O:Si: C
108     6  222   27   72 #  O:Si: H
109     5  222   27  187 #  O:Si: C
110     2  187   27   72 #  C:Si: H
111     7  254   28  223 #  O:Si: O
112     7  254   28  224 #  O:Si: O
113     5  254   28  188 #  O:Si: C
114     7  224   28  223 #  O:Si: O
115     5  223   28  188 #  O:Si: C
116     5  224   28  188 #  O:Si: C
117     2  189   29   73 #  C:Si: H
118     5  228   29  189 #  O:Si: C
119     5  225   29  189 #  O:Si: C
120     6  228   29   73 #  O:Si: H
121     6  225   29   73 #  O:Si: H
122     7  228   29  225 #  O:Si: O
123     5  226   30  190 #  O:Si: C
124     5  227   30  190 #  O:Si: C
125     5  235   30  190 #  O:Si: C
126     7  227   30  226 #  O:Si: O
127     7  235   30  226 #  O:Si: O
128     7  235   30  227 #  O:Si: O
129     7  229   31  228 #  O:Si: O
130     7  236   32  231 #  O:Si: O
131     5  231   32  200 #  O:Si: C
132     7  231   32  230 #  O:Si: O
133     5  236   32  200 #  O:Si: C
134     7  236   32  230 #  O:Si: O
135     5  230   32  200 #  O:Si: C
136     7  233   33  232 #  O:Si: O
137     7  241   33  232 #  O:Si: O
138     7  234   33  232 #  O:Si: O
139     7  241   33  233 #  O:Si: O
140     7  234   33  233 #  O:Si: O