LAMMPS data file via write_data, version 2 Aug 2023, timestep = 4000, units = real

274 atoms
4 atom types

0 16.8189 xlo xhi
0 12.842 ylo yhi
0 16.0755 zlo zhi
-8.3798 1.195 0.4312 xy xz yz

Masses

1 12.0107
2 1.00794
3 15.9994
4 28.0855

Atoms # full

119 2 2 -0.005645198754565702 7.289198878056107 1.2807129875396848 5.431877251401695 0 0 0
12 2 4 1.339721106193109 -0.8503636030839802 6.314604252712162 5.0898831320080395 0 0 0
7 2 4 1.107467236819615 1.1836283419101121 2.1186376470544106 5.212145411595473 0 0 0
9 2 4 1.309144927426967 -0.40922261610477106 4.50206479710661 1.6775741979095469 0 0 0
10 2 4 1.602881712397005 0.49131027274781736 4.368631148411873 7.144433979972235 0 0 0
242 10 1 -0.6841055537179144 3.2312729057042318 0.5163667133032394 3.073750267354724 0 0 0
21 2 4 0.8076741751603878 5.575133625014617 1.5300428776177135 5.746814847731466 0 0 0
26 2 4 1.289566171567306 5.301067495726873 4.676453856851694 6.879564984750994 0 0 0
41 2 1 -0.6554725761347916 0.9691335061950074 0.36642976501234437 5.932667784892718 0 0 0
44 2 1 -0.6791044154147735 4.184113670318664 3.9892360255558286 1.8459093756813318 0 0 0
55 2 3 -0.8099194424887339 1.1797712547921453 0.8666513779509146 0.9653108881464739 0 0 0
56 2 3 -0.8048934983651739 -0.10738166986345266 2.4188033854016244 4.23865797326877 0 0 0
58 2 3 -0.8115667177064261 -1.609107431752303 4.342796392285281 2.641947657822182 0 0 0
59 2 3 -0.8762905314754269 0.047674292256006 3.2663277140502256 0.8722940890772714 0 0 0
243 10 2 0.1669784911355165 3.3712874490595417 1.5384696956011161 2.7158457470886677 0 0 0
61 2 3 -0.7827040073941454 1.4891679121726962 3.091185446807327 6.347085212467251 0 0 0
62 2 3 -0.8723216578867207 -0.22663669454293012 5.2879102027854605 6.102322828175535 0 0 0
74 2 3 -0.7989620809624999 5.434288969286981 0.46934220664505677 7.329148134094569 0 0 0
78 2 3 -0.8783369306333635 0.8044189261538613 5.225822049689266 2.4017846591777356 0 0 0
81 2 3 -0.7721776273959782 5.301223657755814 3.0609387509599304 6.021743791543793 0 0 0
84 2 3 -0.8184775304182583 2.810515556065868 5.923710750385168 4.087511603372842 0 0 0
85 2 3 -0.7929533397468396 4.723041680661416 5.8783096443165315 6.014092655617592 0 0 0
113 2 2 0.09897693136254933 -1.6926487221080988 5.451674399408641 3.895065212314211 0 0 0
111 2 2 0.01270208998157248 2.637910175605131 2.130923500470421 4.1758788341823845 0 0 0
112 2 2 -0.02620997752474468 -1.014015418028113 5.4338231995544755 0.40666979043660956 0 0 0
5 2 4 1.373157369471478 0.4521020956047575 2.012455291750102 0.06281106976688952 0 0 0
118 2 2 -0.01933733877792017 4.418329902107292 0.8619900587966742 4.599508965597597 0 0 0
24 2 4 1.185031242395754 5.034051424964442 5.12743658491558 0.6712478485304141 0 0 0
222 6 3 -0.741730941902396 6.345181740400183 1.6205062490405089 1.2229933843180865 0 0 0
223 6 2 -0.08787265878369409 6.14403128762393 1.0620372728905512 3.985383538982299 0 0 0
141 2 2 0.1828257828757288 4.508489992508102 2.8538450652387697 1.747995494801302 0 0 0
142 2 2 0.1991447330859473 3.072961871637412 4.155738922185415 1.6456288025213783 0 0 0
143 2 2 0.1958212349475996 4.52495883698287 4.529763008355024 2.8340318601038716 0 0 0
220 6 4 1.028490780900231 6.749343163058499 0.52960848332094 2.3215706679348362 0 0 0
135 2 2 0.2031082425819043 1.0417857169660412 0.3539261126554015 7.128130162927364 0 0 0
25 2 4 1.440578967148231 1.473011982365644 6.383911225674976 3.2045986017010852 0 0 0
267 21 2 0.1741016423079165 -3.6451469490551767 6.061795711319076 0.46728371199315455 0 0 0
244 10 2 0.1418884865150264 2.875985319650129 0.39213902993043603 4.101569831933787 0 0 0
82 2 3 -0.8053597545331139 1.4922884386096866 5.204684431073519 8.037627266352013 0 0 0
138 2 2 0.1547634762753697 1.1432974899916233 0.4792714890731794 11.38586198614184 0 0 0
8 2 4 1.275435593550472 1.7696804407496678 2.67287813486005 10.920614580603608 0 0 0
13 2 4 1.210030938701673 0.37279244350591434 4.961699240173092 12.731646923548102 0 0 0
229 7 2 -0.0192232142984536 3.645296014485412 6.367007017734597 13.278460948359486 0 0 0
20 2 4 1.30390939693003 4.446181207153561 3.016502496475743 9.265827282186503 0 0 0
23 2 4 1.221647964730043 6.870436239929244 2.9668606038739482 11.208511895036082 0 0 0
99 2 3 -0.8164871730350401 7.962814318802907 1.0469507409254017 8.573741139165763 0 0 0
226 7 4 0.9008863597332372 3.629928162456606 6.313893590518395 15.064257400477167 0 0 0
42 2 1 -0.6879530841045869 1.9547823561017332 1.1340222492334135 11.973613044417476 0 0 0
57 2 3 -0.8221453341303328 0.365730007025895 2.4982802559725106 10.135572635900838 0 0 0
63 2 3 -0.8779940604620171 -0.45091261770624724 3.8363612418922894 13.50159148053334 0 0 0
64 2 3 -0.7923930440211407 1.8384937696870642 4.201621147485224 12.200595430887091 0 0 0
65 2 3 -0.8141638130413198 -2.2210699823488547 5.731982915839154 9.679003223446305 0 0 0
66 2 3 -0.8618816674231015 -0.3056167391195723 5.743224536304163 11.516047852322028 0 0 0
73 2 3 -0.809850723175254 3.0769536216380935 2.7291375292361497 9.970428096329249 0 0 0
75 2 3 -0.8468599399316917 5.477844879635569 3.2459219097109364 10.402994144845104 0 0 0
76 2 3 -0.8492658240966936 6.731702625878254 1.4476373388355066 11.887405683358013 0 0 0
80 2 3 -0.7852540480810428 4.603659827142912 4.3118433728537315 8.284047171357512 0 0 0
29 2 4 0.9635861180739612 3.688107030257856 6.361114421112743 11.106378883517884 0 0 0
137 2 2 0.182676913570323 2.9280721969729426 0.7063380571756209 11.918191582206262 0 0 0
114 2 2 -0.04453544308326135 0.8665305840274014 6.146875998889405 13.871799531025186 0 0 0
248 11 2 0.1515363892821084 3.7033215263097574 3.6823341914347627 15.395476073406845 0 0 0
124 2 2 0.08120214909409099 3.303852965286202 4.831121823102651 11.788938486278704 0 0 0
136 2 2 0.1767831285144955 1.555451618385796 1.3046730110739033 13.007013328849744 0 0 0
179 4 4 1.265451296218226 7.533029968295881 2.9439536829799624 15.648426019671673 0 0 0
183 4 1 -0.6864973863170115 5.901638788723911 2.3902369527393965 14.970921400266183 0 0 0
14 2 4 1.500486937943848 -1.0633510795095749 6.650680428618134 10.51186793706115 0 0 0
86 2 3 -0.7924781956468501 2.635683567631063 6.523473859919308 9.987781546874436 0 0 0
196 4 2 0.1634131177029581 5.471307833595285 3.260711850249763 14.445725519211893 0 0 0
117 2 2 0.1003782083230949 4.957520102382949 1.6858705254913213 8.273964767346152 0 0 0
227 7 3 -0.807891287332227 5.072347311796957 5.953690329800163 15.642952441053703 0 0 0
195 4 2 0.2121894244595744 6.167278650602867 1.5925592306626002 14.176203954965795 0 0 0
245 11 1 -0.6851881265441131 2.921588199846396 3.101394400677918 14.799652869054936 0 0 0
246 11 2 0.2052837249163348 2.5443459754385325 3.6780014357099815 13.87246986584347 0 0 0
247 11 2 0.1806458194066891 3.415696397547346 2.1561275432749345 14.519686903006635 0 0 0
123 2 2 -0.01930467846881647 5.238627138706566 5.9009882938488065 10.536835800615462 0 0 0
228 7 2 -0.02782886935386642 2.4717025189815467 5.02603853671124 15.12056228933405 0 0 0
197 4 2 0.1894537341738526 5.283075580428246 1.9777174497060173 15.812109199816298 0 0 0
187 4 3 -0.7752784005961078 8.996985377820732 0.40120017977843636 12.563596587279113 0 0 0
262 16 3 -0.8170015623879673 0.43708664618696524 1.8072472417325578 15.185730752069833 0 0 0
27 2 4 1.417916389339816 1.5550166407611892 6.636316736808868 8.817747009313603 0 0 0
60 2 3 -0.8112477429257077 -0.6770643014224915 3.6431943477957702 8.081930563029022 0 0 0
272 26 2 0.1769854486356696 0.6240561274823903 10.115359743275294 0.19338023453390543 0 0 1
3 1 3 -0.82819088813748 -5.830441510361583 11.48238492406558 0.7693971329419722 0 0 0
268 22 2 0.1684637139985473 -4.147378337304857 8.180564251917623 1.0134379761863275 1 0 0
16 2 4 1.456862056335592 -3.0458255939439485 7.93590623337839 6.6578717736601645 0 0 0
17 2 4 1.269945344796629 -4.382798958297272 9.934244610416773 4.836517747039135 0 0 0
154 2 2 0.1590844006532634 0.9278845170853973 9.352040803396381 7.079417366682615 0 0 0
161 2 2 0.1798198204162305 -1.2395186766918087 9.999327833646328 0.2792278594991795 0 0 1
31 2 4 1.245284445989609 -2.0208125000120463 10.326171951820529 2.955308315372489 0 0 0
33 2 4 1.152933766646312 -0.06674734388199194 11.114703332443858 5.380261312312689 0 0 0
48 2 1 -0.6717275122178393 -1.175004493162211 8.936812915264078 1.981751628922097 0 0 0
49 2 1 -0.652488848166044 0.013902152656974587 9.431553595573716 6.272963379007835 0 0 0
67 2 3 -0.8415926256351661 -3.761363412838469 7.011798467766458 7.784267449951528 0 0 0
68 2 3 -0.858330951081453 -1.937095368152397 7.139229912762206 5.883954220190848 0 0 0
28 2 4 1.201667652945277 3.8831765978354778 6.792008571570342 4.901036768276468 0 0 0
70 2 3 -0.8006766368978517 -4.154089183300508 8.579833063598771 5.573329273854506 0 0 0
79 2 3 -0.8450201285838186 0.2433847939000856 7.209543471370118 4.415387673829856 0 0 0
87 2 3 -0.8130598872249399 1.8047369955878168 7.5765386735649285 2.171659583138705 0 0 0
30 2 4 0.9926890761884088 2.490767450359744 8.269030560240777 0.944086331613386 0 0 0
89 2 3 -0.7686049629457925 -2.070279827666436 11.885503452924373 2.0934173621485836 0 0 0
90 2 3 -0.8161317519895643 -3.47133092980876 9.924545811079893 3.5290924128368064 0 0 0
93 2 3 -0.8210448190264712 -1.0377229121162856 10.772491840184887 4.270721428282197 0 0 0
94 2 3 -0.8116080707716371 -0.5383349556134148 12.263071203362289 6.482019793570007 0 0 0
115 2 2 -0.01605356218641347 -3.898761225592969 11.20850264905664 5.753642800322982 0 0 0
147 2 2 0.1639140314304313 1.7967833559737523 7.495094944579196 6.560431862323347 0 0 0
151 2 2 0.19372219864687 -0.09693759597469531 9.323371487370778 1.5663835425935968 0 0 0
152 2 2 0.1495677953852716 -2.007066331330331 8.823348527049372 1.1903338750466264 0 0 0
153 2 2 0.200965300851867 -1.1318355794894008 8.017940064062339 2.627337998321559 0 0 0
251 13 1 -0.661525351476504 -5.1363220965201 8.75630312417148 1.2108118114778872 0 0 0
155 2 2 0.2805999799883907 0.07571298601826726 8.55358447743855 5.542225426802219 0 0 0
156 2 2 0.2789200583807737 -1.0234783258149271 9.427474007842745 6.863793105105572 0 0 0
46 2 1 -0.6641329980401697 2.4215416956922238 7.857650702334081 7.526233467038764 0 0 0
148 2 2 0.1795837681734341 3.532000535959124 7.640989814110704 7.478624152897362 0 0 0
265 19 2 0.1922460466271536 -4.395814665978176 12.584647444657131 2.598461606489973 0 0 0
19 2 4 1.314303922801373 -1.377472347771652 12.761449195400452 7.818065688546427 0 -1 0
1 1 4 1.348236479285095 -6.5736062179749375 12.525483084939353 1.8108447027833015 0 0 0
69 2 3 -0.8421899361352191 -5.875332687362763 10.316477918509838 4.3794661349273705 0 0 0
91 2 3 -0.8492737419067933 -2.5156753292934786 9.547043771076657 7.621732359769066 0 0 0
133 2 2 0.1817561311445409 -6.612768740042981 12.617321457754478 5.45147578459838 0 -1 0
47 2 1 -0.6541598151245452 1.659638262965514 9.937069800251333 0.7942778519334646 0 0 0
252 13 2 0.228061625096109 -5.259366744907622 9.169713077587637 2.2451715752756343 0 0 0
149 2 2 0.1483235479627858 2.18065844364834 8.95076990114134 7.808297739026407 0 0 0
122 2 2 -0.005774412445853578 3.1174830598906484 8.114231617747764 5.728072512543238 0 0 0
271 25 2 0.1511380732511891 1.528631126793096 10.154279758042694 1.9314187734285253 0 0 1
270 24 2 0.1816862062750897 0.5386484096943815 12.147383075580123 2.237142648749404 0 0 0
159 2 2 0.1942866527416528 1.50685213084679 10.35277746810246 12.2582496566888 0 0 0
18 2 4 1.230091938553746 -2.2608264621266856 8.160323443641639 12.873602405192472 0 0 0
22 2 4 1.286999409046788 -0.8719356551197294 12.977067198305102 12.01576423816897 0 0 0
32 2 4 0.9864775652539306 -2.5254588013484875 10.32204565283997 8.904418293150082 0 0 0
35 2 4 1.264192368046292 -1.4681068067450198 10.729030845318382 14.193944825254203 0 0 0
15 2 4 1.106757593230409 -4.060986675737236 10.695421213328768 16.04067991519152 0 0 0
160 2 2 0.1688532497514816 0.8535356913678731 10.61468699934479 14.616874011160268 0 0 0
157 2 2 0.161588656540688 2.6586818744886878 9.801649010657686 10.763723980875522 0 0 0
51 2 1 -0.6523951690275704 0.04912734769582894 11.0101518784308 15.317560828508437 0 0 0
162 2 2 0.2089204321904552 0.11071110168341503 12.10725091095403 15.492404817180505 0 0 0
72 2 3 -0.8369250543279079 -1.9167229141021895 7.885927424275376 11.224852364784372 0 0 0
83 2 3 -0.7928073744161134 0.1512485974660266 7.227889697884398 9.27591657079581 0 0 0
88 2 3 -0.7607756792066767 3.127297984509166 7.710800625840829 15.594809852603346 0 0 -1
92 2 3 -0.8077373061589502 -1.4601947638373205 11.417513671354028 9.185068217542192 0 0 0
95 2 3 -0.8004738708128039 3.761374617364228 7.749825363970892 11.935395274448359 0 0 0
96 2 3 -0.7694360352468588 -1.1589940001461236 9.187995022336473 13.347676021684993 0 0 0
97 2 3 -0.811673317948542 -1.3878345051374268 11.844962118039096 12.957745806550326 0 0 0
98 2 3 -0.8340978482784051 -2.774484622922119 10.71524660119093 15.141340748980861 0 0 0
116 2 2 -0.04099273958457059 -3.6176078159380585 9.103649949197589 12.705858543765817 0 0 0
120 2 2 0.1137873491322555 -0.8527280249271743 12.283120815087395 10.465195668995477 0 0 0
126 2 2 0.0916248171561584 -2.224146454660449 9.185504704597475 10.13682493383642 0 0 0
127 2 2 -0.05604513956445678 -4.094924037514316 10.576732339302161 9.405408609748953 0 0 0
128 2 2 0.02664567150106192 2.432168538922631 9.731662624571843 13.704986236895275 0 0 0
140 2 2 0.1648914658753682 -5.893467031264248 11.378292031555903 14.5862481154187 0 0 0
50 2 1 -0.6492250186763436 2.583381481678094 10.408253591471567 11.88124723325156 0 0 0
139 2 2 0.1579596286520492 -4.733077095427537 10.270704986706816 13.774863665535262 0 0 0
71 2 3 -0.8411646610560833 -2.4539548256105195 6.9034268178239175 13.71961716853417 0 0 0
235 8 2 0.1661933599354466 11.805619184160797 1.6153153017432356 2.6886423615114636 0 0 0
37 2 4 1.24828749075339 13.018431123905016 2.1496254194398725 5.56137858363198 0 0 0
221 6 1 -0.6457285853532434 8.620013214785061 0.37706661534251906 2.3021909013502997 0 0 0
39 2 4 1.285117096400499 11.145508751097307 3.901660324724627 7.551185374166436 0 0 0
45 2 1 -0.6971039623033159 7.149204063897095 5.040193489100901 7.206710549126203 0 0 0
54 2 1 -0.6441494163124752 10.351196321724974 5.457468854221218 6.839478880501351 0 0 0
101 2 3 -0.8291514379260986 14.039364641241526 3.0660692728580186 4.767598831117619 0 0 0
102 2 3 -0.8309846452145881 13.659069954354164 1.0274425349758372 6.573738341709151 0 0 0
234 8 2 0.1757986033807381 11.522603554903649 0.2843316879190123 1.5671111885097684 0 0 0
4 2 4 1.440139627864355 15.138206480992277 2.708319213713354 3.6766256129131207 -1 0 0
106 2 3 -0.7813269466071422 11.866579675108394 3.048748525268114 6.281516528527993 0 0 0
232 8 3 -0.7712869087708665 14.550721065484725 1.4699922384638286 2.7853486227597775 0 0 0
129 2 2 0.002893223619467462 12.204091675162212 1.295319823376185 4.348125542341416 0 0 0
130 2 2 0.09584758595334632 7.686446832656263 6.136912879535775 3.761122383231819 0 0 0
169 2 2 0.2248769493943325 10.800242639466513 6.356794297516293 7.340418953042793 0 0 0
250 12 2 0.1777471503586228 11.992272421484609 4.579268654939009 0.6142900728013295 0 0 0
146 2 2 0.1764120497017476 7.721742095593352 4.200856644120374 6.771608709288717 0 0 0
231 8 1 -0.6662533141058571 11.836319512350665 0.47442516908062826 2.6276508198559942 0 0 0
145 2 2 0.1641535148112218 7.383934733707748 6.03443574650474 6.799389723901829 0 0 0
170 2 2 0.1776245840269574 9.11411101320563 5.284972846008367 6.9254011474290635 0 0 0
171 2 2 0.1866730170251088 10.752889296398852 5.281635260368186 5.738481580748197 0 0 0
207 5 4 1.247106660379055 14.400799403341725 0.31413191429382964 7.797747773656782 0 1 0
224 6 2 0.1832038113749893 8.905969779634171 1.0522854031723574 1.4191996975529106 0 0 0
225 6 2 0.11664833528371 8.76585214509346 0.8781688089642842 3.404814334965693 0 0 0
134 2 2 0.2571479321160415 16.782682388091764 0.15142294565955997 5.563962104884077 -1 0 0
249 12 1 -0.6359635807051759 12.873354394798726 5.05606887056963 0.06609973153941477 0 0 0
11 2 4 1.510946414908947 13.125282444457552 6.1146040398012795 9.088728701680008 -1 0 0
36 2 4 1.332163846116927 8.986017802693768 2.1857119603941655 9.170930035078884 0 0 0
52 2 1 -0.6732975311145251 10.274767875634558 1.0925339211728404 10.010138571287188 0 0 0
188 4 3 -0.7964752226267763 8.7435127368999 2.163658530702208 14.845791610874736 0 0 0
100 2 3 -0.838745791059449 8.159691617144972 3.0136368673111695 10.284127601563489 0 0 0
107 2 3 -0.771683672553946 12.360167805022959 4.509907151038917 8.69199899569602 0 0 0
110 2 2 0.04211511077960791 14.553676776733017 3.206525534050543 10.113631014684296 -1 0 0
121 2 2 -0.02628778723618571 7.10468248090386 4.104563831822118 12.390826332315214 0 0 0
202 4 2 0.169584899891007 13.910764000703697 3.4919287175145155 11.761330358721139 0 0 0
163 2 2 0.1755770058632113 11.130118165982305 1.782917170361548 10.106143599639969 0 0 0
77 2 3 -0.7274517779338445 7.558089998811244 4.487245484575371 15.891698510885375 0 0 -1
165 2 2 0.2468501281428679 9.830143517616454 0.827658100929995 11.019135974549341 0 0 0
172 3 4 1.007287291223033 16.10562282625473 2.3851336661566043 14.118456643223935 0 0 0
173 3 1 -0.6615316714431453 14.725095364953303 1.2675664090340233 13.236485708017014 0 0 0
174 3 2 0.04374051622421053 14.368769212513486 2.3900846824036304 14.71945313123777 0 0 0
175 3 2 0.07926924443032828 16.031218459713727 1.0134687894177474 12.579553978932948 0 0 0
176 3 2 0.1655595200349988 14.111759775614766 1.8918280453341785 12.48822434203019 0 0 0
6 2 4 1.345879744977604 15.873628815243446 2.57078595164312 9.194516359862536 -1 0 0
178 4 4 1.074880420301347 13.89081138949788 5.379540997950657 14.38844129546334 0 0 0
180 4 4 1.235988145491861 9.825845715542739 1.4489687619562965 13.911375191868862 0 0 0
181 4 4 1.314957402618413 11.779791753721254 3.8303128374602866 12.647639691558677 0 0 0
205 4 2 0.1568110189767998 9.222679581839758 5.7062826831442495 9.530710560122914 0 0 0
185 4 1 -0.688871636652305 12.936162145415231 3.1118689633118723 11.22267563839457 0 0 0
144 2 2 0.1823067640412784 7.176244662047572 5.016798972723759 8.336276095596292 0 0 0
189 4 3 -0.7743941612044211 10.94011602082729 2.5695884878975632 13.163330658308254 0 0 0
190 4 3 -0.8353502906978163 12.920206135687073 4.392437301705956 13.713738534948874 0 0 0
192 4 3 -0.8120684768074714 10.829173131797681 5.023658561968729 11.949549076774138 0 0 0
263 17 3 -0.8609672558382787 15.334899264348259 1.2159966328948835 8.742407333164861 0 0 0
199 4 2 0.1686799387821091 11.780621412392854 0.7335489064146355 14.978818813306495 0 0 0
200 4 2 0.2534826206395644 12.66985442195685 3.6021603706666916 10.165541653144924 0 0 0
201 4 2 0.1472980968989455 12.750109098394653 2.000871368301194 11.270144114300127 0 0 0
182 4 4 1.045369741994217 10.759076594401682 6.267921818868218 11.051514747223392 0 0 0
105 2 3 -0.822221423082353 9.906556132174492 3.0801170377581952 8.130115685660703 0 0 0
266 20 2 0.07138806121650187 15.180975176247214 4.49498757159358 15.557890509922965 -1 0 0
237 9 1 -0.6833333619122217 7.793781401844931 10.351972745664353 0.5331188982420277 0 0 0
256 14 2 0.1426833469502088 1.7872164965375736 11.553106509124646 3.638245344976825 0 -1 0
167 2 2 0.179020479305826 8.988813158012716 7.3413344215395 2.539379743879101 0 0 0
53 2 1 -0.6468985074895709 8.249508106731618 7.417790618792008 3.306998476492304 0 0 0
104 2 3 -0.8032340784060529 5.0139990829600025 7.4960668678158875 3.9036755855210896 0 0 0
233 8 2 0.1605881114644892 2.8050283235423783 12.717876768616122 3.4702340093136366 0 -1 0
125 2 2 -0.007760004133502817 4.210298131145756 8.370844834287956 1.1495074456077865 0 0 0
150 2 2 0.1461581037232964 2.5274745779905268 10.534919948164964 0.2601693239789438 0 0 0
166 2 2 0.001538938042948811 7.085938105362706 8.78592904214472 2.5819774756306466 0 0 0
168 2 2 0.1598318936427083 8.587960131229675 7.912793974830954 4.245476812730448 0 0 0
206 5 4 1.187405719736748 9.466404503350157 10.596518804537927 3.952631959175683 0 0 0
215 5 2 0.1532691939470316 5.199459545842545 9.420630722278082 6.3789301407087775 0 0 0
208 5 4 0.9809783286134788 7.568260336027072 10.288447900614813 6.7707473232667 0 0 0
209 5 1 -0.6471494663664036 6.271586306591152 9.028363210073927 6.221232460931749 0 0 0
255 14 2 0.1612378213444117 1.449362616359707 12.80435248684294 5.140204260141378 0 -1 0
211 5 3 -0.7489237740236818 8.556723585081071 10.684340686408026 5.3321992631725035 0 0 0
212 5 3 -0.7416271198404407 6.801354241364497 11.918803501495393 7.295457505043808 0 0 0
213 5 2 -0.005445100176346715 8.844507426655648 9.213393385616278 3.016336072996471 0 0 0
254 14 1 -0.6653410458038487 1.6855163363016241 11.680629143343703 4.826950605687958 0 -1 0
216 5 2 0.1457405279014917 6.596243883213916 8.200474978696448 6.989392252402442 0 0 0
217 5 2 0.1769590847393836 6.6201809286415685 8.903891467411494 5.101110182232558 0 0 0
230 8 4 1.095092026031009 5.309924067022474 12.770691260954989 2.510649185972657 0 -1 0
253 13 2 0.1395562950425909 10.821611969362054 8.143830657833053 0.8847964556094233 -1 0 0
103 2 3 -0.7756317882373694 5.840214170578601 6.480915430037973 1.5275146605731305 0 0 0
238 9 3 -0.8037610347109129 5.580398608405196 12.067158073404043 1.105262130485136 0 0 0
240 9 2 0.1974170077293088 8.132327544020841 10.592576976194035 1.5326054867502241 0 0 0
38 2 4 0.9922703937811099 6.231081070684771 7.232678037244986 2.8390234791747533 0 0 0
257 14 2 0.1437807514824853 2.482294165656322 11.113163939401508 5.410419386300011 0 -1 0
258 15 1 -0.656880027313726 5.874919295250203 11.450633243521308 3.748368454816479 0 0 0
259 15 2 0.1471678194761156 5.733594512190738 10.402756481988568 3.2711752726344305 0 0 0
260 15 2 0.1385346343945113 4.983002952178244 11.69408200444663 4.508839354986197 0 0 0
261 15 2 0.2254497625614938 6.906132869506523 11.458649119918332 4.270849258473021 0 0 0
239 9 2 0.1253024499766088 6.953450396360685 9.408008144045466 0.6575559620230728 0 0 0
2 1 3 -0.8183176459870768 9.283160622264715 11.88224515031795 2.911512629398202 -1 0 0
274 28 2 0.1477774087414469 8.588979739973094 8.459740891177171 7.774821031742986 -1 0 0
198 4 2 0.1664067326384844 2.365985023076585 12.08020784903257 14.225728688032905 0 -1 0
40 2 4 0.9440354774235235 6.426527929947264 10.971587479433424 13.16390485520006 0 0 0
108 2 3 -0.8168654484537349 5.232443056753061 10.068526590018756 12.94837568991258 0 0 0
109 2 3 -0.8380467325752736 6.970823777884792 11.40505441763264 14.512688097392122 0 0 0
214 5 2 -0.03791815869885524 4.833782994182355 12.425028003234178 8.812067965380784 0 0 0
132 2 2 -0.0325917626088742 7.642455299560982 10.183011279885655 12.308690945958334 0 0 0
236 9 4 1.054035232866889 7.550533973805301 11.8619590482172 15.945851266815533 0 0 -1
203 4 2 0.1764724658326818 8.867143842376095 7.672838892080696 9.434546177532578 0 0 0
131 2 2 -0.01530808961668129 6.193058659824528 12.410592922630192 12.207565127653542 0 0 0
193 4 2 0.06904110674720769 11.176929347611958 9.435920423985776 15.530166893912547 0 0 0
218 5 2 0.1456518471165912 7.882761599314422 9.470984748942262 9.168630849042101 0 0 0
194 4 2 0.004172417328750285 9.84054282071147 7.640287304565877 11.73758596091455 0 0 0
241 9 2 0.1789174833562784 9.806894684156756 10.624993168185686 15.820365000324419 0 0 -1
269 23 2 0.1429582289329292 10.327908476970345 9.979849474470253 13.540530654598356 0 0 0
264 18 2 0.08281555323203603 9.2197382138091 12.435292970683314 15.658512448231377 0 0 0
164 2 2 0.1637974609330699 2.1606923934512285 12.973005287955445 9.393459737278283 0 -1 0
34 2 4 0.9916009322770185 3.8130730739839156 9.250079367983911 12.655634108995633 0 0 0
191 4 3 -0.819910888954833 12.095138422548713 6.742797585390728 10.141112456087901 0 0 0
158 2 2 0.1577081187036187 3.1128953497766236 11.456347968809192 11.810039439110891 0 0 0
210 5 1 -0.6650563939610921 8.51154279290837 9.492032012749265 8.253119954650034 0 0 0
43 2 1 -0.6651753235175467 11.145940737817895 10.335213659565666 14.284321236562958 -1 0 0
219 5 2 0.1723824749188713 9.497865995837849 9.939145027484933 8.507915851266384 0 0 0
184 4 1 -0.6608720274606322 2.4031005480894825 13.073289709746298 14.895443574079506 0 -1 0
273 27 2 0.1767011618319084 1.83338860154251 12.968576730843074 15.906985435207275 0 0 0
186 4 1 -0.6651189086582567 9.137368819727522 6.818648011641267 10.151700300403645 0 0 0
177 3 2 0.1690197616779342 5.799594379948456 13.153237142578062 13.64055428786588 0 -1 0
204 4 2 0.1457041220575438 8.34546550008129 6.7762178023743775 10.9170687062923 0 0 0

Velocities

119 -0.0003768557839032251 0.01083090884100249 -0.008303959477614534
12 0.0013044254551789081 0.001107850029162276 -4.064535196652425e-05
7 0.004165098280253977 -0.00013735347078425142 -0.00047542660816414045
9 -0.0013782067717291702 0.007982616395745958 0.003619606735938307
10 0.00814419998000378 0.0017455115639984711 0.005381920063562723
242 -0.007693453558140552 0.0005978495916008971 8.604306242897908e-05
21 0.0015974039031491328 8.374505897777638e-05 -0.004678243511744924
26 0.000939653068689105 -0.004098970089407996 -0.0019864602733928615
41 -0.00802432599621327 -0.0021013765674434332 0.0004999970836516473
44 -0.008843524578088463 0.003095767002097811 -0.0027689697126158613
55 -0.003651187205717779 -0.0019998488317293835 0.002734229584013315
56 0.006244766503154561 0.00015540240535406066 -0.0030216925959595004
58 0.0043920208511599975 -0.0024581418243014674 6.210655581101652e-05
59 -0.004829282852548892 -0.0014070143279782477 0.0036354742238978864
243 0.010160446171527115 -0.006194082650498237 -0.0037852186854771246
61 0.0009022876712704707 0.006785872356622629 -0.002135514877506668
62 -0.0057534511256944285 -0.0008491551393558464 0.0005833040289173118
74 0.006213357626724662 -0.0007104633962603179 -0.0024497741944390287
78 -0.005758885946161337 -0.0014506588889073636 0.001950704959435312
81 -0.00013900802689034513 -0.0007644613312841788 0.005994244354259973
84 0.005071545624867784 -0.0064377698281372206 -0.00028135529977147485
85 -0.0019549018271382565 -0.003380218697936746 -0.003314663869801368
113 0.011348238942093723 0.013806809781455326 0.021314259166495715
111 -0.003927525651394909 -0.0030719779366594224 0.003402628050772914
112 -0.004183247569650171 0.02695341447766547 0.004167598469513356
5 -0.0032551069460339354 -0.005362281738311629 -5.526099356271744e-06
118 0.0244035180890038 -0.01837612109084973 -0.007169226978326044
24 -0.0009549216669404395 -0.002382565627379435 0.0007745159071820726
222 0.0008263911530105363 0.004843968797842865 -0.002400077498946925
223 -0.0028692208819885855 0.004341826944453104 0.004876319528096732
141 0.017364862265581333 -0.013559127147516222 0.014647081801892696
142 0.022547866986169736 0.025180671021766854 -0.010545399036546424
143 -0.005275734038542192 0.010061916759389784 -0.04236960811512371
220 0.0006240272287879416 0.0009722540951661553 -0.005783264343452133
135 -0.004267501821225676 -0.028005815195158254 -0.011543829138036369
25 0.00011302518209530097 0.004899765900468268 -0.0018663193932158357
267 -0.005900465488208459 0.01681595151452202 0.019297031197841895
244 0.03359380688322835 0.011237670047439448 0.03570899430385974
82 0.001758675577787357 -0.0070056069444031244 -0.0032247476346198463
138 -0.010458436641076856 0.009864448154780225 0.00910561517515762
8 -0.0030660446537245575 0.0015490537724872659 -0.0018305410978167265
13 -0.0036829527038752157 0.00014731052210445618 0.002958203056361373
229 0.006678852253620973 -0.0045203533625028216 -0.015143104615384066
20 0.0005147146223971148 -0.0003922314253931953 1.7740993380298758e-05
23 0.0036692731211228884 -0.0043434981845677754 0.00739549372526273
99 -0.0033275245914148703 0.0023070644132200282 -0.0024908740327702484
226 -0.0020705854263881607 0.00327168905501849 0.0008456947770283731
42 -0.0033034284017769066 0.0028302724048036997 -0.0012453078630460183
57 0.0007251645192749539 0.003228188393117564 0.0025737038103404216
63 0.0017577795616410545 0.0013922917486956445 0.0010558505863269832
64 -0.003302438964878377 -0.0026529921954352503 0.003923983877107898
65 -0.0008801602363397738 -0.004146957607802929 -0.0025534397009872923
66 -0.011505244267321125 -5.9489048448175314e-05 -0.002648856228551727
73 -0.0008151864089549038 -0.00269193527837583 0.004663179949102853
75 0.00303791293133194 0.002207183790582096 -3.3727334696498975e-05
76 -0.0016489555796929596 -0.004189540657557352 -0.0012772684666067678
80 0.0027992170998577632 -0.000853370147902885 0.0017331833990367315
29 -0.003531375775805542 -0.0006397736936487003 -0.000577234960955734
137 -0.012527356874515231 -0.007493821396912014 0.011842568748795104
114 0.014925999419480746 -0.03043575802252714 -0.008197745210769778
248 -0.021579249393454885 -0.02440155598949229 0.0286636780058004
124 0.006250462768169465 0.008170688226996523 0.01977536577137003
136 0.01988762519135631 -0.02891786924807267 -0.0010241227552784278
179 -0.004858971392012975 0.00069736638580027 0.00029249305692613135
183 0.008495894424684318 -0.005661394028140405 -0.0011234529924557342
14 8.884499774492836e-05 -0.002474454331596609 -0.0030122816033974053
86 0.004947597309157892 0.0029854163169207733 0.0007778081516890115
196 -0.016613136170179323 -0.013044624349162747 -0.010871338292302364
117 -0.0017416399260863846 0.007610628227272379 -0.014108958728220026
227 0.005054528267704291 0.001985371961982977 -0.006892226415999648
195 0.0007828771801092602 -0.03392818171186434 -0.00659757014299082
245 -0.00659054404916573 0.0031093543944249874 -0.012393749214831102
246 0.005831005872717215 -0.027752922419705207 -0.004055793342855209
247 0.0022450461920229176 -0.006088699740993603 0.003133212546026167
123 -0.019435876301055657 0.020565158592298648 0.00941646827495703
228 0.009439990766423158 -0.011230340714051447 0.005120534308395371
197 -0.00585893496118019 0.02301837051151265 -0.005492850259572944
187 0.0008951931002704853 0.0019087080574170404 -0.00042316887806516227