LAMMPS (2 Aug 2023 - Update 2)
OMP_NUM_THREADS environment is not set. Defaulting to 1 thread. (src/comm.cpp:98)
  using 1 OpenMP thread(s) per MPI task
Reading data file ...
  triclinic box = (-0.16850835 0.040044717 0.65076706) to (14.917208 13.391755 15.958833) with tilt (-7.8556212 0.0034935965 -0.84834476)
WARNING: Triclinic box skew is large. LAMMPS will run inefficiently. (src/domain.cpp:220)
  2 by 2 by 2 MPI processor grid
  reading atoms ...
  271 atoms
  reading velocities ...
  271 velocities
Finding 1-2 1-3 1-4 neighbors ...
  special bond factors lj:    0        0        0       
  special bond factors coul:  0        0        0       
     0 = max # of 1-2 neighbors
     0 = max # of 1-3 neighbors
     0 = max # of 1-4 neighbors
     1 = max # of special neighbors
  special bonds CPU = 0.001 seconds
  read_data CPU = 0.012 seconds
*****Minimization starts.*****
Setting up cg style minimization ...
  Unit style    : real
  Current step  : 0
WARNING: No pairwise cutoff or binsize set. Atom sorting therefore disabled. (src/atom.cpp:2366)
WARNING: Communication cutoff is 0.0. No ghost atoms will be generated. Atoms may get lost. (src/comm_brick.cpp:210)
Per MPI rank memory allocation (min/avg/max) = 6.364 | 6.364 | 6.364 Mbytes
   Step          Temp          E_pair         E_mol          TotEng         Press     
         0   300            0              0              241.44561      3579.5546    
         1   300            0              0              241.44561      3579.5546    
Loop time of 8.73163e-05 on 8 procs for 1 steps with 271 atoms

56.0% CPU use with 8 MPI tasks x 1 OpenMP threads

Minimization stats:
  Stopping criterion = search direction is not downhill
  Energy initial, next-to-last, final = 
                     0                  0                  0
  Force two-norm initial, final = 0 0
  Force max component initial, final = 0 0
  Final line search alpha, max atom move = 0 0
  Iterations, force evaluations = 1 0

MPI task timing breakdown:
Section |  min time  |  avg time  |  max time  |%varavg| %total
---------------------------------------------------------------
Pair    | 0          | 0          | 0          |   0.0 |  0.00
Bond    | 1.18e-07   | 2.5937e-07 | 3.81e-07   |   0.0 |  0.30
Neigh   | 0          | 0          | 0          |   0.0 |  0.00
Comm    | 9e-07      | 1.6476e-06 | 2.876e-06  |   0.0 |  1.89
Output  | 0          | 0          | 0          |   0.0 |  0.00
Modify  | 0          | 0          | 0          |   0.0 |  0.00
Other   |            | 8.541e-05  |            |       | 97.82

Nlocal:         33.875 ave          41 max          26 min
Histogram: 1 0 0 1 0 3 2 0 0 1
Nghost:              0 ave           0 max           0 min
Histogram: 8 0 0 0 0 0 0 0 0 0
Neighs:              0 ave           0 max           0 min
Histogram: 8 0 0 0 0 0 0 0 0 0

Total # of neighbors = 0
Ave neighs/atom = 0
Ave special neighs/atom = 0
Neighbor list builds = 0
Dangerous builds = 0
WARNING: New thermo_style command, previous thermo_modify settings will be lost (src/output.cpp:903)

CITE-CITE-CITE-CITE-CITE-CITE-CITE-CITE-CITE-CITE-CITE-CITE-CITE

Your simulation uses code contributions which should be cited:
- pair reaxff command: doi:10.1016/j.parco.2011.08.005
- fix qeq/reaxff command: doi:10.1016/j.parco.2011.08.005
The log file lists these citations in BibTeX format.

CITE-CITE-CITE-CITE-CITE-CITE-CITE-CITE-CITE-CITE-CITE-CITE-CITE

Neighbor list info ...
  update: every = 10 steps, delay = 0 steps, check = no
  max neighbors/atom: 2000, page size: 100000
  master list distance cutoff = 12
  ghost atom cutoff = 12
  binsize = 6, bins = 4 3 3
  2 neighbor lists, perpetual/occasional/extra = 2 0 0
  (1) pair reaxff, perpetual
      attributes: half, newton off, ghost
      pair build: half/bin/newtoff/ghost
      stencil: full/ghost/bin/3d
      bin: standard
  (2) fix qeq/reaxff, perpetual, copy from (1)
      attributes: half, newton off
      pair build: copy
      stencil: none
      bin: none
Setting up Verlet run ...
  Unit style    : real
  Current step  : 0
  Time step     : 0.5
Per MPI rank memory allocation (min/avg/max) = 115.7 | 117.7 | 119.5 Mbytes
   Step          Temp          PotEng         Press        f_avgp[1]       Density         Volume    
         0   300           -31976.978      6305.2198      0              1.6358887      3083.3525    
       100   310.89909     -31979.747      2789.9477     -7043.6606      1.6358887      3083.3525    
       200   313.14919     -31981.924      5533.673       8470.3525      1.6358887      3083.3525    
       300   283.45945     -31976.377      6728.2615      515.47801      1.6358887      3083.3525    
       400   281.21223     -31986.664      3492.6275      1953.3771      1.6358887      3083.3525    
       500   304.4175      -31990.084     -4558.7173     -773.74293      1.6358887      3083.3525    
       600   331.99284     -31987.447      9652.3945     -3005.3169      1.6358887      3083.3525    
       700   316.90452     -31980.418     -4907.7676     -3603.9415      1.6358887      3083.3525    
       800   293.98166     -31976.105      1626.4307      2083.2694      1.6358887      3083.3525    
       900   304.86214     -31991.672     -4506.4419     -468.51064      1.6358887      3083.3525    
      1000   285.60707     -31985.193     -11747.575      5478.8666      1.6358887      3083.3525    
      1100   268.82318     -31992.875      4749.5342      43.558635      1.6358887      3083.3525    
      1200   283.96106     -32004.29       1458.1083     -23.617862      1.6358887      3083.3525    
      1300   299.98136     -31989.443     -3551.5827     -210.08373      1.6358887      3083.3525    
      1400   303.14092     -31979.379      11983.148      3387.6422      1.6358887      3083.3525    
      1500   309.81962     -31983.161     -4231.6131      1414.7325      1.6358887      3083.3525    
      1600   286.09555     -31964.049     -14994.944      1524.7799      1.6358887      3083.3525    
      1700   313.85911     -31991.661     -1485.399       2239.9244      1.6358887      3083.3525    
      1800   292.81581     -31987.211     -2024.3368      1649.6023      1.6358887      3083.3525    
      1900   299.80845     -31997.63       3238.3158     -445.81108      1.6358887      3083.3525    
      2000   299.85537     -31976.691      856.67426      2451.2303      1.6358887      3083.3525    
Loop time of 85.5022 on 8 procs for 2000 steps with 271 atoms

Performance: 1.011 ns/day, 23.751 hours/ns, 23.391 timesteps/s, 6.339 katom-step/s
98.7% CPU use with 8 MPI tasks x 1 OpenMP threads

MPI task timing breakdown:
Section |  min time  |  avg time  |  max time  |%varavg| %total
---------------------------------------------------------------
Pair    | 51.189     | 62.335     | 71.085     |  91.3 | 72.90
Bond    | 0.00077021 | 0.00084653 | 0.00090629 |   0.0 |  0.00
Neigh   | 3.9717     | 4.8643     | 5.5451     |  25.1 |  5.69
Comm    | 2.1521     | 10.918     | 22.079     | 218.1 | 12.77
Output  | 0.0010278  | 0.0011821  | 0.0020261  |   0.9 |  0.00
Modify  | 6.6802     | 7.3472     | 8.2254     |  20.4 |  8.59
Other   |            | 0.03585    |            |       |  0.04

Nlocal:         33.875 ave          39 max          27 min
Histogram: 1 0 0 0 2 1 1 2 0 1
Nghost:        3012.38 ave        3062 max        2960 min
Histogram: 2 0 0 1 1 0 2 0 0 2
Neighs:        20947.8 ave       23761 max       16977 min
Histogram: 1 0 0 1 1 0 2 2 0 1

Total # of neighbors = 167582
Ave neighs/atom = 618.38376
Ave special neighs/atom = 0
Neighbor list builds = 200
Dangerous builds not checked
System init for write_data ...
System init for write_restart ...
OMP_NUM_THREADS environment is not set. Defaulting to 1 thread. (src/comm.cpp:98)
  using 1 OpenMP thread(s) per MPI task
Reading restart file ...
  restart file = 2 Aug 2023, LAMMPS = 2 Aug 2023
  restoring atom style full from restart
  triclinic box = (-0.16850835 0.040044717 0.65076706) to (14.917208 13.391755 15.958833) with tilt (-7.8556212 0.0034935965 -0.84834476)
WARNING: Triclinic box skew is large. LAMMPS will run inefficiently. (src/domain.cpp:220)
  2 by 2 by 2 MPI processor grid
  pair style reaxff stores no restart info
  271 atoms
Finding 1-2 1-3 1-4 neighbors ...
  special bond factors lj:    0        0        0       
  special bond factors coul:  0        0        0       
     0 = max # of 1-2 neighbors
     0 = max # of 1-3 neighbors
     0 = max # of 1-4 neighbors
     1 = max # of special neighbors
  special bonds CPU = 0.000 seconds
  read_restart CPU = 0.003 seconds
*****Negative-change 1 starts.*****
Resetting global fix info from restart file:
  fix style: nvt, fix ID: 4
Changing box ...
WARNING: Triclinic box skew is large. LAMMPS will run inefficiently. (src/domain.cpp:220)
  triclinic box = (-0.16850835 0.040044717 0.65076706) to (14.766351 13.391755 15.958833) with tilt (-7.8556212 0.0034935965 -0.84834476)
WARNING: Triclinic box skew is large. LAMMPS will run inefficiently. (src/domain.cpp:220)
  triclinic box = (-0.16850835 0.040044717 0.65076706) to (14.766351 13.391755 15.958833) with tilt (-7.7770649 0.0034935965 -0.84834476)
WARNING: Triclinic box skew is large. LAMMPS will run inefficiently. (src/domain.cpp:220)
  triclinic box = (-0.16850835 0.040044717 0.65076706) to (14.766351 13.391755 15.958833) with tilt (-7.7770649 0.0034586605 -0.84834476)
All restart file global fix info was re-assigned
Neighbor list info ...
  update: every = 10 steps, delay = 0 steps, check = no
  max neighbors/atom: 2000, page size: 100000
  master list distance cutoff = 12
  ghost atom cutoff = 12
  binsize = 6, bins = 4 3 3
  2 neighbor lists, perpetual/occasional/extra = 2 0 0
  (1) pair reaxff, perpetual
      attributes: half, newton off, ghost
      pair build: half/bin/newtoff/ghost
      stencil: full/ghost/bin/3d
      bin: standard
  (2) fix qeq/reaxff, perpetual, copy from (1)
      attributes: half, newton off
      pair build: copy
      stencil: none
      bin: none
Setting up Verlet run ...
  Unit style    : real
  Current step  : 0
  Time step     : 0.5
Per MPI rank memory allocation (min/avg/max) = 116.4 | 118 | 119.9 Mbytes
   Step          Temp          PotEng         Press        f_avgp[1]        Volume    
         0   299.85537     -31956.238      59062.453      0              3052.519     
       100   315.53413     -31957.039      1758.9577      7096.4979      3052.519     
       200   324.28895     -31984.281      3933.1062      4806.1379      3052.519     
       300   275.47342     -31972.867      10574.759      1159.3632      3052.519     
       400   282.30317     -31972.077      5221.7544      3570.6804      3052.519     
       500   308.14393     -31972.457      1631.8748      1455.2261      3052.519     
       600   307.91168     -31971.01      -1882.6451      3845.2109      3052.519     
       700   291.46817     -31979.751     -3803.044       5338.4302      3052.519     
       800   290.51696     -31997.973     -7668.3843      12502.26       3052.519     
       900   294.44224     -31997.608     -17366.157      1882.2756      3052.519     
      1000   292.315       -31988.629      169.86539      2845.5384      3052.519     
      1100   309.01302     -31996.16       14315.884      2607.9458      3052.519     
      1200   303.37496     -31989.986      4384.7175      5184.072       3052.519     
      1300   297.00873     -31982.862     -4547.9096      7174.3403      3052.519     
      1400   304.19512     -31990.517     -53.307203      4937.0381      3052.519     
      1500   279.09463     -31978.468     -8553.5107     -157.74524      3052.519     
      1600   274.57248     -31984.939      6768.6549      2924.3538      3052.519     
      1700   300.39985     -32003.489     -8093.6247      4577.2267      3052.519     
      1800   305.58577     -31980.441     -4981.826       5414.2225      3052.519     
      1900   341.39207     -31998.143      8873.09        5018.6051      3052.519     
      2000   304.59209     -31979.106      652.34839      6056.4807      3052.519     
Loop time of 87.7045 on 8 procs for 2000 steps with 271 atoms

Performance: 0.985 ns/day, 24.362 hours/ns, 22.804 timesteps/s, 6.180 katom-step/s
98.9% CPU use with 8 MPI tasks x 1 OpenMP threads

MPI task timing breakdown:
Section |  min time  |  avg time  |  max time  |%varavg| %total
---------------------------------------------------------------
Pair    | 50.137     | 65.769     | 74.054     | 105.9 | 74.99
Bond    | 0.00074846 | 0.00087215 | 0.00096088 |   0.0 |  0.00
Neigh   | 3.9772     | 5.1178     | 5.7523     |  29.0 |  5.84
Comm    | 1.2256     | 9.5177     | 25.172     | 278.7 | 10.85
Output  | 0.0037517  | 0.0049905  | 0.0060321  |   1.3 |  0.01
Modify  | 6.6238     | 7.2559     | 8.3778     |  24.0 |  8.27
Other   |            | 0.03812    |            |       |  0.04

Nlocal:         33.875 ave          38 max          29 min
Histogram: 1 0 0 1 2 1 0 2 0 1
Nghost:        3022.25 ave        3066 max        2974 min
Histogram: 2 0 0 0 1 2 0 1 0 2
Neighs:        21178.6 ave       23434 max       18380 min
Histogram: 1 0 0 1 2 1 0 0 2 1

Total # of neighbors = 169429
Ave neighs/atom = 625.19926
Ave special neighs/atom = 0
Neighbor list builds = 200
Dangerous builds not checked
*****Equilibration neg1 starts.*****
WARNING: New thermo_style command, previous thermo_modify settings will be lost (src/output.cpp:903)
Neighbor list info ...
  update: every = 10 steps, delay = 0 steps, check = no
  max neighbors/atom: 2000, page size: 100000
  master list distance cutoff = 12
  ghost atom cutoff = 12
  binsize = 6, bins = 4 3 3
  2 neighbor lists, perpetual/occasional/extra = 2 0 0
  (1) pair reaxff, perpetual
      attributes: half, newton off, ghost
      pair build: half/bin/newtoff/ghost
      stencil: full/ghost/bin/3d
      bin: standard
  (2) fix qeq/reaxff, perpetual, copy from (1)
      attributes: half, newton off
      pair build: copy
      stencil: none
      bin: none
Setting up Verlet run ...
  Unit style    : real
  Current step  : 0
  Time step     : 0.5
Per MPI rank memory allocation (min/avg/max) = 116.4 | 118.1 | 119.8 Mbytes
   Step          Temp          PotEng         Press        f_avgp[1]        Volume    
         0   304.59209     -31979.106      652.30168      0              3052.519     
       100   296.40805     -31981.77      -1582.6858      2213.0409      3052.519     
       200   305.07368     -32011.778      10570.255      14437.725      3052.519     
       300   286.17988     -32012.555      5857.7584      1191.6155      3052.519     
       400   301.13175     -32002.379     -1510.8214      11141.776      3052.519     
       500   321.58356     -31987.317     -1901.1897     -389.69072      3052.519     
       600   321.2952      -31983.083     -12486.347      6.7540702      3052.519     
       700   313.35221     -31994.037     -11170.056      3038.1073      3052.519     
       800   292.39428     -31992.314     -4069.664       3532.1849      3052.519     
       900   304.3344      -32003.656     -5477.274      -681.35318      3052.519     
      1000   300.20089     -31977.916     -2086.3011      8503.746       3052.519     
      1100   308.37918     -31958.921      12448.736      8194.7003      3052.519     
      1200   315.85725     -31975.839     -66.48078       5686.1901      3052.519     
      1300   292.47515     -31982.21       1388.6313      2390.6115      3052.519     
      1400   283.25948     -31983.204      899.38615      8191.6863      3052.519     
      1500   308.92749     -32002.4       -2662.4535      2143.2153      3052.519     
      1600   302.28992     -31979.902      8726.2718      824.07616      3052.519     
      1700   307.23341     -31957.545     -7144.5905     -1010.9101      3052.519     
      1800   317.15731     -31974.76       8539.2137      5975.8274      3052.519     
      1900   298.09386     -31977.436      1932.833       5234.9194      3052.519     
      2000   310.40279     -31995.383     -5748.4915      3173.2789      3052.519     
Loop time of 89.7784 on 8 procs for 2000 steps with 271 atoms

Performance: 0.962 ns/day, 24.938 hours/ns, 22.277 timesteps/s, 6.037 katom-step/s
98.9% CPU use with 8 MPI tasks x 1 OpenMP threads

MPI task timing breakdown:
Section |  min time  |  avg time  |  max time  |%varavg| %total
---------------------------------------------------------------
Pair    | 60.344     | 71.259     | 76.086     |  55.0 | 79.37
Bond    | 0.00068721 | 0.00085255 | 0.00097434 |   0.0 |  0.00
Neigh   | 4.8143     | 5.5981     | 6.1172     |  15.9 |  6.24
Comm    | 0.71017    | 5.5387     | 16.465     | 197.6 |  6.17
Output  | 0.00093192 | 0.0010328  | 0.0015207  |   0.6 |  0.00
Modify  | 6.8085     | 7.3386     | 8.1184     |  14.0 |  8.17
Other   |            | 0.04206    |            |       |  0.05

Nlocal:         33.875 ave          39 max          25 min
Histogram: 1 0 0 0 0 3 0 1 1 2
Nghost:         3020.5 ave        3072 max        2957 min
Histogram: 2 0 0 0 2 0 0 2 0 2
Neighs:        21152.1 ave       23951 max       15917 min
Histogram: 1 0 0 0 0 3 0 1 0 3

Total # of neighbors = 169217
Ave neighs/atom = 624.41697
Ave special neighs/atom = 0
Neighbor list builds = 200
Dangerous builds not checked
OMP_NUM_THREADS environment is not set. Defaulting to 1 thread. (src/comm.cpp:98)
  using 1 OpenMP thread(s) per MPI task
Reading restart file ...
  restart file = 2 Aug 2023, LAMMPS = 2 Aug 2023
  restoring atom style full from restart
  triclinic box = (-0.16850835 0.040044717 0.65076706) to (14.917208 13.391755 15.958833) with tilt (-7.8556212 0.0034935965 -0.84834476)
WARNING: Triclinic box skew is large. LAMMPS will run inefficiently. (src/domain.cpp:220)
  2 by 2 by 2 MPI processor grid
  pair style reaxff stores no restart info
  271 atoms
Finding 1-2 1-3 1-4 neighbors ...
  special bond factors lj:    0        0        0       
  special bond factors coul:  0        0        0       
     0 = max # of 1-2 neighbors
     0 = max # of 1-3 neighbors
     0 = max # of 1-4 neighbors
     1 = max # of special neighbors
  special bonds CPU = 0.000 seconds
  read_restart CPU = 0.003 seconds
*****Positive-change 1 starts.*****
Resetting global fix info from restart file:
  fix style: nvt, fix ID: 4
Changing box ...
WARNING: Triclinic box skew is large. LAMMPS will run inefficiently. (src/domain.cpp:220)
  triclinic box = (-0.16850835 0.040044717 0.65076706) to (15.068066 13.391755 15.958833) with tilt (-7.8556212 0.0034935965 -0.84834476)
WARNING: Triclinic box skew is large. LAMMPS will run inefficiently. (src/domain.cpp:220)
  triclinic box = (-0.16850835 0.040044717 0.65076706) to (15.068066 13.391755 15.958833) with tilt (-7.9341774 0.0034935965 -0.84834476)
WARNING: Triclinic box skew is large. LAMMPS will run inefficiently. (src/domain.cpp:220)
  triclinic box = (-0.16850835 0.040044717 0.65076706) to (15.068066 13.391755 15.958833) with tilt (-7.9341774 0.0035285324 -0.84834476)
All restart file global fix info was re-assigned
Neighbor list info ...
  update: every = 10 steps, delay = 0 steps, check = no
  max neighbors/atom: 2000, page size: 100000
  master list distance cutoff = 12
  ghost atom cutoff = 12
  binsize = 6, bins = 4 3 3
  2 neighbor lists, perpetual/occasional/extra = 2 0 0
  (1) pair reaxff, perpetual
      attributes: half, newton off, ghost
      pair build: half/bin/newtoff/ghost
      stencil: full/ghost/bin/3d
      bin: standard
  (2) fix qeq/reaxff, perpetual, copy from (1)
      attributes: half, newton off
      pair build: copy
      stencil: none
      bin: none
Setting up Verlet run ...
  Unit style    : real
  Current step  : 0
  Time step     : 0.5
Per MPI rank memory allocation (min/avg/max) = 114.5 | 116.8 | 118.8 Mbytes
   Step          Temp          PotEng         Press        f_avgp[1]        Volume    
         0   299.85537     -31963.471     -43749.067      0              3114.186     
       100   317.80133     -31963.708      604.31926      169.87914      3114.186     
       200   336.0661      -31982.442     -6553.063      -1640.9804      3114.186     
       300   281.13584     -31975.347     -4954.9872     -8626.1844      3114.186     
       400   286.81274     -31982.031      894.966       -1427.3489      3114.186     
       500   324.47177     -31994.61      -5544.0305     -5646.8507      3114.186     
       600   299.92272     -31963.749     -102.37141     -2098.9628      3114.186     
       700   301.03864     -31973.247     -1452.8802      1818.0886      3114.186     
       800   282.90365     -31989.431      2072.3165      717.28641      3114.186     
       900   288.06914     -31995.408     -8565.612      -3034.6586      3114.186     
      1000   289.53747     -31982.571     -16423.086     -1490.4923      3114.186     
      1100   301.21679     -31979.644      916.85146     -4059.3082      3114.186     
      1200   296.86098     -31971.432     -658.4318      -3550.0997      3114.186     
      1300   282.97699     -31962.341     -14987.349     -1979.4682      3114.186     
      1400   298.42739     -31983.94       1458.3318     -1062.8064      3114.186     
      1500   284.16741     -31998.883     -8510.9869     -6308.6826      3114.186     
      1600   281.49316     -31991.774      125.98734     -10066.274      3114.186     
      1700   291.97804     -31976.929     -8187.3483     -2749.101       3114.186     
      1800   293.89981     -31971.394      3116.7791     -2822.1578      3114.186     
      1900   306.11032     -31977.281      3513.8464      1159.1618      3114.186     
      2000   297.42898     -31977.091     -12584.254     -5011.3737      3114.186     
Loop time of 87.3847 on 8 procs for 2000 steps with 271 atoms

Performance: 0.989 ns/day, 24.274 hours/ns, 22.887 timesteps/s, 6.202 katom-step/s
98.8% CPU use with 8 MPI tasks x 1 OpenMP threads

MPI task timing breakdown:
Section |  min time  |  avg time  |  max time  |%varavg| %total
---------------------------------------------------------------
Pair    | 47.666     | 66.628     | 74.056     |  99.2 | 76.25
Bond    | 0.00062107 | 0.00084728 | 0.00093136 |   0.0 |  0.00
Neigh   | 3.8847     | 5.2656     | 5.8994     |  26.9 |  6.03
Comm    | 0.65939    | 8.0824     | 27.042     | 284.7 |  9.25
Output  | 0.0038462  | 0.0049829  | 0.0059793  |   1.2 |  0.01
Modify  | 6.7121     | 7.3628     | 8.7522     |  23.1 |  8.43
Other   |            | 0.04018    |            |       |  0.05

Nlocal:         33.875 ave          41 max          28 min
Histogram: 1 0 1 2 1 1 1 0 0 1
Nghost:        2979.25 ave        3031 max        2918 min
Histogram: 1 1 0 0 1 2 1 0 0 2
Neighs:        20753.8 ave       24635 max       17396 min
Histogram: 1 1 0 1 2 1 0 1 0 1

Total # of neighbors = 166030
Ave neighs/atom = 612.65683
Ave special neighs/atom = 0
Neighbor list builds = 200
Dangerous builds not checked
*****Equilibration pos1 starts.*****
WARNING: New thermo_style command, previous thermo_modify settings will be lost (src/output.cpp:903)
Neighbor list info ...
  update: every = 10 steps, delay = 0 steps, check = no
  max neighbors/atom: 2000, page size: 100000
  master list distance cutoff = 12
  ghost atom cutoff = 12
  binsize = 6, bins = 4 3 3
  2 neighbor lists, perpetual/occasional/extra = 2 0 0
  (1) pair reaxff, perpetual
      attributes: half, newton off, ghost
      pair build: half/bin/newtoff/ghost
      stencil: full/ghost/bin/3d
      bin: standard
  (2) fix qeq/reaxff, perpetual, copy from (1)
      attributes: half, newton off
      pair build: copy
      stencil: none
      bin: none
Setting up Verlet run ...
  Unit style    : real
  Current step  : 0
  Time step     : 0.5
Per MPI rank memory allocation (min/avg/max) = 114.4 | 116.6 | 118.9 Mbytes
   Step          Temp          PotEng         Press        f_avgp[1]        Volume    
         0   297.42898     -31977.091     -12584.282      0              3114.186     
       100   293.17007     -31971.304      1998.4556     -8422.4097      3114.186     
       200   308.61836     -31960.85       15768.775      8250.8052      3114.186     
       300   332.69476     -31960.821      9786.5526     -2308.6947      3114.186     
       400   303.62735     -31957.33      -10188.557     -1274.4112      3114.186     
       500   319.04648     -31987.072     -2415.9905     -2634.3609      3114.186     
       600   303.08309     -31986.171     -20149.931     -5816.1665      3114.186     
       700   294.74321     -31988.904      601.34554     -1170.4612      3114.186     
       800   277.97534     -31969.051     -2792.6286     -906.99294      3114.186     
       900   300.81966     -31958.018     -8379.7196     -6505.6852      3114.186     
      1000   334.75515     -31980.533     -15761.25      -7283.3953      3114.186     
      1100   294.12199     -31970.485     -8326.8014     -4040.7792      3114.186     
      1200   293.75806     -31995.567     -11189.331     -2007.9844      3114.186     
      1300   305.53996     -31996.539     -4490.1084     -5616.1153      3114.186     
      1400   316.5104      -31987.796      2429.3753     -423.85297      3114.186     
      1500   307.12784     -31963.579      2248.5756     -4586.1392      3114.186     
      1600   314.31816     -31965.568     -1929.0487     -1387.494       3114.186     
      1700   290.86968     -31985.287     -1538.3091     -1430.5127      3114.186     
      1800   289.35604     -31987.01      -2740.2832     -9552.3903      3114.186     
      1900   305.26421     -31986.812     -6430.4409     -3583.0165      3114.186     
      2000   304.7338      -31972.678     -4267.2143      2392.17        3114.186     
Loop time of 87.8391 on 8 procs for 2000 steps with 271 atoms

Performance: 0.984 ns/day, 24.400 hours/ns, 22.769 timesteps/s, 6.170 katom-step/s
98.8% CPU use with 8 MPI tasks x 1 OpenMP threads

MPI task timing breakdown:
Section |  min time  |  avg time  |  max time  |%varavg| %total
---------------------------------------------------------------
Pair    | 48.254     | 67.992     | 74.489     |  94.4 | 77.40
Bond    | 0.00062465 | 0.00084989 | 0.0009651  |   0.0 |  0.00
Neigh   | 3.9162     | 5.3223     | 5.8771     |  24.4 |  6.06
Comm    | 0.66088    | 7.153      | 26.887     | 291.0 |  8.14
Output  | 0.00086427 | 0.00097759 | 0.0014885  |   0.0 |  0.00
Modify  | 6.7579     | 7.3297     | 8.7464     |  21.1 |  8.34
Other   |            | 0.04057    |            |       |  0.05

Nlocal:         33.875 ave          41 max          27 min
Histogram: 1 0 1 0 1 2 2 0 0 1
Nghost:        2981.75 ave        3033 max        2931 min
Histogram: 2 0 0 2 0 1 1 0 0 2
Neighs:        20750.4 ave       24749 max       16459 min
Histogram: 1 0 1 0 1 2 2 0 0 1

Total # of neighbors = 166003
Ave neighs/atom = 612.5572
Ave special neighs/atom = 0
Neighbor list builds = 200
Dangerous builds not checked
OMP_NUM_THREADS environment is not set. Defaulting to 1 thread. (src/comm.cpp:98)
  using 1 OpenMP thread(s) per MPI task
Reading restart file ...
  restart file = 2 Aug 2023, LAMMPS = 2 Aug 2023
  restoring atom style full from restart
  triclinic box = (-0.16850835 0.040044717 0.65076706) to (14.917208 13.391755 15.958833) with tilt (-7.8556212 0.0034935965 -0.84834476)
WARNING: Triclinic box skew is large. LAMMPS will run inefficiently. (src/domain.cpp:220)
  2 by 2 by 2 MPI processor grid
  pair style reaxff stores no restart info
  271 atoms
Finding 1-2 1-3 1-4 neighbors ...
  special bond factors lj:    0        0        0       
  special bond factors coul:  0        0        0       
     0 = max # of 1-2 neighbors
     0 = max # of 1-3 neighbors
     0 = max # of 1-4 neighbors
     1 = max # of special neighbors
  special bonds CPU = 0.000 seconds
  read_restart CPU = 0.003 seconds
*****Negative-change 2 starts.*****
Resetting global fix info from restart file:
  fix style: nvt, fix ID: 4
Changing box ...
WARNING: Triclinic box skew is large. LAMMPS will run inefficiently. (src/domain.cpp:220)
  triclinic box = (-0.16850835 0.040044717 0.65076706) to (14.917208 13.258238 15.958833) with tilt (-7.8556212 0.0034935965 -0.84834476)
WARNING: Triclinic box skew is large. LAMMPS will run inefficiently. (src/domain.cpp:220)
  triclinic box = (-0.16850835 0.040044717 0.65076706) to (14.917208 13.258238 15.958833) with tilt (-7.8556212 0.0034935965 -0.83986131)
All restart file global fix info was re-assigned
Neighbor list info ...
  update: every = 10 steps, delay = 0 steps, check = no
  max neighbors/atom: 2000, page size: 100000
  master list distance cutoff = 12
  ghost atom cutoff = 12
  binsize = 6, bins = 4 3 3
  2 neighbor lists, perpetual/occasional/extra = 2 0 0
  (1) pair reaxff, perpetual
      attributes: half, newton off, ghost
      pair build: half/bin/newtoff/ghost
      stencil: full/ghost/bin/3d
      bin: standard
  (2) fix qeq/reaxff, perpetual, copy from (1)
      attributes: half, newton off
      pair build: copy
      stencil: none
      bin: none
Setting up Verlet run ...
  Unit style    : real
  Current step  : 0
  Time step     : 0.5
Per MPI rank memory allocation (min/avg/max) = 116.8 | 118.1 | 119.7 Mbytes
   Step          Temp          PotEng         Press        f_avgp[1]        Volume    
         0   299.85537     -31968.022      52155.551      0              3052.519     
       100   303.65045     -31954.071      3488.9875      2794.1396      3052.519     
       200   319.07862     -31971.56       1282.1941      759.38323      3052.519     
       300   278.78496     -31976.279     -4833.9104     -1150.6342      3052.519     
       400   286.68355     -31982.896      4908.9351      1243.7454      3052.519     
       500   305.57111     -31981.08      -8141.7132     -1331.4533      3052.519     
       600   276.82385     -31948.874      5907.3389      2612.1491      3052.519     
       700   322.02535     -31973.718      2903.665       5215.6146      3052.519     
       800   324.40732     -31960.987     -6053.4369      7893.4816      3052.519     
       900   303.80266     -31960.868      11909.671      6535.316       3052.519     
      1000   280.89627     -31969.094      4385.4782      3239.3993      3052.519     
      1100   316.62484     -31999.683      647.55685     -2777.2533      3052.519     
      1200   298.63275     -31988.384      2470.5054      6464.2659      3052.519     
      1300   301.38379     -31991.955      15112.15       6755.6513      3052.519     
      1400   290.81138     -31976.215      603.15981     -889.05374      3052.519     
      1500   333.1278      -31988.882      6473.7776      3058.1051      3052.519     
      1600   297.18555     -31968.006     -3497.787       4113.3679      3052.519     
      1700   295.94056     -31987.514      16080.842      3637.7101      3052.519     
      1800   270.09493     -31971.6        7649.7745      1624.1614      3052.519     
      1900   293.2359      -31982.406      7614.43        2303.0787      3052.519     
      2000   293.77093     -31976.922     -136.6664       2573.6581      3052.519     
Loop time of 89.5881 on 8 procs for 2000 steps with 271 atoms

Performance: 0.964 ns/day, 24.886 hours/ns, 22.324 timesteps/s, 6.050 katom-step/s
98.8% CPU use with 8 MPI tasks x 1 OpenMP threads

MPI task timing breakdown:
Section |  min time  |  avg time  |  max time  |%varavg| %total
---------------------------------------------------------------
Pair    | 48.977     | 69.84      | 76.085     |  98.3 | 77.96
Bond    | 0.00066617 | 0.00083236 | 0.00092805 |   0.0 |  0.00
Neigh   | 3.9515     | 5.4262     | 5.9962     |  25.2 |  6.06
Comm    | 0.68935    | 6.9354     | 27.799     | 311.9 |  7.74
Output  | 0.0038404  | 0.0048648  | 0.0057814  |   1.0 |  0.01
Modify  | 6.7566     | 7.3385     | 8.8211     |  21.8 |  8.19
Other   |            | 0.04268    |            |       |  0.05

Nlocal:         33.875 ave          39 max          28 min
Histogram: 1 0 0 1 3 0 0 1 1 1
Nghost:        3042.62 ave        3096 max        2984 min
Histogram: 1 1 0 0 1 2 1 0 0 2
Neighs:        21170.1 ave       23997 max       17742 min
Histogram: 1 0 0 1 3 0 0 1 1 1

Total # of neighbors = 169361
Ave neighs/atom = 624.94834
Ave special neighs/atom = 0
Neighbor list builds = 200
Dangerous builds not checked
*****Equilibration neg2 starts.*****
WARNING: New thermo_style command, previous thermo_modify settings will be lost (src/output.cpp:903)
Neighbor list info ...
  update: every = 10 steps, delay = 0 steps, check = no
  max neighbors/atom: 2000, page size: 100000
  master list distance cutoff = 12
  ghost atom cutoff = 12
  binsize = 6, bins = 4 3 3
  2 neighbor lists, perpetual/occasional/extra = 2 0 0
  (1) pair reaxff, perpetual
      attributes: half, newton off, ghost
      pair build: half/bin/newtoff/ghost
      stencil: full/ghost/bin/3d
      bin: standard
  (2) fix qeq/reaxff, perpetual, copy from (1)
      attributes: half, newton off
      pair build: copy
      stencil: none
      bin: none
Setting up Verlet run ...
  Unit style    : real
  Current step  : 0
  Time step     : 0.5
Per MPI rank memory allocation (min/avg/max) = 116.7 | 118.1 | 119.7 Mbytes
   Step          Temp          PotEng         Press        f_avgp[1]        Volume    
         0   293.77093     -31976.922     -136.67022      0              3052.519     
       100   307.50789     -31988.599     -5353.7234     -2440.7501      3052.519     
       200   300.99481     -31996.68       7369.8016      2917.1817      3052.519     
       300   286.59873     -32005.155     -756.74787      953.8834       3052.519     
       400   290.90177     -31995.685      13857.884      9707.8766      3052.519     
       500   299.61788     -31978.052     -7523.4845      993.65968      3052.519     
       600   288.31841     -31966.371     -8585.3096      5589.8922      3052.519     
       700   290.94527     -31968.49       2524.0755     -2432.5796      3052.519     
       800   290.03638     -31983.788      5169.81        3681.7968      3052.519     
       900   278.26219     -31997.12       241.54452      5818.2122      3052.519     
      1000   284.46235     -31994.622      9310.1885      6299.4217      3052.519     
      1100   320.06422     -31998.384      11400.771      532.99783      3052.519     
      1200   315.3984      -31987.705      18602.598     -219.07037      3052.519     
      1300   303.75296     -31978.252      11782.87       4923.2933      3052.519     
      1400   278.90121     -31969.5       -3377.2134     -506.82179      3052.519     
      1500   287.87852     -31984.968      5624.9998      58.305359      3052.519     
      1600   295.99368     -31993.738      7059.3783      3554.5722      3052.519     
      1700   272.42244     -31973.705      4179.2506      3608.5776      3052.519     
      1800   320.51492     -31992.494      3567.2625     -264.59166      3052.519     
      1900   309.29345     -31974.147     -3203.1713      10451.654      3052.519     
      2000   301.92404     -31983.353      5167.6181      6642.7788      3052.519     
Loop time of 89.993 on 8 procs for 2000 steps with 271 atoms

Performance: 0.960 ns/day, 24.998 hours/ns, 22.224 timesteps/s, 6.023 katom-step/s
98.8% CPU use with 8 MPI tasks x 1 OpenMP threads

MPI task timing breakdown:
Section |  min time  |  avg time  |  max time  |%varavg| %total
---------------------------------------------------------------
Pair    | 49.1       | 69.968     | 76.558     |  98.0 | 77.75
Bond    | 0.00061769 | 0.0008134  | 0.00094317 |   0.0 |  0.00
Neigh   | 3.9636     | 5.4394     | 6.013      |  25.1 |  6.04
Comm    | 0.61047    | 7.2062     | 28.083     | 305.4 |  8.01
Output  | 0.0009568  | 0.0011137  | 0.0019335  |   0.9 |  0.00
Modify  | 6.7564     | 7.3368     | 8.8113     |  21.6 |  8.15
Other   |            | 0.04105    |            |       |  0.05

Nlocal:         33.875 ave          38 max          29 min
Histogram: 1 0 1 0 2 1 0 1 1 1
Nghost:           3035 ave        3068 max        2999 min
Histogram: 2 0 0 0 2 0 1 1 0 2
Neighs:          21172 ave       23771 max       18359 min
Histogram: 1 1 0 0 2 1 0 1 1 1

Total # of neighbors = 169376
Ave neighs/atom = 625.00369
Ave special neighs/atom = 0
Neighbor list builds = 200
Dangerous builds not checked
OMP_NUM_THREADS environment is not set. Defaulting to 1 thread. (src/comm.cpp:98)
  using 1 OpenMP thread(s) per MPI task
Reading restart file ...
  restart file = 2 Aug 2023, LAMMPS = 2 Aug 2023
  restoring atom style full from restart
  triclinic box = (-0.16850835 0.040044717 0.65076706) to (14.917208 13.391755 15.958833) with tilt (-7.8556212 0.0034935965 -0.84834476)
WARNING: Triclinic box skew is large. LAMMPS will run inefficiently. (src/domain.cpp:220)
  2 by 2 by 2 MPI processor grid
  pair style reaxff stores no restart info
  271 atoms
Finding 1-2 1-3 1-4 neighbors ...
  special bond factors lj:    0        0        0       
  special bond factors coul:  0        0        0       
     0 = max # of 1-2 neighbors
     0 = max # of 1-3 neighbors
     0 = max # of 1-4 neighbors
     1 = max # of special neighbors
  special bonds CPU = 0.000 seconds
  read_restart CPU = 0.004 seconds
*****Positive-change 2 starts.*****
Resetting global fix info from restart file:
  fix style: nvt, fix ID: 4
Changing box ...
WARNING: Triclinic box skew is large. LAMMPS will run inefficiently. (src/domain.cpp:220)
  triclinic box = (-0.16850835 0.040044717 0.65076706) to (14.917208 13.525272 15.958833) with tilt (-7.8556212 0.0034935965 -0.84834476)
WARNING: Triclinic box skew is large. LAMMPS will run inefficiently. (src/domain.cpp:220)
  triclinic box = (-0.16850835 0.040044717 0.65076706) to (14.917208 13.525272 15.958833) with tilt (-7.8556212 0.0034935965 -0.85682821)
All restart file global fix info was re-assigned
Neighbor list info ...
  update: every = 10 steps, delay = 0 steps, check = no
  max neighbors/atom: 2000, page size: 100000
  master list distance cutoff = 12
  ghost atom cutoff = 12
  binsize = 6, bins = 4 3 3
  2 neighbor lists, perpetual/occasional/extra = 2 0 0
  (1) pair reaxff, perpetual
      attributes: half, newton off, ghost
      pair build: half/bin/newtoff/ghost
      stencil: full/ghost/bin/3d
      bin: standard
  (2) fix qeq/reaxff, perpetual, copy from (1)
      attributes: half, newton off
      pair build: copy
      stencil: none
      bin: none
Setting up Verlet run ...
  Unit style    : real
  Current step  : 0
  Time step     : 0.5
Per MPI rank memory allocation (min/avg/max) = 112.8 | 115.5 | 118.3 Mbytes
   Step          Temp          PotEng         Press        f_avgp[1]        Volume    
         0   299.85537     -31958.805     -42999.079      0              3114.186     
       100   302.40369     -31948.226      9944.7747      4094.6356      3114.186     
       200   320.34563     -31972.742     -9120.3491     -903.47126      3114.186     
       300   284.59933     -31979.691     -5293.7046     -6693.1778      3114.186     
       400   292.29214     -31986.097      9964.332       1658.7266      3114.186     
       500   317.04795     -31988.507     -12121.661     -4699.1513      3114.186     
       600   290.46306     -31954.759     -2303.4478     -852.58105      3114.186     
       700   301.57072     -31958.148     -5967.8349     -366.61369      3114.186     
       800   276.9595      -31955.485      6779.6971      3303.3559      3114.186     
       900   285.96745     -31982.976      11403.45       4092.5944      3114.186     
      1000   277.45648     -31982.72      -6147.8666     -4511.69        3114.186     
      1100   297.97889     -31979.496      2910.4265      4565.301       3114.186     
      1200   318.11457     -31973.204     -635.92567      1131.1269      3114.186     
      1300   302.0299      -31961.48      -505.14143     -3325.9397      3114.186     
      1400   289.37347     -31965.055      4949.1563      5537.3568      3114.186     
      1500   300.9756      -31978.255     -6041.7724     -6990.0115      3114.186     
      1600   291.77995     -31971.194     -7751.3408      621.76901      3114.186     
      1700   291.96112     -31948.484     -1882.8881     -2559.0642      3114.186     
      1800   333.79096     -31961.249     -2627.2378      2772.6335      3114.186     
      1900   315.97379     -31970.755     -4539.3346     -2431.1098      3114.186     
      2000   297.88469     -31974.202     -11542.964     -6071.9091      3114.186     
Loop time of 87.1377 on 8 procs for 2000 steps with 271 atoms

Performance: 0.992 ns/day, 24.205 hours/ns, 22.952 timesteps/s, 6.220 katom-step/s
98.8% CPU use with 8 MPI tasks x 1 OpenMP threads

MPI task timing breakdown:
Section |  min time  |  avg time  |  max time  |%varavg| %total
---------------------------------------------------------------
Pair    | 47.507     | 67.403     | 74.002     |  95.7 | 77.35
Bond    | 0.00061491 | 0.00081645 | 0.00091905 |   0.0 |  0.00
Neigh   | 3.8595     | 5.2718     | 5.8463     |  24.6 |  6.05
Comm    | 0.59837    | 7.2023     | 27.109     | 292.9 |  8.27
Output  | 0.004071   | 0.0050843  | 0.0059894  |   1.0 |  0.01
Modify  | 6.6328     | 7.2145     | 8.6238     |  21.0 |  8.28
Other   |            | 0.04005    |            |       |  0.05

Nlocal:         33.875 ave          38 max          24 min
Histogram: 1 0 0 0 0 0 1 3 2 1
Nghost:        2968.62 ave        3011 max        2920 min
Histogram: 2 0 0 0 0 2 2 0 0 2
Neighs:        20731.5 ave       23262 max       14987 min
Histogram: 1 0 0 0 0 0 1 3 2 1

Total # of neighbors = 165852
Ave neighs/atom = 612
Ave special neighs/atom = 0
Neighbor list builds = 200
Dangerous builds not checked
*****Equilibration pos2 starts.*****
WARNING: New thermo_style command, previous thermo_modify settings will be lost (src/output.cpp:903)
Neighbor list info ...
  update: every = 10 steps, delay = 0 steps, check = no
  max neighbors/atom: 2000, page size: 100000
  master list distance cutoff = 12
  ghost atom cutoff = 12
  binsize = 6, bins = 4 3 3
  2 neighbor lists, perpetual/occasional/extra = 2 0 0
  (1) pair reaxff, perpetual
      attributes: half, newton off, ghost
      pair build: half/bin/newtoff/ghost
      stencil: full/ghost/bin/3d
      bin: standard
  (2) fix qeq/reaxff, perpetual, copy from (1)
      attributes: half, newton off
      pair build: copy
      stencil: none
      bin: none
Setting up Verlet run ...
  Unit style    : real
  Current step  : 0
  Time step     : 0.5
Per MPI rank memory allocation (min/avg/max) = 112.8 | 115.5 | 118.3 Mbytes
   Step          Temp          PotEng         Press        f_avgp[1]        Volume    
         0   297.88469     -31974.202     -11542.913      0              3114.186     
       100   310.80926     -31985.081      15260.159      388.61251      3114.186     
       200   306.90686     -32002.628     -12765.054      4329.1245      3114.186     
       300   282.30985     -32004.565     -796.30029      2090.0357      3114.186     
       400   292.63296     -32003.266     -5338.3576     -4859.9834      3114.186     
       500   301.12593     -31991.578      4552.2801      58.060668      3114.186     
       600   305.12644     -31987.937     -1935.2783     -1635.7499      3114.186     
       700   303.82789     -31981.994      3062.2592     -1786.2908      3114.186     
       800   316.7486      -31980.65      -3392.7456      680.43808      3114.186     
       900   319.87916     -31964.939     -9689.6875     -3077.9148      3114.186     
      1000   307.00096     -31971.457     -10901.375     -4690.5796      3114.186     
      1100   294.78719     -31986.947      6792.0844     -3489.8178      3114.186     
      1200   295.83687     -31990.284     -16903.174     -3979.0094      3114.186     
      1300   298.47519     -31985.457      2290.3769      7326.9049      3114.186     
      1400   318.01024     -31974.012      1255.9207     -2255.7363      3114.186     
      1500   319.14213     -31957.882     -2372.4503      4176.6499      3114.186     
      1600   303.40506     -31954.768      405.85295     -466.46335      3114.186     
      1700   304.47242     -31975.169     -12210.848     -4757.5954      3114.186     
      1800   314.32479     -31997.289     -1238.6984      874.29877      3114.186     
      1900   303.19932     -31999.17       9411.2066      6672.4175      3114.186     
      2000   288.29704     -31985.171     -3949.3159     -1021.4694      3114.186     
Loop time of 87.4281 on 8 procs for 2000 steps with 271 atoms

Performance: 0.988 ns/day, 24.286 hours/ns, 22.876 timesteps/s, 6.199 katom-step/s
98.9% CPU use with 8 MPI tasks x 1 OpenMP threads

MPI task timing breakdown:
Section |  min time  |  avg time  |  max time  |%varavg| %total
---------------------------------------------------------------
Pair    | 48.103     | 67.974     | 74.259     |  94.7 | 77.75
Bond    | 0.00061348 | 0.00081564 | 0.00092959 |   0.0 |  0.00
Neigh   | 3.8861     | 5.2958     | 5.8823     |  24.5 |  6.06
Comm    | 0.63652    | 6.9262     | 26.81      | 296.8 |  7.92
Output  | 0.0008797  | 0.0009827  | 0.0014994  |   0.0 |  0.00
Modify  | 6.5955     | 7.1908     | 8.5949     |  21.0 |  8.22
Other   |            | 0.04012    |            |       |  0.05

Nlocal:         33.875 ave          39 max          26 min
Histogram: 1 0 0 0 0 2 3 1 0 1
Nghost:        2979.75 ave        3034 max        2914 min
Histogram: 1 1 0 0 1 1 0 3 0 1
Neighs:        20743.6 ave       23473 max       16204 min
Histogram: 1 0 0 0 0 2 2 1 1 1

Total # of neighbors = 165949
Ave neighs/atom = 612.35793
Ave special neighs/atom = 0
Neighbor list builds = 200
Dangerous builds not checked
OMP_NUM_THREADS environment is not set. Defaulting to 1 thread. (src/comm.cpp:98)
  using 1 OpenMP thread(s) per MPI task
Reading restart file ...
  restart file = 2 Aug 2023, LAMMPS = 2 Aug 2023
  restoring atom style full from restart
  triclinic box = (-0.16850835 0.040044717 0.65076706) to (14.917208 13.391755 15.958833) with tilt (-7.8556212 0.0034935965 -0.84834476)
WARNING: Triclinic box skew is large. LAMMPS will run inefficiently. (src/domain.cpp:220)
  2 by 2 by 2 MPI processor grid
  pair style reaxff stores no restart info
  271 atoms
Finding 1-2 1-3 1-4 neighbors ...
  special bond factors lj:    0        0        0       
  special bond factors coul:  0        0        0       
     0 = max # of 1-2 neighbors
     0 = max # of 1-3 neighbors
     0 = max # of 1-4 neighbors
     1 = max # of special neighbors
  special bonds CPU = 0.000 seconds
  read_restart CPU = 0.003 seconds
*****Negative-change 3 starts.*****
Resetting global fix info from restart file:
  fix style: nvt, fix ID: 4
Changing box ...
WARNING: Triclinic box skew is large. LAMMPS will run inefficiently. (src/domain.cpp:220)
  triclinic box = (-0.16850835 0.040044717 0.65076706) to (14.917208 13.391755 15.805752) with tilt (-7.8556212 0.0034935965 -0.84834476)
All restart file global fix info was re-assigned
Neighbor list info ...
  update: every = 10 steps, delay = 0 steps, check = no
  max neighbors/atom: 2000, page size: 100000
  master list distance cutoff = 12
  ghost atom cutoff = 12
  binsize = 6, bins = 4 3 3
  2 neighbor lists, perpetual/occasional/extra = 2 0 0
  (1) pair reaxff, perpetual
      attributes: half, newton off, ghost
      pair build: half/bin/newtoff/ghost
      stencil: full/ghost/bin/3d
      bin: standard
  (2) fix qeq/reaxff, perpetual, copy from (1)
      attributes: half, newton off
      pair build: copy
      stencil: none
      bin: none
Setting up Verlet run ...
  Unit style    : real
  Current step  : 0
  Time step     : 0.5
Per MPI rank memory allocation (min/avg/max) = 116.4 | 118.4 | 120.4 Mbytes
   Step          Temp          PotEng         Press        f_avgp[1]        Volume    
         0   299.85537     -31962.189      55221.373      0              3052.519     
       100   320.84561     -31964.683      2502.2048      1852.5103      3052.519     
       200   326.01141     -31979.036     -12394.359      2546.8459      3052.519     
       300   281.18845     -31977.239     -5745.6979      264.69848      3052.519     
       400   292.53199     -31984.727      14512.806      1368.1231      3052.519     
       500   311.55838     -31984.909     -7422.4957      2699.7659      3052.519     
       600   279.28035     -31947.708     -2254.5082      3207.771       3052.519     
       700   289.93343     -31948.89      -2671.0269      5561.9371      3052.519     
       800   304.01584     -31970.271      8907.6802      4020.0647      3052.519     
       900   288.0197      -31988.315     -16121.234     -2731.641       3052.519     
      1000   287.94317     -31990.469      14463.194      756.81174      3052.519     
      1100   279.47588     -31966.789      3466.4172      4745.0122      3052.519     
      1200   294.16454     -31959.967      13114.866      1208.0197      3052.519     
      1300   320.88711     -31980.512      1369.5974      3969.4014      3052.519     
      1400   302.08143     -31975.742      1092.7608      5094.5437      3052.519     
      1500   318.20007     -31990.737      1464.9797      1088.7765      3052.519     
      1600   304.25677     -31989.725      583.2913       2894.7711      3052.519     
      1700   274.0144      -31970.228     -669.29716      1358.8917      3052.519     
      1800   295.21589     -31987.139      1995.2214      9316.8869      3052.519     
      1900   300.58799     -31980.783      13697.702     -1507.4007      3052.519     
      2000   320.14418     -31980.556      471.81628      5286.0292      3052.519     
Loop time of 89.7316 on 8 procs for 2000 steps with 271 atoms

Performance: 0.963 ns/day, 24.925 hours/ns, 22.289 timesteps/s, 6.040 katom-step/s
98.7% CPU use with 8 MPI tasks x 1 OpenMP threads

MPI task timing breakdown:
Section |  min time  |  avg time  |  max time  |%varavg| %total
---------------------------------------------------------------
Pair    | 49.017     | 69.722     | 76.274     |  97.6 | 77.70
Bond    | 0.00062445 | 0.00084723 | 0.0010213  |   0.0 |  0.00
Neigh   | 3.9641     | 5.4113     | 5.9542     |  24.5 |  6.03
Comm    | 0.63968    | 7.1972     | 27.913     | 303.8 |  8.02
Output  | 0.0039087  | 0.0048435  | 0.0057037  |   1.0 |  0.01
Modify  | 6.8019     | 7.3544     | 8.799      |  21.0 |  8.20
Other   |            | 0.04128    |            |       |  0.05

Nlocal:         33.875 ave          44 max          28 min
Histogram: 1 1 2 0 3 0 0 0 0 1
Nghost:        3043.88 ave        3108 max        2979 min
Histogram: 1 0 1 0 2 1 1 1 0 1
Neighs:          21191 ave       27057 max       17801 min
Histogram: 2 0 2 0 3 0 0 0 0 1

Total # of neighbors = 169528
Ave neighs/atom = 625.56458
Ave special neighs/atom = 0
Neighbor list builds = 200
Dangerous builds not checked
*****Equilibration neg3 starts.*****
WARNING: New thermo_style command, previous thermo_modify settings will be lost (src/output.cpp:903)
Neighbor list info ...
  update: every = 10 steps, delay = 0 steps, check = no
  max neighbors/atom: 2000, page size: 100000
  master list distance cutoff = 12
  ghost atom cutoff = 12
  binsize = 6, bins = 4 3 3
  2 neighbor lists, perpetual/occasional/extra = 2 0 0
  (1) pair reaxff, perpetual
      attributes: half, newton off, ghost
      pair build: half/bin/newtoff/ghost
      stencil: full/ghost/bin/3d
      bin: standard
  (2) fix qeq/reaxff, perpetual, copy from (1)
      attributes: half, newton off
      pair build: copy
      stencil: none
      bin: none
Setting up Verlet run ...
  Unit style    : real
  Current step  : 0
  Time step     : 0.5
Per MPI rank memory allocation (min/avg/max) = 116.4 | 118.4 | 120.5 Mbytes
   Step          Temp          PotEng         Press        f_avgp[1]        Volume    
         0   320.14418     -31980.556      471.84601      0              3052.519     
       100   310.11371     -31984.378      8903.5151      6922.9401      3052.519     
       200   280.95766     -31984.261      10173.059      9089.707       3052.519     
       300   282.54408     -31998.713      9154.4729     -986.59194      3052.519     
       400   305.89674     -32001.961      12171.106      2246.6395      3052.519     
       500   318.0687      -31979.988      10969.693      5326.184       3052.519     
       600   294.38839     -31968.59       3328.672      -328.05688      3052.519     
       700   275.46431     -31969.948      6026.8913      7179.4547      3052.519     
       800   297.90833     -31995.24       9425.0074      907.40985      3052.519     
       900   286.23812     -31991.249     -2130.2969     -1195.0759      3052.519     
      1000   283.281       -31991.267      13041.136      3001.0372      3052.519     
      1100   305.41572     -31993.788      10896.317      4021.8744      3052.519     
      1200   303.95487     -31969.537      11157.637      7986.3708      3052.519     
      1300   315.56731     -31973.988      386.00785      4929.3002      3052.519     
      1400   337.49609     -32007.26      -932.58835      7900.171       3052.519     
      1500   274.49743     -31977.038      3677.9269      1698.8346      3052.519     
      1600   297.16093     -31992.638     -4940.6819      712.32879      3052.519     
      1700   324.50709     -32000.153     -743.27893      1739.9501      3052.519     
      1800   308.67516     -31976.858      2165.7304      1528.8727      3052.519     
      1900   313.53459     -31975.962      11467.496      2255.6797      3052.519     
      2000   315.55113     -31980.115      4140.6441      1331.2266      3052.519     
Loop time of 89.5021 on 8 procs for 2000 steps with 271 atoms

Performance: 0.965 ns/day, 24.862 hours/ns, 22.346 timesteps/s, 6.056 katom-step/s
98.8% CPU use with 8 MPI tasks x 1 OpenMP threads

MPI task timing breakdown:
Section |  min time  |  avg time  |  max time  |%varavg| %total
---------------------------------------------------------------
Pair    | 68.611     | 72.197     | 76.04      |  29.4 | 80.66
Bond    | 0.00067856 | 0.00083717 | 0.0009676  |   0.0 |  0.00
Neigh   | 5.3879     | 5.6311     | 6.0354     |   9.4 |  6.29
Comm    | 0.62971    | 4.4725     | 8.0768     | 118.5 |  5.00
Output  | 0.00089628 | 0.0011226  | 0.0023468  |   1.4 |  0.00
Modify  | 6.7383     | 7.1582     | 7.3895     |   8.6 |  8.00
Other   |            | 0.04163    |            |       |  0.05

Nlocal:         33.875 ave          38 max          24 min
Histogram: 1 0 0 0 0 1 1 2 0 3
Nghost:        2994.62 ave        3056 max        2932 min
Histogram: 1 1 0 1 0 2 1 0 1 1
Neighs:        21166.9 ave       23362 max       15267 min
Histogram: 1 0 0 0 0 1 1 0 2 3

Total # of neighbors = 169335
Ave neighs/atom = 624.8524
Ave special neighs/atom = 0
Neighbor list builds = 200
Dangerous builds not checked
OMP_NUM_THREADS environment is not set. Defaulting to 1 thread. (src/comm.cpp:98)
  using 1 OpenMP thread(s) per MPI task
Reading restart file ...
  restart file = 2 Aug 2023, LAMMPS = 2 Aug 2023
  restoring atom style full from restart
  triclinic box = (-0.16850835 0.040044717 0.65076706) to (14.917208 13.391755 15.958833) with tilt (-7.8556212 0.0034935965 -0.84834476)
WARNING: Triclinic box skew is large. LAMMPS will run inefficiently. (src/domain.cpp:220)
  2 by 2 by 2 MPI processor grid
  pair style reaxff stores no restart info
  271 atoms
Finding 1-2 1-3 1-4 neighbors ...
  special bond factors lj:    0        0        0       
  special bond factors coul:  0        0        0       
     0 = max # of 1-2 neighbors
     0 = max # of 1-3 neighbors
     0 = max # of 1-4 neighbors
     1 = max # of special neighbors
  special bonds CPU = 0.001 seconds
  read_restart CPU = 0.004 seconds
*****Positive-change 3 starts.*****
Resetting global fix info from restart file:
  fix style: nvt, fix ID: 4
Changing box ...
WARNING: Triclinic box skew is large. LAMMPS will run inefficiently. (src/domain.cpp:220)
  triclinic box = (-0.16850835 0.040044717 0.65076706) to (14.917208 13.391755 16.111914) with tilt (-7.8556212 0.0034935965 -0.84834476)
All restart file global fix info was re-assigned
Neighbor list info ...
  update: every = 10 steps, delay = 0 steps, check = no
  max neighbors/atom: 2000, page size: 100000
  master list distance cutoff = 12
  ghost atom cutoff = 12
  binsize = 6, bins = 4 3 3
  2 neighbor lists, perpetual/occasional/extra = 2 0 0
  (1) pair reaxff, perpetual
      attributes: half, newton off, ghost
      pair build: half/bin/newtoff/ghost
      stencil: full/ghost/bin/3d
      bin: standard
  (2) fix qeq/reaxff, perpetual, copy from (1)
      attributes: half, newton off
      pair build: copy
      stencil: none
      bin: none
Setting up Verlet run ...
  Unit style    : real
  Current step  : 0
  Time step     : 0.5
Per MPI rank memory allocation (min/avg/max) = 114.2 | 116.5 | 118.5 Mbytes
   Step          Temp          PotEng         Press        f_avgp[1]        Volume    
         0   299.85537     -31961.218     -43807.826      0              3114.186     
       100   306.4834      -31953.049      6842.3529      4174.88        3114.186     
       200   329.79166     -31978.955     -6461.272      -449.58416      3114.186     
       300   283.27856     -31978.897     -5916.4818     -5651.3165      3114.186     
       400   291.05004     -31986.645      8907.4938      476.17534      3114.186     
       500   321.63347     -31992.762     -7389.6621     -4696.2685      3114.186     
       600   306.28844     -31969.595     -10787.596     -1869.414       3114.186     
       700   313.79498     -31969.359     -15129.583      2702.316       3114.186     
       800   294.85272     -31981.758     -8249.7486      4669.9843      3114.186     
       900   272.18011     -31983.845     -10565.433     -4160.4483      3114.186     
      1000   287.9715      -31991.645      1964.4003     -4299.167       3114.186     
      1100   324.30773     -31998.349     -9164.2094      1557.4861      3114.186     
      1200   313.66825     -31977.996     -4684.5409      6515.1614      3114.186     
      1300   318.03481     -31981.492     -3381.7235      3152.733       3114.186     
      1400   282.17011     -31959.003     -21776.012      916.50721      3114.186     
      1500   299.75754     -31973.561     -20589.677     -1768.7819      3114.186     
      1600   314.71089     -31987.748     -3034.9028     -124.57449      3114.186     
      1700   282.8971      -31967.991      2435.2619      2364.2638      3114.186     
      1800   294.59971     -31981.814     -1014.3874      2023.4416      3114.186     
      1900   309.59608     -31995.949     -5889.8575      1332.9205      3114.186     
      2000   296.41355     -31990.459     -339.96851      515.93959      3114.186     
Loop time of 87.712 on 8 procs for 2000 steps with 271 atoms

Performance: 0.985 ns/day, 24.364 hours/ns, 22.802 timesteps/s, 6.179 katom-step/s
98.8% CPU use with 8 MPI tasks x 1 OpenMP threads

MPI task timing breakdown:
Section |  min time  |  avg time  |  max time  |%varavg| %total
---------------------------------------------------------------
Pair    | 67.326     | 70.239     | 74.443     |  27.5 | 80.08
Bond    | 0.00062194 | 0.00085522 | 0.00099325 |   0.0 |  0.00
Neigh   | 5.2883     | 5.4979     | 5.8989     |   9.1 |  6.27
Comm    | 0.61963    | 4.8278     | 7.7426     | 105.2 |  5.50
Output  | 0.0043263  | 0.005283   | 0.006191   |   1.0 |  0.01
Modify  | 6.6922     | 7.1014     | 7.2994     |   8.2 |  8.10
Other   |            | 0.03977    |            |       |  0.05

Nlocal:         33.875 ave          40 max          27 min
Histogram: 1 0 0 2 1 1 1 0 1 1
Nghost:        2994.25 ave        3045 max        2940 min
Histogram: 1 1 0 0 2 0 2 1 0 1
Neighs:        20759.8 ave       24128 max       16790 min
Histogram: 1 0 1 1 1 1 0 1 1 1

Total # of neighbors = 166078
Ave neighs/atom = 612.83395
Ave special neighs/atom = 0
Neighbor list builds = 200
Dangerous builds not checked
*****Equilibration pos3 starts.*****
WARNING: New thermo_style command, previous thermo_modify settings will be lost (src/output.cpp:903)
Neighbor list info ...
  update: every = 10 steps, delay = 0 steps, check = no
  max neighbors/atom: 2000, page size: 100000
  master list distance cutoff = 12
  ghost atom cutoff = 12
  binsize = 6, bins = 4 3 3
  2 neighbor lists, perpetual/occasional/extra = 2 0 0
  (1) pair reaxff, perpetual
      attributes: half, newton off, ghost
      pair build: half/bin/newtoff/ghost
      stencil: full/ghost/bin/3d
      bin: standard
  (2) fix qeq/reaxff, perpetual, copy from (1)
      attributes: half, newton off
      pair build: copy
      stencil: none
      bin: none
Setting up Verlet run ...
  Unit style    : real
  Current step  : 0
  Time step     : 0.5
Per MPI rank memory allocation (min/avg/max) = 114.2 | 116.6 | 118.6 Mbytes
   Step          Temp          PotEng         Press        f_avgp[1]        Volume    
         0   296.41355     -31990.459     -339.98123      0              3114.186     
       100   282.01993     -31969.457     -744.54518     -1501.9683      3114.186     
       200   323.16277     -31979.754     -1414.8743     -4308.5526      3114.186     
       300   318.2182      -31954.015      49.422279      997.94802      3114.186     
       400   305.59801     -31963.622     -3950.9905     -3031.0391      3114.186     
       500   270.4558      -31959.656     -9230.7807      3092.3571      3114.186     
       600   302.6623      -31980.359      1577.2491      232.60783      3114.186     
       700   298.32986     -31978.991     -3622.8964      3268.2931      3114.186     
       800   274.90386     -31964.237     -7323.6406      1990.4372      3114.186     
       900   311.80255     -31984.222     -11355.754     -5349.149       3114.186     
      1000   312.35981     -31960.81      -3995.1411     -37.074622      3114.186     
      1100   315.96928     -31955.878     -23590.539     -135.53959      3114.186     
      1200   306.50291     -31971.018     -11538.152      2304.4712      3114.186     
      1300   286.14519     -31976.237     -2506.4081     -3997.4501      3114.186     
      1400   301.38867     -31984.113      2279.1965     -2788.0718      3114.186     
      1500   291.14859     -31973.046      1131.3299      6179.9064      3114.186     
      1600   308.69443     -31971.611     -4422.9031      1565.9262      3114.186     
      1700   306.71958     -31953.357     -6190.3011     -1608.857       3114.186     
      1800   316.27472     -31959.712     -1790.7975      358.43792      3114.186     
      1900   318.01815     -31992.746      9532.5463      5784.8839      3114.186     
      2000   318.87084     -32003.91       1517.7435     -115.09395      3114.186     
Loop time of 86.9253 on 8 procs for 2000 steps with 271 atoms

Performance: 0.994 ns/day, 24.146 hours/ns, 23.008 timesteps/s, 6.235 katom-step/s
98.9% CPU use with 8 MPI tasks x 1 OpenMP threads

MPI task timing breakdown:
Section |  min time  |  avg time  |  max time  |%varavg| %total
---------------------------------------------------------------
Pair    | 66.835     | 69.924     | 73.731     |  28.1 | 80.44
Bond    | 0.00062164 | 0.0008397  | 0.00099504 |   0.0 |  0.00
Neigh   | 5.3129     | 5.4777     | 5.8791     |   8.1 |  6.30
Comm    | 0.62748    | 4.4369     | 7.5271     | 111.9 |  5.10
Output  | 0.00092297 | 0.0010722  | 0.0019243  |   1.0 |  0.00
Modify  | 6.6318     | 7.0448     | 7.201      |   7.3 |  8.10
Other   |            | 0.04045    |            |       |  0.05

Nlocal:         33.875 ave          40 max          26 min
Histogram: 1 0 0 0 1 2 2 1 0 1
Nghost:        2966.88 ave        3012 max        2909 min
Histogram: 2 0 0 0 0 1 3 0 0 2
Neighs:          20739 ave       24066 max       16128 min
Histogram: 1 0 0 0 1 2 2 1 0 1

Total # of neighbors = 165912
Ave neighs/atom = 612.2214
Ave special neighs/atom = 0
Neighbor list builds = 200
Dangerous builds not checked
OMP_NUM_THREADS environment is not set. Defaulting to 1 thread. (src/comm.cpp:98)
  using 1 OpenMP thread(s) per MPI task
Reading restart file ...
  restart file = 2 Aug 2023, LAMMPS = 2 Aug 2023
  restoring atom style full from restart
  triclinic box = (-0.16850835 0.040044717 0.65076706) to (14.917208 13.391755 15.958833) with tilt (-7.8556212 0.0034935965 -0.84834476)
WARNING: Triclinic box skew is large. LAMMPS will run inefficiently. (src/domain.cpp:220)
  2 by 2 by 2 MPI processor grid
  pair style reaxff stores no restart info
  271 atoms
Finding 1-2 1-3 1-4 neighbors ...
  special bond factors lj:    0        0        0       
  special bond factors coul:  0        0        0       
     0 = max # of 1-2 neighbors
     0 = max # of 1-3 neighbors
     0 = max # of 1-4 neighbors
     1 = max # of special neighbors
  special bonds CPU = 0.000 seconds
  read_restart CPU = 0.004 seconds
*****Negative-change 4 starts.*****
Resetting global fix info from restart file:
  fix style: nvt, fix ID: 4
Changing box ...
WARNING: Triclinic box skew is large. LAMMPS will run inefficiently. (src/domain.cpp:220)
  triclinic box = (-0.16850835 0.040044717 0.65076706) to (14.917208 13.391755 15.958833) with tilt (-7.8556212 0.0034935965 -1.0014254)
All restart file global fix info was re-assigned
Neighbor list info ...
  update: every = 10 steps, delay = 0 steps, check = no
  max neighbors/atom: 2000, page size: 100000
  master list distance cutoff = 12
  ghost atom cutoff = 12
  binsize = 6, bins = 4 3 3
  2 neighbor lists, perpetual/occasional/extra = 2 0 0
  (1) pair reaxff, perpetual
      attributes: half, newton off, ghost
      pair build: half/bin/newtoff/ghost
      stencil: full/ghost/bin/3d
      bin: standard
  (2) fix qeq/reaxff, perpetual, copy from (1)
      attributes: half, newton off
      pair build: copy
      stencil: none
      bin: none
Setting up Verlet run ...
  Unit style    : real
  Current step  : 0
  Time step     : 0.5
Per MPI rank memory allocation (min/avg/max) = 115.6 | 117.3 | 119.3 Mbytes
   Step          Temp          PotEng         Press        f_avgp[1]        Volume    
         0   299.85537     -31975.041      144.11538      0              3083.3525    
       100   307.91742     -31963.466      2154.6269      4288.1298      3083.3525    
       200   318.82155     -31968.837      9209.3721      1676.6323      3083.3525    
       300   295.96777     -31980.264     -6693.582      -3074.8498      3083.3525    
       400   289.91795     -31983.018      5331.9083      1304.8593      3083.3525    
       500   326.49281     -32003.457     -154.28332      554.68966      3083.3525    
       600   298.55467     -31978.117      3298.7958      2362.0457      3083.3525    
       700   284.60839     -31968.162     -1326.01        3780.6576      3083.3525    
       800   303.44387     -31984.47      -93.526684      2042.8973      3083.3525    
       900   290.07709     -31980.798     -5787.0831      2295.8934      3083.3525    
      1000   290.54014     -31990.523     -3832.6917      1508.1096      3083.3525    
      1100   307.42206     -31992.002     -743.06968      2160.883       3083.3525    
      1200   301.3882      -31962.989      3071.3509      4974.839       3083.3525    
      1300   304.93961     -31968.452     -3262.3234      5470.3298      3083.3525    
      1400   287.96502     -31970.576     -11530.184      1261.938       3083.3525    
      1500   277.4761      -31968.451     -8911.3144     -4440.4697      3083.3525    
      1600   287.09011     -31975.403     -2495.393       2018.0988      3083.3525    
      1700   292.88151     -31970.908      9519.4806      4233.1383      3083.3525    
      1800   311.11792     -31966.219      3208.593       1953.4206      3083.3525    
      1900   324.22808     -31966.33      -5604.5961      5002.9525      3083.3525    
      2000   312.51536     -31975.919      733.778        2322.7969      3083.3525    
Loop time of 88.6536 on 8 procs for 2000 steps with 271 atoms

Performance: 0.975 ns/day, 24.626 hours/ns, 22.560 timesteps/s, 6.114 katom-step/s
98.8% CPU use with 8 MPI tasks x 1 OpenMP threads

MPI task timing breakdown:
Section |  min time  |  avg time  |  max time  |%varavg| %total
---------------------------------------------------------------
Pair    | 68.542     | 71.448     | 75.252     |  28.1 | 80.59
Bond    | 0.00065432 | 0.0008339  | 0.00093824 |   0.0 |  0.00
Neigh   | 5.3839     | 5.5918     | 5.924      |   7.3 |  6.31
Comm    | 0.6438     | 4.4501     | 7.3622     | 112.9 |  5.02
Output  | 0.0045749  | 0.005502   | 0.0063932  |   0.9 |  0.01
Modify  | 6.7722     | 7.1161     | 7.3149     |   6.6 |  8.03
Other   |            | 0.04143    |            |       |  0.05

Nlocal:         33.875 ave          40 max          28 min
Histogram: 1 0 1 1 1 2 0 1 0 1
Nghost:        3024.12 ave        3067 max        2972 min
Histogram: 1 1 0 0 1 1 2 0 0 2
Neighs:        20950.2 ave       24397 max       17534 min
Histogram: 1 0 1 1 1 0 2 1 0 1

Total # of neighbors = 167602
Ave neighs/atom = 618.45756
Ave special neighs/atom = 0
Neighbor list builds = 200
Dangerous builds not checked
*****Equilibration neg4 starts.*****
WARNING: New thermo_style command, previous thermo_modify settings will be lost (src/output.cpp:903)
Neighbor list info ...
  update: every = 10 steps, delay = 0 steps, check = no
  max neighbors/atom: 2000, page size: 100000
  master list distance cutoff = 12
  ghost atom cutoff = 12
  binsize = 6, bins = 4 3 3
  2 neighbor lists, perpetual/occasional/extra = 2 0 0
  (1) pair reaxff, perpetual
      attributes: half, newton off, ghost
      pair build: half/bin/newtoff/ghost
      stencil: full/ghost/bin/3d
      bin: standard
  (2) fix qeq/reaxff, perpetual, copy from (1)
      attributes: half, newton off
      pair build: copy
      stencil: none
      bin: none
Setting up Verlet run ...
  Unit style    : real
  Current step  : 0
  Time step     : 0.5
Per MPI rank memory allocation (min/avg/max) = 115.6 | 117.3 | 119.3 Mbytes
   Step          Temp          PotEng         Press        f_avgp[1]        Volume    
         0   312.51536     -31975.919      733.77012      0              3083.3525    
       100   297.45839     -31976.862      192.08393      1421.1605      3083.3525    
       200   294.69671     -31993.262     -12058.358      4037.2658      3083.3525    
       300   278.40501     -31992.035     -709.08588      105.34332      3083.3525    
       400   280.6157      -32013.231     -6855.8472      681.22589      3083.3525    
       500   288.87897     -32004.006      441.13555      3555.001       3083.3525    
       600   317.20203     -31998.055     -882.90443      1816.3921      3083.3525    
       700   306.85166     -31977.869      10171.513      3525.9244      3083.3525    
       800   302.3777      -31974.404     -941.58166      1508.0391      3083.3525    
       900   277.99348     -31971.01      -8779.7154      3169.2589      3083.3525    
      1000   292.41214     -31991.896     -6212.7419     -3040.8547      3083.3525    
      1100   299.98568     -31999.518     -6510.6434      4971.0818      3083.3525    
      1200   298.97849     -31984.119     -6503.8976     -86.269489      3083.3525    
      1300   338.14248     -31994.896      7609.0545     -137.5847       3083.3525    
      1400   312.53061     -31977.348     -3784.8281     -2726.4477      3083.3525    
      1500   291.06737     -31980.187     -598.62516     -3872.4083      3083.3525    
      1600   279.91274     -31995.308      7409.328       5504.5718      3083.3525    
      1700   289.2413      -31993.908      1934.7041     -212.37571      3083.3525    
      1800   294.67039     -31987.573     -2305.3283      1487.6263      3083.3525    
      1900   314.30692     -31994.826      1296.6143      5531.1653      3083.3525    
      2000   287.2405      -31960.898      6023.806       301.88099      3083.3525    
Loop time of 87.2196 on 8 procs for 2000 steps with 271 atoms

Performance: 0.991 ns/day, 24.228 hours/ns, 22.931 timesteps/s, 6.214 katom-step/s
98.8% CPU use with 8 MPI tasks x 1 OpenMP threads

MPI task timing breakdown:
Section |  min time  |  avg time  |  max time  |%varavg| %total
---------------------------------------------------------------
Pair    | 55.199     | 68.923     | 73.855     |  66.7 | 79.02
Bond    | 0.00069565 | 0.00084953 | 0.00098457 |   0.0 |  0.00
Neigh   | 4.3405     | 5.3908     | 5.7118     |  17.6 |  6.18
Comm    | 0.94364    | 5.8821     | 19.602     | 228.5 |  6.74
Output  | 0.00089062 | 0.0011784  | 0.0028957  |   1.9 |  0.00
Modify  | 6.6634     | 6.9839     | 8.0385     |  15.5 |  8.01
Other   |            | 0.03736    |            |       |  0.04

Nlocal:         33.875 ave          41 max          27 min
Histogram: 1 0 0 1 2 2 1 0 0 1
Nghost:         3018.5 ave        3081 max        2960 min
Histogram: 1 1 1 0 1 0 2 1 0 1
Neighs:        20962.6 ave       24920 max       16982 min
Histogram: 1 0 0 2 1 2 1 0 0 1

Total # of neighbors = 167701
Ave neighs/atom = 618.82288
Ave special neighs/atom = 0
Neighbor list builds = 200
Dangerous builds not checked
OMP_NUM_THREADS environment is not set. Defaulting to 1 thread. (src/comm.cpp:98)
  using 1 OpenMP thread(s) per MPI task
Reading restart file ...
  restart file = 2 Aug 2023, LAMMPS = 2 Aug 2023
  restoring atom style full from restart
  triclinic box = (-0.16850835 0.040044717 0.65076706) to (14.917208 13.391755 15.958833) with tilt (-7.8556212 0.0034935965 -0.84834476)
WARNING: Triclinic box skew is large. LAMMPS will run inefficiently. (src/domain.cpp:220)
  2 by 2 by 2 MPI processor grid
  pair style reaxff stores no restart info
  271 atoms
Finding 1-2 1-3 1-4 neighbors ...
  special bond factors lj:    0        0        0       
  special bond factors coul:  0        0        0       
     0 = max # of 1-2 neighbors
     0 = max # of 1-3 neighbors
     0 = max # of 1-4 neighbors
     1 = max # of special neighbors
  special bonds CPU = 0.000 seconds
  read_restart CPU = 0.003 seconds
*****Positive-change 4 starts.*****
Resetting global fix info from restart file:
  fix style: nvt, fix ID: 4
Changing box ...
WARNING: Triclinic box skew is large. LAMMPS will run inefficiently. (src/domain.cpp:220)
  triclinic box = (-0.16850835 0.040044717 0.65076706) to (14.917208 13.391755 15.958833) with tilt (-7.8556212 0.0034935965 -0.6952641)
All restart file global fix info was re-assigned
Neighbor list info ...
  update: every = 10 steps, delay = 0 steps, check = no
  max neighbors/atom: 2000, page size: 100000
  master list distance cutoff = 12
  ghost atom cutoff = 12
  binsize = 6, bins = 4 3 3
  2 neighbor lists, perpetual/occasional/extra = 2 0 0
  (1) pair reaxff, perpetual
      attributes: half, newton off, ghost
      pair build: half/bin/newtoff/ghost
      stencil: full/ghost/bin/3d
      bin: standard
  (2) fix qeq/reaxff, perpetual, copy from (1)
      attributes: half, newton off
      pair build: copy
      stencil: none
      bin: none
Setting up Verlet run ...
  Unit style    : real
  Current step  : 0
  Time step     : 0.5
Per MPI rank memory allocation (min/avg/max) = 115.6 | 117.3 | 119.3 Mbytes
   Step          Temp          PotEng         Press        f_avgp[1]        Volume    
         0   299.85537     -31970.996      3072.3747      0              3083.3525    
       100   302.50636     -31955.821      1575.6388      2053.2902      3083.3525    
       200   324.29776     -31971.898     -13119.828     -254.23351      3083.3525    
       300   295.03543     -31984.181     -2904.2467     -1726.3716      3083.3525    
       400   291.67933     -31988.669      1491.8024     -1925.1445      3083.3525    
       500   310.51948     -31989.772     -12358.275     -2311.6723      3083.3525    
       600   295.50463     -31962.959     -6156.2229      1442.4232      3083.3525    
       700   313.45557     -31969.702     -6906.2618      2892.5122      3083.3525    
       800   314.82529     -31988.962      3820.226       4616.6524      3083.3525    
       900   293.70564     -31997.554      3970.2328      6156.8234      3083.3525    
      1000   285.83511     -31991.628      4990.9378     -3822.5931      3083.3525    
      1100   322.70717     -32002.841     -3887.1405      2183.6385      3083.3525    
      1200   310.80803     -31976.778      5798.1895      7200.4498      3083.3525    
      1300   318.4409      -31989.252     -12787.546      415.89714      3083.3525    
      1400   270.82013     -31988.886      2569.948       3945.2385      3083.3525    
      1500   282.71635     -32000.056      7201.4155      890.64402      3083.3525    
      1600   286.60793     -31980.658     -3010.4203     -1529.5863      3083.3525    
      1700   328.915       -32003.008      4857.7836      3341.5026      3083.3525    
      1800   301.51329     -31985.659      14609.698      3794.0426      3083.3525    
      1900   289.58182     -31992.811     -11855.799      6198.2378      3083.3525    
      2000   277.11203     -32008.296     -6297.8259      2426.6409      3083.3525    
Loop time of 87.0135 on 8 procs for 2000 steps with 271 atoms

Performance: 0.993 ns/day, 24.170 hours/ns, 22.985 timesteps/s, 6.229 katom-step/s
98.8% CPU use with 8 MPI tasks x 1 OpenMP threads

MPI task timing breakdown:
Section |  min time  |  avg time  |  max time  |%varavg| %total
---------------------------------------------------------------
Pair    | 68.311     | 70.725     | 73.755     |  21.6 | 81.28
Bond    | 0.00071598 | 0.00084732 | 0.00098191 |   0.0 |  0.00
Neigh   | 5.2372     | 5.4314     | 5.6115     |   4.7 |  6.24
Comm    | 0.88113    | 3.9162     | 6.3366     |  92.6 |  4.50
Output  | 0.0038248  | 0.0048821  | 0.0057956  |   1.1 |  0.01
Modify  | 6.7181     | 6.8976     | 7.0901     |   3.9 |  7.93
Other   |            | 0.03717    |            |       |  0.04

Nlocal:         33.875 ave          40 max          26 min
Histogram: 1 0 1 0 0 3 0 1 0 2
Nghost:        3004.12 ave        3040 max        2965 min
Histogram: 2 0 0 1 0 1 2 0 1 1
Neighs:          20949 ave       24399 max       16330 min
Histogram: 1 0 1 0 0 3 0 0 1 2

Total # of neighbors = 167592
Ave neighs/atom = 618.42066
Ave special neighs/atom = 0
Neighbor list builds = 200
Dangerous builds not checked
*****Equilibration pos4 starts.*****
WARNING: New thermo_style command, previous thermo_modify settings will be lost (src/output.cpp:903)
Neighbor list info ...
  update: every = 10 steps, delay = 0 steps, check = no
  max neighbors/atom: 2000, page size: 100000
  master list distance cutoff = 12
  ghost atom cutoff = 12
  binsize = 6, bins = 4 3 3
  2 neighbor lists, perpetual/occasional/extra = 2 0 0
  (1) pair reaxff, perpetual
      attributes: half, newton off, ghost
      pair build: half/bin/newtoff/ghost
      stencil: full/ghost/bin/3d
      bin: standard
  (2) fix qeq/reaxff, perpetual, copy from (1)
      attributes: half, newton off
      pair build: copy
      stencil: none
      bin: none
Setting up Verlet run ...
  Unit style    : real
  Current step  : 0
  Time step     : 0.5
Per MPI rank memory allocation (min/avg/max) = 115.6 | 117.3 | 119.3 Mbytes
   Step          Temp          PotEng         Press        f_avgp[1]        Volume    
         0   277.11203     -32008.296     -6297.8385      0              3083.3525    
       100   289.40119     -32003.008      7250.8804      6545.7183      3083.3525    
       200   317.645       -32002.83      -427.18665      5531.6961      3083.3525    
       300   280.6593      -31972.667      5043.5971     -3169.1494      3083.3525    
       400   317.14856     -32004.28       2213.9011      7246.2188      3083.3525    
       500   308.33961     -32002.515      3034.9807      1152.2603      3083.3525    
       600   311.50503     -32006.282     -4028.2854     -1296.4702      3083.3525    
[...]
      1700   289.62873     -31990.966     -1418.8609      1961.9465      3083.3525    
      1800   310.03374     -31985.35       4672.2492      1261.8912      3083.3525    
      1900   277.34301     -31949.227     -8280.0482     -2140.8208      3083.3525    
      2000   293.17624     -31963.046     -12222.692     -1812.9038      3083.3525    
Loop time of 87.3244 on 8 procs for 2000 steps with 271 atoms

Performance: 0.989 ns/day, 24.257 hours/ns, 22.903 timesteps/s, 6.207 katom-step/s
98.8% CPU use with 8 MPI tasks x 1 OpenMP threads

MPI task timing breakdown:
Section |  min time  |  avg time  |  max time  |%varavg| %total
---------------------------------------------------------------
Pair    | 62.791     | 69.765     | 73.757     |  40.5 | 79.89
Bond    | 0.00076395 | 0.00086436 | 0.00096749 |   0.0 |  0.00
Neigh   | 4.7775     | 5.445      | 5.9172     |  13.7 |  6.24
Comm    | 1.0022     | 5.0261     | 11.99      | 151.2 |  5.76
Output  | 0.00095866 | 0.0010714  | 0.0016762  |   0.7 |  0.00
Modify  | 6.6021     | 7.0491     | 7.7267     |  11.8 |  8.07
Other   |            | 0.03721    |            |       |  0.04

Nlocal:         33.875 ave          40 max          28 min
Histogram: 1 0 1 1 1 2 0 0 1 1
Nghost:           2995 ave        3028 max        2963 min
Histogram: 2 0 0 1 1 0 2 0 1 1
Neighs:        20941.8 ave       24353 max       17510 min
Histogram: 1 0 1 1 1 1 1 0 1 1

Total # of neighbors = 167534
Ave neighs/atom = 618.20664
Ave special neighs/atom = 0
Neighbor list builds = 200
Dangerous builds not checked
OMP_NUM_THREADS environment is not set. Defaulting to 1 thread. (src/comm.cpp:98)
  using 1 OpenMP thread(s) per MPI task
Reading restart file ...
  restart file = 2 Aug 2023, LAMMPS = 2 Aug 2023
  restoring atom style full from restart
  triclinic box = (-0.16850835 0.040044717 0.65076706) to (14.917208 13.391755 15.958833) with tilt (-7.8556212 0.0034935965 -0.84834476)
WARNING: Triclinic box skew is large. LAMMPS will run inefficiently. (src/domain.cpp:220)
  2 by 2 by 2 MPI processor grid
  pair style reaxff stores no restart info
  271 atoms
Finding 1-2 1-3 1-4 neighbors ...
  special bond factors lj:    0        0        0       
  special bond factors coul:  0        0        0       
     0 = max # of 1-2 neighbors
     0 = max # of 1-3 neighbors
     0 = max # of 1-4 neighbors
     1 = max # of special neighbors
  special bonds CPU = 0.000 seconds
  read_restart CPU = 0.003 seconds
*****Negative-change 6 starts.*****
Resetting global fix info from restart file:
  fix style: nvt, fix ID: 4
Changing box ...
WARNING: Triclinic box skew is large. LAMMPS will run inefficiently. (src/domain.cpp:220)
  triclinic box = (-0.16850835 0.040044717 0.65076706) to (14.917208 13.391755 15.958833) with tilt (-7.9891383 0.0034935965 -0.84834476)
All restart file global fix info was re-assigned
Neighbor list info ...
  update: every = 10 steps, delay = 0 steps, check = no
  max neighbors/atom: 2000, page size: 100000
  master list distance cutoff = 12
  ghost atom cutoff = 12
  binsize = 6, bins = 4 3 3
  2 neighbor lists, perpetual/occasional/extra = 2 0 0
  (1) pair reaxff, perpetual
      attributes: half, newton off, ghost
      pair build: half/bin/newtoff/ghost
      stencil: full/ghost/bin/3d
      bin: standard
  (2) fix qeq/reaxff, perpetual, copy from (1)
      attributes: half, newton off
      pair build: copy
      stencil: none
      bin: none
Setting up Verlet run ...
  Unit style    : real
  Current step  : 0
  Time step     : 0.5
Per MPI rank memory allocation (min/avg/max) = 116.1 | 117.7 | 119.6 Mbytes
   Step          Temp          PotEng         Press        f_avgp[1]        Volume    
         0   299.85537     -31974.117     -1401.4662      0              3083.3525    
       100   308.60322     -31963.196      2150.8605      2326.6791      3083.3525    
       200   316.47102     -31966.681     -7004.5408     -236.33775      3083.3525    
       300   289.81269     -31978.304     -8352.0121     -4228.5786      3083.3525    
       400   281.78173     -31980.91      -1274.9881     -640.07518      3083.3525    
       500   286.36523     -31972.657     -1520.446       1664.3564      3083.3525    
       600   288.16099     -31958.031     -6519.5033     -852.79692      3083.3525    
       700   304.53276     -31957.178     -4621.5991      3087.8033      3083.3525    
       800   322.51772     -31977.225      4240.1593      2424.2837      3083.3525    
       900   297.11174     -31993.592     -12072.751      1746.7965      3083.3525    
      1000   288.56572     -31986.517      9690.633      -5968.6896      3083.3525    
      1100   288.3291      -31970.832      3483.3233      4970.0394      3083.3525    
      1200   314.34639     -31971.156     -13987.381      4126.5368      3083.3525    
      1300   323.74933     -31980.884      1070.7067      6087.2989      3083.3525    
      1400   300.32481     -31980.943     -752.77822      1450.9931      3083.3525    
      1500   305.72712     -31982.384      10220.336     -150.33907      3083.3525    
      1600   308.73627     -31976.579     -117.52697      3659.4995      3083.3525    
      1700   301.82795     -31963.122     -12493.148     -1911.7991      3083.3525    
      1800   290.82443     -31947.987     -10590.413      6062.5793      3083.3525    
      1900   277.92719     -31949.891      6171.542       437.94405      3083.3525    
      2000   279.0556      -31971.707     -4165.1573     -5432.413       3083.3525    
Loop time of 87.696 on 8 procs for 2000 steps with 271 atoms

Performance: 0.985 ns/day, 24.360 hours/ns, 22.806 timesteps/s, 6.180 katom-step/s
98.7% CPU use with 8 MPI tasks x 1 OpenMP threads

MPI task timing breakdown:
Section |  min time  |  avg time  |  max time  |%varavg| %total
---------------------------------------------------------------
Pair    | 58.307     | 66.789     | 74.21      |  67.0 | 76.16
Bond    | 0.00067653 | 0.00084136 | 0.00098821 |   0.0 |  0.00
Neigh   | 4.4174     | 5.2333     | 5.9134     |  22.0 |  5.97
Comm    | 0.86612    | 8.3397     | 16.834     | 190.5 |  9.51
Output  | 0.004091   | 0.0049254  | 0.0056846  |   0.9 |  0.01
Modify  | 6.6575     | 7.2922     | 8.0973     |  17.8 |  8.32
Other   |            | 0.03653    |            |       |  0.04

Nlocal:         33.875 ave          38 max          27 min
Histogram: 1 0 0 0 2 0 0 3 0 2
Nghost:         3009.5 ave        3031 max        2991 min
Histogram: 1 1 2 0 1 0 0 1 1 1
Neighs:        20979.1 ave       23240 max       16960 min
Histogram: 1 0 0 0 2 0 0 3 0 2

Total # of neighbors = 167833
Ave neighs/atom = 619.30996
Ave special neighs/atom = 0
Neighbor list builds = 200
Dangerous builds not checked
*****Equilibration neg6 starts.*****
WARNING: New thermo_style command, previous thermo_modify settings will be lost (src/output.cpp:903)
Neighbor list info ...
  update: every = 10 steps, delay = 0 steps, check = no
  max neighbors/atom: 2000, page size: 100000
  master list distance cutoff = 12
  ghost atom cutoff = 12
  binsize = 6, bins = 4 3 3
  2 neighbor lists, perpetual/occasional/extra = 2 0 0
  (1) pair reaxff, perpetual
      attributes: half, newton off, ghost
      pair build: half/bin/newtoff/ghost
      stencil: full/ghost/bin/3d
      bin: standard
  (2) fix qeq/reaxff, perpetual, copy from (1)
      attributes: half, newton off
      pair build: copy
      stencil: none
      bin: none
Setting up Verlet run ...
  Unit style    : real
  Current step  : 0
  Time step     : 0.5
Per MPI rank memory allocation (min/avg/max) = 116.1 | 117.7 | 119.6 Mbytes
   Step          Temp          PotEng         Press        f_avgp[1]        Volume    
         0   279.0556      -31971.707     -4165.2018      0              3083.3525    
       100   294.70213     -31983.42       5912.0566     -1064.5114      3083.3525    
       200   311.04403     -31983.726      827.64889      2110.0572      3083.3525    
       300   329.45101     -31973.399      3634.6992      4341.2878      3083.3525    
       400   316.79575     -31962.892      3984.4402     -2244.0432      3083.3525    
       500   298.71075     -31975.726      4600.8045     -959.43037      3083.3525    
       600   281.23024     -31970.974     -11668.375      2235.5003      3083.3525    
       700   316.20849     -31993.113     -2981.0653     -2029.3395      3083.3525    
       800   285.7865      -31961.015      3190.6352      246.26102      3083.3525    
       900   300.61945     -31973.598      5429.7544     -49.97383       3083.3525    
      1000   302.57538     -31993.278      5330.6254      2351.5949      3083.3525    
      1100   276.02126     -31987.52      -8879.7961     -5053.8114      3083.3525    
      1200   280.99534     -31983.408     -5626.3054     -7595.2329      3083.3525    
      1300   299.9893      -31969.621     -1057.5604      2532.7049      3083.3525    
      1400   314.70014     -31976.975     -3247.1099      150.95095      3083.3525    
      1500   301.50398     -31980.322     -3894.6941      3181.7243      3083.3525    
      1600   306.41229     -31994.092     -3371.2558      3854.118       3083.3525    
      1700   305.84485     -31993.9       -2834.9322     -2142.2013      3083.3525    
      1800   303.19833     -31988.038     -4347.1023     -6362.7519      3083.3525    
      1900   293.6377      -31978.5       -6104.1127     -2981.4579      3083.3525    
      2000   305.90131     -31976.118     -16733.756     -4840.9146      3083.3525    
Loop time of 87.935 on 8 procs for 2000 steps with 271 atoms

Performance: 0.983 ns/day, 24.426 hours/ns, 22.744 timesteps/s, 6.164 katom-step/s
98.9% CPU use with 8 MPI tasks x 1 OpenMP threads

MPI task timing breakdown:
Section |  min time  |  avg time  |  max time  |%varavg| %total
---------------------------------------------------------------
Pair    | 49.519     | 66.263     | 74.608     | 115.0 | 75.35
Bond    | 0.00070355 | 0.00083293 | 0.00099155 |   0.0 |  0.00
Neigh   | 3.8742     | 5.2019     | 5.9415     |  33.2 |  5.92
Comm    | 0.70675    | 9.0757     | 25.848     | 311.2 | 10.32
Output  | 0.00084309 | 0.0010102  | 0.0015148  |   0.6 |  0.00
Modify  | 6.6316     | 7.3554     | 8.66       |  27.7 |  8.36
Other   |            | 0.03693    |            |       |  0.04

Nlocal:         33.875 ave          39 max          25 min
Histogram: 1 0 0 0 0 2 1 2 1 1
Nghost:        3014.25 ave        3063 max        2958 min
Histogram: 1 1 0 2 0 0 1 0 1 2
Neighs:        20979.1 ave       23805 max       15710 min
Histogram: 1 0 0 0 1 1 1 1 2 1

Total # of neighbors = 167833
Ave neighs/atom = 619.30996
Ave special neighs/atom = 0
Neighbor list builds = 200
Dangerous builds not checked
OMP_NUM_THREADS environment is not set. Defaulting to 1 thread. (src/comm.cpp:98)
  using 1 OpenMP thread(s) per MPI task
Reading restart file ...
  restart file = 2 Aug 2023, LAMMPS = 2 Aug 2023
  restoring atom style full from restart
  triclinic box = (-0.16850835 0.040044717 0.65076706) to (14.917208 13.391755 15.958833) with tilt (-7.8556212 0.0034935965 -0.84834476)
WARNING: Triclinic box skew is large. LAMMPS will run inefficiently. (src/domain.cpp:220)
  2 by 2 by 2 MPI processor grid
  pair style reaxff stores no restart info
  271 atoms
Finding 1-2 1-3 1-4 neighbors ...
  special bond factors lj:    0        0        0       
  special bond factors coul:  0        0        0       
     0 = max # of 1-2 neighbors
     0 = max # of 1-3 neighbors
     0 = max # of 1-4 neighbors
     1 = max # of special neighbors
  special bonds CPU = 0.000 seconds
  read_restart CPU = 0.003 seconds
*****Positive-change 6 starts.*****
Resetting global fix info from restart file:
  fix style: nvt, fix ID: 4
Changing box ...
WARNING: Triclinic box skew is large. LAMMPS will run inefficiently. (src/domain.cpp:220)
  triclinic box = (-0.16850835 0.040044717 0.65076706) to (14.917208 13.391755 15.958833) with tilt (-7.7221041 0.0034935965 -0.84834476)
All restart file global fix info was re-assigned
Neighbor list info ...
  update: every = 10 steps, delay = 0 steps, check = no
  max neighbors/atom: 2000, page size: 100000
  master list distance cutoff = 12
  ghost atom cutoff = 12
  binsize = 6, bins = 4 3 3
  2 neighbor lists, perpetual/occasional/extra = 2 0 0
  (1) pair reaxff, perpetual
      attributes: half, newton off, ghost
      pair build: half/bin/newtoff/ghost
      stencil: full/ghost/bin/3d
      bin: standard
  (2) fix qeq/reaxff, perpetual, copy from (1)
      attributes: half, newton off
      pair build: copy
      stencil: none
      bin: none
Setting up Verlet run ...
  Unit style    : real
  Current step  : 0
  Time step     : 0.5
Per MPI rank memory allocation (min/avg/max) = 115.5 | 117 | 118.8 Mbytes
   Step          Temp          PotEng         Press        f_avgp[1]        Volume    
         0   299.85537     -31972.341      4407.9492      0              3083.3525    
       100   308.51004     -31961.273     -15.514918      3124.5339      3083.3525    
       200   325.19258     -31972.934     -4274.8802      2645.6508      3083.3525    
       300   292.02921     -31980.037     -7749.8561     -4310.1926      3083.3525    
       400   290.74521     -31988.21       13401.07       236.19683      3083.3525    
       500   301.12809     -31981.417     -5545.3509      50.400181      3083.3525    
       600   309.26396     -31972.488      5388.8097     -199.20994      3083.3525    
       700   309.674       -31968.146      10326.412      3834.163       3083.3525    
       800   272.99452     -31966.278     -6630.1337      5898.1036      3083.3525    
       900   281.03428     -31989.298     -9998.3025     -1238.0871      3083.3525    
      1000   278.51571     -31987.132      4241.6758     -2957.8187      3083.3525    
      1100   298.97922     -31988.033      11930.92       4822.6602      3083.3525    
      1200   308.52046     -31973.428      5300.5703      4661.9363      3083.3525    
      1300   293.58005     -31959.356      19503.193     -382.30365      3083.3525    
      1400   306.40483     -31983.399     -426.53453      3426.6999      3083.3525    
      1500   293.84111     -31979.72       7002.5127     -1348.6259      3083.3525    
      1600   301.42583     -31983.726      5031.11       -3597.3098      3083.3525    
      1700   313.69259     -31971.904     -20546.088      3175.4349      3083.3525    
      1800   318.8556      -31962.139     -17043.973      2382.4124      3083.3525    
      1900   317.17356     -31980.622      50.486233     -3307.6793      3083.3525    
      2000   293.84316     -31981.982     -1122.4021     -2713.5383      3083.3525    
Loop time of 84.7274 on 8 procs for 2000 steps with 271 atoms

Performance: 1.020 ns/day, 23.535 hours/ns, 23.605 timesteps/s, 6.397 katom-step/s
98.8% CPU use with 8 MPI tasks x 1 OpenMP threads

MPI task timing breakdown:
Section |  min time  |  avg time  |  max time  |%varavg| %total
---------------------------------------------------------------
Pair    | 47.208     | 62.613     | 71.619     | 113.1 | 73.90
Bond    | 0.00071628 | 0.00079843 | 0.00089858 |   0.0 |  0.00
Neigh   | 3.797      | 5.0383     | 5.8609     |  31.8 |  5.95
Comm    | 0.69305    | 9.7135     | 25.143     | 287.4 | 11.46
Output  | 0.0039143  | 0.0048562  | 0.0057312  |   1.0 |  0.01
Modify  | 6.5033     | 7.3201     | 8.5414     |  26.3 |  8.64
Other   |            | 0.03658    |            |       |  0.04

Nlocal:         33.875 ave          39 max          27 min
Histogram: 1 0 0 0 1 3 1 0 1 1
Nghost:        2982.88 ave        3023 max        2939 min
Histogram: 1 1 0 1 0 2 0 2 0 1
Neighs:        20960.9 ave       23827 max       16922 min
Histogram: 1 0 0 1 0 1 3 0 1 1

Total # of neighbors = 167687
Ave neighs/atom = 618.77122
Ave special neighs/atom = 0
Neighbor list builds = 200
Dangerous builds not checked
*****Equilibration pos6 starts.*****
WARNING: New thermo_style command, previous thermo_modify settings will be lost (src/output.cpp:903)
Neighbor list info ...
  update: every = 10 steps, delay = 0 steps, check = no
  max neighbors/atom: 2000, page size: 100000
  master list distance cutoff = 12
  ghost atom cutoff = 12
  binsize = 6, bins = 4 3 3
  2 neighbor lists, perpetual/occasional/extra = 2 0 0
  (1) pair reaxff, perpetual
      attributes: half, newton off, ghost
      pair build: half/bin/newtoff/ghost
      stencil: full/ghost/bin/3d
      bin: standard
  (2) fix qeq/reaxff, perpetual, copy from (1)
      attributes: half, newton off
      pair build: copy
      stencil: none
      bin: none
Setting up Verlet run ...
  Unit style    : real
  Current step  : 0
  Time step     : 0.5
Per MPI rank memory allocation (min/avg/max) = 114.7 | 116.9 | 118.8 Mbytes
   Step          Temp          PotEng         Press        f_avgp[1]        Volume    
         0   293.84316     -31981.982     -1122.3788      0              3083.3525    
       100   283.31294     -31972.051     -8026.3892      1010.4474      3083.3525    
       200   302.33036     -31972.077     -7405.7229     -2395.8724      3083.3525    
       300   295.20116     -31942.283     -2646.8152     -4289.2815      3083.3525    
       400   325.13412     -31974.371     -11275.131      296.34282      3083.3525    
       500   309.81249     -31990.385     -12525.665     -1244.475       3083.3525    
       600   302.12671     -31988.897      1617.4577      793.81148      3083.3525    
       700   307.80052     -31990.865     -7121.6229     -2750.514       3083.3525    
       800   296.42427     -31978.661      13451.729      8784.7357      3083.3525    
       900   302.69514     -31980.699      10165.303      4511.1834      3083.3525    
      1000   313.54135     -31999.939     -5116.6915     -9699.3275      3083.3525    
      1100   264.66249     -31978.78      -5100.2854      234.28068      3083.3525    
      1200   287.09134     -31991.115      1208.0998      969.063        3083.3525    
      1300   305.03339     -31976.257     -15726.957     -1300.7483      3083.3525    
      1400   327.34812     -31984.092     -3447.1654     -7357.3348      3083.3525    
      1500   283.78232     -31959.291     -2069.8838      6176.1512      3083.3525    
      1600   317.12919     -31992.335      2937.7821     -3901.2956      3083.3525    
      1700   295.61364     -31986.458     -4921.4031     -5934.2564      3083.3525    
      1800   252.57273     -31979.644     -4030.0911      712.93552      3083.3525    
      1900   284.99154     -32003.984     -6516.3897      2945.5042      3083.3525    
      2000   300.28922     -31991.202      13282.763     -1503.5289      3083.3525    
Loop time of 81.4887 on 8 procs for 2000 steps with 271 atoms

Performance: 1.060 ns/day, 22.636 hours/ns, 24.543 timesteps/s, 6.651 katom-step/s
98.8% CPU use with 8 MPI tasks x 1 OpenMP threads

MPI task timing breakdown:
Section |  min time  |  avg time  |  max time  |%varavg| %total
---------------------------------------------------------------
Pair    | 42.835     | 58.114     | 68.537     | 138.0 | 71.32
Bond    | 0.00067316 | 0.00075141 | 0.00089977 |   0.0 |  0.00
Neigh   | 3.7994     | 4.9286     | 5.8726     |  37.7 |  6.05
Comm    | 0.66769    | 11.097     | 26.358     | 315.9 | 13.62
Output  | 0.00086535 | 0.0009773  | 0.001409   |   0.0 |  0.00
Modify  | 6.365      | 7.3116     | 8.4264     |  31.0 |  8.97
Other   |            | 0.03542    |            |       |  0.04

Nlocal:         33.875 ave          39 max          29 min
Histogram: 1 1 0 0 1 2 1 0 1 1
Nghost:        3027.62 ave        3097 max        2959 min
Histogram: 1 0 1 1 1 0 2 1 0 1
Neighs:          20976 ave       23831 max       18194 min
Histogram: 2 0 0 1 0 2 1 0 1 1

Total # of neighbors = 167808
Ave neighs/atom = 619.21771
Ave special neighs/atom = 0
Neighbor list builds = 200
Dangerous builds not checked
Total wall time: 0:36:27
