ITEM: TIMESTEP
0
ITEM: NUMBER OF ATOMS
362
ITEM: BOX BOUNDS xy xz yz pp pp pp
-8.3819999999999997e+00 1.7202700000000000e+01 -8.3819999999999997e+00
0.0000000000000000e+00 1.3430600000000000e+01 3.0499999999999999e-02
0.0000000000000000e+00 1.7586700000000000e+01 3.0270000000000002e-01
ITEM: ATOMS id type q x y z
2 4 1.03452 -0.499867 2.91842 5.43163
7 4 0.755146 -1.56433 3.67566 2.37453
60 1 -0.653258 -0.467005 4.78755 6.46769
69 1 -0.677934 -0.11399 4.16975 1.28611
287 2 -0.00842207 -1.83521 5.62273 7.62523
146 2 0.197031 0.511034 5.45405 4.85667
118 2 0.170038 -1.40964 5.39107 5.9417
119 2 0.173472 0.468086 5.38997 6.82106
70 1 -0.653343 0.952755 5.9107 3.76583
142 2 0.131559 -0.495744 3.72069 0.267209
143 2 0.17099 0.909988 3.839 1.61332
144 2 0.134224 -0.288702 5.31321 1.32004
147 2 0.176506 0.530569 5.25999 2.9164
191 3 -0.776595 0.889651 2.10604 5.53389
194 3 -0.76811 -1.07447 3.33328 3.81016
116 2 0.189817 1.98737 0.804742 2.33002
122 2 0.179775 1.26121 4.08493 7.13999
117 2 0.106374 -0.760373 4.09973 7.38643
283 4 0.907241 -3.16476 5.75389 8.63648
123 2 0.160129 -2.76315 5.2299 4.72587
62 1 -0.69319 -2.8788 6.34654 4.92056
121 2 0.161835 2.17023 3.07627 8.53168
124 2 0.1729 -3.24133 6.57271 5.97185
87 2 0.0990644 -2.94023 4.7294 2.45586
61 1 -0.665767 2.23374 3.50454 7.45687
25 4 1.22639 5.87417 4.11408 7.32805
192 3 -0.835473 2.99541 0.869921 7.00705
93 2 0.117371 3.59688 4.61587 2.99315
201 3 -0.796646 7.57561 1.02326 0.862622
200 3 -0.828156 3.56088 2.71197 4.8954
23 4 1.0929 2.81372 6.037 3.67895
3 4 0.933963 3.65352 0.299372 8.35027
120 2 0.21736 3.19054 4.11113 7.19069
210 3 -0.90836 5.42049 3.2589 8.49334
199 3 -0.798462 4.36331 0.904805 3.24134
208 3 -0.787085 4.64546 3.56537 2.65238
211 3 -0.788371 3.41007 6.41804 5.14939
203 3 -0.805939 6.32998 2.32152 4.68447
95 2 0.0663114 5.71294 3.24359 5.89293
5 4 1.26638 2.4272 2.11238 6.14858
14 4 1.4488 4.65314 2.35881 3.87379
212 3 -0.858895 5.02564 5.45989 7.07578
353 2 0.176995 5.94949 0.660627 8.18284
149 2 0.169291 4.86092 5.54841 0.859546
16 4 1.42706 8.40011 0.379055 7.59659
26 4 1.30679 4.12116 6.67384 6.58283
6 4 1.2004 0.238164 1.58173 11.9559
9 4 1.02496 1.01692 4.4613 13.1741
28 4 1.18781 1.34855 5.95898 15.8852
63 1 -0.663526 -0.0465954 5.84684 12.4102
68 1 -0.685108 0.946728 1.81919 10.1758
98 2 0.00175117 0.380582 5.64192 17.2767
126 2 0.133498 -0.936949 5.24828 11.9296
127 2 0.121675 0.785252 6.07748 11.6384
139 2 0.125438 0.991864 3.02716 10.4046
140 2 0.149798 0.907068 1.60019 9.07333
195 3 -0.810259 0.456 2.99843 12.6894
214 3 -0.787304 1.01126 4.74607 14.7705
297 2 0.00548802 -1.54028 5.80468 13.7187
324 2 0.188402 0.000659582 2.43204 15.7181
141 2 0.165918 2.00542 1.49118 10.4544
86 2 -0.0114916 -0.848056 1.92694 9.23056
348 2 -0.0417191 -2.45914 5.42001 10.1221
321 1 -0.676871 -0.345836 1.35462 15.489
322 2 0.254183 0.323477 0.869457 14.6339
276 3 -0.760705 1.21731 0.3801 12.9213
128 2 0.211098 -0.364719 6.75823 12.931
97 2 0.0128152 5.4259 3.84529 12.4189
326 2 0.141285 4.28965 0.612332 13.3109
325 1 -0.646813 3.5963 0.649561 14.2399
137 2 0.122189 3.12435 3.77806 10.2252
91 2 -0.0030863 3.49616 3.70493 17.0159
138 2 0.135731 4.73894 4.79276 11.022
99 2 -0.030503 3.17293 5.83481 11.2508
202 3 -0.861658 4.17547 1.24755 9.45667
215 3 -0.844083 2.83152 6.18084 16.3819
206 3 -0.846261 6.09083 2.40972 10.8614
207 3 -0.838491 7.43512 0.692743 12.0964
328 2 0.165914 3.06658 1.67719 14.3683
213 3 -0.821255 5.12713 3.95121 14.9736
89 2 -0.00481616 2.72944 4.37436 12.6715
17 4 1.35755 4.96423 2.58075 9.77764
20 4 0.991137 4.82589 3.11299 16.2686
27 4 1.01464 5.52455 4.8915 13.7519
205 3 -0.783201 6.09988 2.94789 17.1645
67 1 -0.667519 3.91699 4.02104 11.1348
136 2 0.148325 3.90736 3.2366 11.9451
92 2 0.0257437 4.33734 1.5428 15.8092
216 3 -0.844796 4.75824 6.26292 13.4775
10 4 1.30756 -2.53939 8.91839 2.13215
196 3 -0.797661 -3.82368 8.13231 2.99322
197 3 -0.818871 -3.12295 9.4781 0.696503
198 3 -0.799649 -3.91193 12.0386 1.52596
285 1 -0.650192 -3.66806 9.43124 6.51304
289 2 0.179402 -4.74191 9.46044 6.04714
290 2 0.191596 -2.97677 8.61767 6.06633
291 2 0.136424 -3.16359 10.452 6.68129
317 1 -0.678201 -4.41723 11.4434 4.41093
318 2 0.16471 -4.26006 11.9945 5.40252
319 2 0.205629 -3.86827 10.4686 4.32172
320 2 0.137715 -5.63883 11.2552 4.31927
347 2 -0.0242534 -3.47592 12.3953 7.80473
100 2 0.0235281 -2.49242 11.8259 4.66669
1 4 1.19212 -4.56795 12.6022 2.82953
115 2 0.197868 -6.90198 12.2191 1.64877
284 4 0.806586 -4.26557 8.74255 8.2678
295 3 -0.778572 -3.71734 7.25329 8.46342
11 4 1.44439 -3.78566 10.9946 0.275546
59 1 -0.680377 -6.56019 12.7904 2.54481
114 2 0.176866 -7.14218 12.619 3.48601
125 2 0.165384 -1.98974 6.99993 4.57445
8 4 1.22631 -4.26671 6.76222 3.73551
182 2 0.205971 -8.12054 12.9739 6.03507
129 2 0.168968 -1.2954 7.51041 0.419804
145 2 0.183934 0.631481 6.9661 3.60723
13 4 1.6065 0.118628 13.1277 1.67198
66 1 -0.653165 -1.67042 12.9074 8.42454
219 3 -0.854488 -1.71791 9.95377 3.06235
134 2 0.148293 -1.75664 11.9321 7.76925
158 2 0.165553 0.993007 8.89788 1.77223
131 2 0.15563 -0.142762 7.92931 1.96719
362 3 -0.867751 0.596898 11.8615 0.775713
74 1 -0.668866 1.89769 9.52357 2.11074
223 3 -0.76074 0.969474 9.09237 7.12089
217 3 -0.843431 3.04915 7.17502 2.68455
220 3 -0.803996 -0.738504 12.3366 3.07898
224 3 -0.77192 0.701414 12.1292 7.10398
157 2 0.182695 1.80617 9.66023 3.22716
130 2 0.13458 -1.59757 6.68443 2.1507
221 3 -0.791231 2.71874 6.91391 7.58457
222 3 -0.80858 0.00230289 10.5955 4.93004
31 4 1.35297 -1.15535 11.1395 3.84275
33 4 1.21632 1.97647 8.25555 8.10396
34 4 1.25876 0.99426 10.6393 6.21794
64 1 -0.660108 -1.2099 7.6067 1.59131
101 2 0.0170599 1.45244 9.53195 0.202146
103 2 -0.0298052 -2.86574 10.2104 14.9782
229 3 -0.773153 -2.90834 12.2382 16.5234
272 4 1.00634 -6.03197 12.5386 13.5116
273 4 1.24296 -6.49515 11.0255 16.2904
274 2 -0.0169505 -5.4634 11.3637 12.386
132 2 0.15426 -5.5311 10.9052 10.291
277 3 -0.848553 -5.11304 11.0572 17.0834
278 3 -0.80536 -6.31971 11.7003 14.8802
286 1 -0.678629 -3.80669 9.93403 9.72685
359 2 0.198282 -5.3109 8.77913 17.0191
294 2 0.145729 -4.39644 9.47472 10.5784
299 2 -0.0188712 -2.44134 8.19055 13.3957
352 2 0.159021 -6.28524 12.5746 11.0557
65 1 -0.644127 -6.49918 11.4345 10.7001
292 2 0.126588 -4.08782 10.9403 9.42557
293 2 0.180299 -2.64124 9.93811 9.85613
327 2 0.223098 -4.29626 13.3379 15.1901
349 2 -0.00676444 -5.87009 12.423 9.13522
298 2 -0.0160688 -2.2759 7.26307 15.8797
296 4 0.629778 -2.71559 6.84068 14.3384
266 3 -0.852812 2.49758 9.55032 14.7769
263 3 -0.825126 1.82054 9.87656 10.9232
29 4 0.949111 3.57433 6.85827 12.6239
36 4 1.2419 -1.90651 11.4386 15.5889
102 2 0.00128254 1.06735 7.77451 9.51287
24 4 1.07714 3.75894 7.51639 16.664
135 2 0.23751 -1.58829 12.7569 9.52642
160 2 0.148888 -0.307209 7.41482 10.4762
162 2 0.154792 -1.56728 8.72088 10.987
228 3 -0.807178 -1.18766 12.1756 14.2618
226 3 -0.874605 2.25729 7.35832 13.2277
227 3 -0.810849 -0.631239 10.7535 16.3277
231 3 -0.768687 -0.449842 11.0779 11.6595
161 2 0.186057 -0.592779 8.89997 9.31741
225 3 -0.818064 0.677018 7.37376 15.4066
19 4 1.32041 -0.518542 12.4638 12.8059
32 4 1.27501 0.72855 11.2846 17.0806
35 4 1.44316 1.44854 8.37386 14.2088
37 4 1.30226 0.392959 9.73687 11.6215
75 1 -0.657628 -0.550836 8.49568 10.3853
230 3 -0.788758 0.249525 8.98668 13.188
15 4 1.5165 7.53826 2.59256 0.360488
18 4 1.31023 7.94303 2.40549 5.32869
22 4 1.26471 6.33573 4.51543 2.41757
39 4 1.45014 10.19 2.03506 3.21477
49 4 1.01928 8.06703 5.96768 8.33882
71 1 -0.690388 5.9215 5.86672 1.17186
94 2 0.092003 8.25858 3.87723 6.04757
150 2 0.173476 6.65812 5.6693 0.316097
209 3 -0.824355 7.42508 3.56636 1.61669
232 3 -0.84886 9.69091 0.845374 2.26508
233 3 -0.859827 9.07599 2.26022 4.27062
244 3 -0.850129 6.7772 5.44552 3.72282
248 3 -0.815638 7.59322 4.63164 7.40963
250 3 -0.832017 9.08445 6.13901 5.0255
174 2 0.19446 10.2674 4.27642 6.22526
246 3 -0.783276 10.5117 3.43833 8.6453
47 4 1.20471 10.287 6.50669 0.176231
204 3 -0.88114 8.06542 1.33399 6.43124
245 3 -0.826883 11.1089 5.26273 0.651565
355 2 0.163019 12.0989 0.136798 6.06304
166 2 0.173672 11.6855 0.327779 3.70618
241 3 -0.849009 10.9735 3.27864 2.51231
234 3 -0.818804 13.2373 0.735006 0.852298
242 3 -0.860936 13.0259 3.34406 0.752279
330 2 0.170593 15.9897 1.23549 2.6081
88 2 0.0483147 14.8016 2.29232 1.68169
247 3 -0.826363 12.9505 4.66402 8.31024
334 2 0.120776 11.787 0.635573 8.27908
109 2 0.00294617 10.9159 5.80084 6.86325
335 2 0.164316 13.6718 0.735669 6.87926
243 3 -0.790565 12.7272 5.15013 2.65001
354 2 0.122108 14.8711 2.59417 6.89961
45 4 1.55949 11.8911 4.19575 1.62365
48 4 1.04726 11.9228 3.52202 7.94683
76 1 -0.670371 15.411 1.79562 6.28687
77 1 -0.671008 11.7643 1.3684 4.26297
80 1 -0.656589 11.3712 3.98577 6.16501
106 2 -0.011354 12.6421 1.98771 7.50752
329 1 -0.688867 16.0418 0.791494 1.57227
163 2 0.164324 15.9578 1.01516 6.90232
164 2 0.149744 14.678 1.38273 5.48377
165 2 0.172009 12.6136 2.03 3.87374
167 2 0.16042 11.6673 1.25436 5.37536
175 2 0.16957 11.5976 3.06897 5.35437
176 2 0.174309 12.1446 4.87616 6.07918
331 2 0.154351 16.0325 1.60402 0.753855
332 2 0.19156 16.9109 0.0640132 1.48933
107 2 0.0257311 9.57669 5.6822 9.15166
42 4 1.46897 9.85192 2.07258 9.80305
73 1 -0.672302 7.49294 5.0637 13.5667
79 1 -0.674301 7.89629 5.6357 10.2403
154 2 0.167752 7.70018 5.24357 12.5032
155 2 0.182275 8.16135 4.27983 14.0763
156 2 0.157582 7.41537 6.09269 14.236
171 2 0.222111 8.42003 4.69881 10.484
237 3 -0.868485 8.8055 2.63327 10.9105
238 3 -0.798319 8.89552 3.25342 16.7212
300 4 1.23706 10.2922 3.01612 15.8976
302 1 -0.672646 9.82433 1.77732 14.541
305 2 0.187277 10.7538 1.09285 14.5061
306 2 0.151665 9.70925 2.50448 13.6456
307 2 0.208115 8.87942 1.31893 14.9811
338 2 0.21334 9.94311 0.5855 12.4603
340 1 -0.667835 8.84454 6.25099 16.5861
350 2 0.185029 5.58966 6.13578 16.1997
360 2 0.26058 8.79446 5.12694 16.6164
310 2 0.0726389 10.5007 6.00963 12.1544
96 2 -0.00731883 7.5108 3.16251 13.0383
172 2 0.136819 6.65224 5.55854 10.0911
236 3 -0.823717 9.1258 1.0171 8.85023
342 2 0.167842 7.89073 6.7758 16.9854
21 4 1.30994 7.4527 2.16957 11.6068
341 2 0.178792 9.14595 6.64088 15.5538
173 2 0.153422 8.24919 6.63631 10.7484
315 3 -0.761631 10.8645 4.48771 14.7284
193 3 -0.805012 15.8353 1.05358 11.5541
104 2 0.188312 11.466 4.85424 10.622
110 2 -0.0283963 12.1916 3.07941 12.4648
239 3 -0.823442 13.8132 2.24626 10.3754
308 2 0.170304 10.8268 3.89263 12.0486
240 3 -0.842219 11.1378 1.44879 10.5696
279 4 1.10706 14.9659 1.15497 15.3356
40 4 1.50367 12.8759 2.23735 17.5127
281 3 -0.818879 14.1649 2.07836 16.3335
309 2 0.125927 12.6529 4.79926 12.2762
303 1 -0.653222 11.426 4.78446 11.786
301 4 0.994687 11.306 5.65126 13.831
351 2 -0.0718109 12.9626 0.522674 12.3206
316 3 -0.734911 12.9935 6.29579 14.2026
4 4 1.16666 15.062 1.19834 10.1418
44 4 0.915882 12.4965 1.87179 11.2907
314 3 -0.8112 11.4055 2.16283 16.7814
323 2 0.206687 16.9345 0.611409 16.4335
280 2 0.0574081 15.7766 2.08791 14.0095
38 4 1.3023 6.14959 12.7686 1.18737
52 4 1.32296 5.33433 10.5465 3.29639
78 1 -0.718476 5.27523 8.24351 6.54639
82 1 -0.666191 2.81248 10.6954 5.69982
111 2 -0.0104312 4.11232 11.1697 4.25048
113 2 0.0321504 4.89285 11.4897 7.2324
169 2 0.176848 5.3516 8.53583 5.43397
170 2 0.250401 6.24295 8.12879 7.09078
179 2 0.13536 2.57156 10.7124 4.53339
180 2 0.185954 3.15051 9.67908 6.04028
181 2 0.181146 3.4442 11.6011 6.2005
253 3 -0.871271 4.71025 9.30765 2.58428
254 3 -0.824339 5.69395 11.8143 2.47985
168 2 0.202005 4.57037 8.93212 7.12106
264 3 -0.799917 6.55262 10.3206 4.2221
148 2 0.208022 5.89635 6.90375 1.64802
159 2 0.183606 2.10218 10.5393 1.63183
30 4 1.36229 3.56419 8.47445 1.92092
218 3 -0.875967 3.67429 8.14197 0.323099
333 1 -0.639835 4.3206 13.1995 7.0374
261 3 -0.839932 3.06921 9.31788 8.62273
184 2 0.115318 9.55953 11.502 4.79452
177 2 0.207185 9.9618 9.28021 4.08684
183 2 0.191149 8.4716 13.1024 4.27265
112 2 0.0216449 7.01419 12.4628 6.08792
178 2 0.214497 11.1677 9.06151 2.52726
252 3 -0.830467 9.63731 7.58938 1.12497
256 3 -0.801552 7.90562 9.55909 1.20219
259 3 -0.853013 9.9578 8.3181 6.30127
251 3 -0.850462 8.08079 7.83758 3.31894
50 4 1.27979 10.3497 6.91331 5.66965
258 3 -0.84869 7.85887 7.5359 7.99754
265 3 -0.857534 8.04263 10.0133 6.75495
249 3 -0.818482 11.5775 6.97507 4.75861
51 4 1.39555 8.79223 8.58454 2.14688
54 4 1.37741 8.79307 8.8348 7.44598
56 4 1.0107 7.5425 10.8696 5.51062
81 1 -0.658427 10.1823 9.6113 2.98523
83 1 -0.660693 8.70103 12.4307 5.15269
105 2 0.0199579 6.75268 7.43999 5.54246
361 2 0.158371 10.2004 10.8303 2.84256
288 2 0.0777249 11.2285 8.72315 8.44106
46 4 1.28394 7.69485 6.65344 4.30803
43 4 1.2912 5.11319 12.3819 13.4127
55 4 1.46447 3.32671 10.0033 10.0368
57 4 1.30056 3.02196 11.1175 15.2523
72 1 -0.682621 5.65993 7.28503 16.0856
84 1 -0.68954 4.51095 11.0025 16.5045
108 2 0.0869031 4.09531 8.14723 11.5736
153 2 0.157185 6.05995 7.86001 17.072
185 2 0.232239 5.46944 11.0403 15.9102
282 3 -0.844389 6.01266 13.0019 14.5723
189 2 0.173252 6.13793 7.90574 12.837
262 3 -0.807702 3.60153 11.6243 9.62919
267 3 -0.828494 3.73593 11.9081 13.9306
268 3 -0.832268 1.86588 11.8807 15.95
270 3 -0.806817 4.6543 9.36272 10.7536
271 3 -0.818406 5.71071 11.1653 12.561
356 2 0.24778 1.89568 11.8205 12.3556
151 2 0.0736068 4.36316 8.30576 15.2042
186 2 0.21799 4.34199 10.0317 17.0483
235 3 -0.845325 6.09628 13.0853 9.2481
187 2 0.227897 4.39083 11.8648 17.1771
152 2 0.169626 6.43047 7.3806 15.2863
336 1 -0.658874 1.37268 12.6808 12.8839
337 2 0.242037 1.4991 12.6623 13.9952
58 4 1.27407 6.26257 9.98518 11.6855
41 4 1.09252 4.72602 12.341 8.8912
269 3 -0.772054 7.55925 10.2661 10.763
346 2 0.172946 6.82157 8.97278 16.0866
358 2 0.201119 12.4424 7.05527 16.6731
260 3 -0.814566 9.68496 9.40388 9.00226
275 2 -0.0220965 10.4499 9.34932 15.9902
255 3 -0.827377 9.40236 11.6031 17.0792
345 2 0.200313 6.9162 10.5918 15.2121
343 1 -0.686923 7.44275 9.90782 15.8821
85 1 -0.652873 6.94694 8.73908 12.8783
357 2 0.159728 10.9759 7.70532 15.4928
188 2 0.166204 7.8979 8.43209 12.2605
304 1 -0.665124 9.98656 7.28789 13.8396
311 2 0.135637 9.47049 7.84156 14.7153
12 4 1.00844 9.16022 10.4264 10.0071
90 2 0.0236814 9.50473 12.0718 9.3304
133 2 0.0710941 10.1597 10.4829 11.8393
339 1 -0.667771 11.5894 7.79214 16.5883
313 2 0.137235 10.7207 8.01071 13.3792
344 2 0.131589 8.52072 9.70742 15.5509
190 2 0.179466 7.10002 9.17091 14.0221
53 4 1.25854 7.94132 10.906 17.4895
257 3 -0.793986 6.7259 12.1451 17.5782
312 2 0.157759 9.19242 6.98033 13.078
ITEM: TIMESTEP
100
ITEM: NUMBER OF ATOMS
362
ITEM: BOX BOUNDS xy xz yz pp pp pp
-8.3652359999999994e+00 1.7168294600000003e+01 -8.3652359999999994e+00
0.0000000000000000e+00 1.3430600000000000e+01 3.0439000000000001e-02
0.0000000000000000e+00 1.7586700000000000e+01 3.0270000000000002e-01
ITEM: ATOMS id type q x y z
2 4 1.0812 -0.486517 2.79973 5.35835
7 4 0.726798 -1.54206 3.6864 2.44114
60 1 -0.641758 -0.416825 4.59845 6.32545
69 1 -0.64248 -0.00573698 4.06802 1.30818
287 2 -0.00585023 -1.92482 5.37736 7.32235
146 2 0.203542 0.521931 5.3685 4.67492
118 2 0.170155 -1.26887 5.30019 5.77241
119 2 0.173174 0.606062 5.12262 6.49586
70 1 -0.661497 1.05674 5.85421 3.75057
142 2 0.123324 -0.448396 3.3457 0.459407
143 2 0.160448 1.03305 3.82082 1.73133
144 2 0.107566 -0.423836 5.26777 1.37179
147 2 0.166437 0.702741 5.2443 2.8179
191 3 -0.751468 0.882235 2.05704 5.58558
194 3 -0.78692 -1.01015 3.29531 3.86241
116 2 0.173222 1.96437 0.924799 2.0864
122 2 0.189545 1.27947 3.96403 7.02696
117 2 0.110061 -0.917802 3.96418 7.25915
283 4 0.936667 -3.1637 5.73221 8.48522
123 2 0.142547 -2.68759 5.32445 4.591
62 1 -0.697003 -2.7439 6.49365 4.92998
121 2 0.181324 2.39119 2.97123 8.3794
26 4 1.30722 3.93761 6.65889 6.62624
149 2 0.196865 4.54003 5.25177 1.0374
61 1 -0.672999 2.31337 3.47519 7.35869
25 4 1.2282 5.84104 4.26925 7.33178
192 3 -0.827454 3.07581 0.66503 6.94349
93 2 0.10579 3.66164 4.588 3.01508
201 3 -0.822012 7.61451 1.08323 0.927736
200 3 -0.894294 3.84758 2.53346 5.07227
23 4 1.09234 2.88429 5.99202 3.71385
16 4 1.36997 8.40953 0.341758 7.64021
120 2 0.241115 3.14171 4.19205 7.14993
210 3 -0.858798 5.35493 3.47274 8.58321
199 3 -0.822187 4.51974 0.866125 3.16337
208 3 -0.805956 4.73579 3.51442 2.74635
211 3 -0.800367 3.35929 6.25622 5.14694
203 3 -0.833952 6.52223 2.35301 4.63213
95 2 0.0524565 5.79815 3.18699 6.07859
5 4 1.24716 2.69799 2.04454 6.12919
14 4 1.45536 4.75842 2.3012 3.90906
212 3 -0.875735 4.8248 5.39986 7.09668
3 4 0.930286 3.51261 0.14489 8.34448
6 4 1.16967 0.253528 1.65911 12.0881
9 4 1.04876 1.11795 4.45224 13.3467
28 4 1.23488 1.36863 6.02971 15.9377
63 1 -0.637095 -0.02357 5.73062 12.4712
68 1 -0.683187 0.974288 1.7678 10.2939
98 2 0.0122916 0.788741 5.49775 17.457
126 2 0.149195 -0.702053 4.94877 11.9028
127 2 0.123195 0.939895 6.10722 11.8583
139 2 0.134331 0.652287 2.68372 9.71116
140 2 0.147814 0.772908 0.848024 9.63907
195 3 -0.802298 0.325854 3.09314 12.9052
214 3 -0.821205 1.13404 4.88115 14.8546
297 2 0.00924126 -1.58348 5.54135 13.6845
324 2 0.172612 0.0345147 2.23028 15.8899
141 2 0.18516 2.10313 1.77312 10.6881
86 2 -0.0273307 -0.817517 1.98395 9.34019
348 2 -0.0396019 -2.34613 5.55465 9.92474
321 1 -0.673967 -0.321368 1.22025 15.5234
322 2 0.261771 0.241462 0.871118 14.6043
276 3 -0.783748 1.26728 0.535295 12.9514
216 3 -0.852231 4.63633 6.31192 13.5292
97 2 -0.00947748 5.09352 3.92856 12.3506
326 2 0.155894 4.57471 0.359272 13.1416
325 1 -0.674727 4.02469 0.466307 14.1585
137 2 0.147156 2.85865 3.71899 10.1837
91 2 -0.0141698 3.54007 3.45836 17.0118
138 2 0.123226 4.4178 4.75359 10.9033
99 2 -0.0383613 3.06955 5.84739 11.4166
202 3 -0.819223 3.87732 1.27808 9.39273
215 3 -0.810125 2.9347 6.20853 16.3811
206 3 -0.806322 6.13217 2.3813 10.7687
207 3 -0.780909 7.44014 0.598491 12.0278
328 2 0.136173 3.4861 1.51877 14.3596
213 3 -0.837868 5.1498 3.91262 15.0018
89 2 -0.00598571 2.70944 4.32986 12.7261
17 4 1.25462 4.85386 2.62985 9.78188
20 4 1.0318 4.96193 3.0966 16.2594
27 4 1.01367 5.35406 4.90973 13.7749
205 3 -0.830603 6.17678 3.08782 17.1808
67 1 -0.660494 3.59117 3.93633 11.0798
136 2 0.124142 3.81979 3.02116 11.8359
92 2 0.0253976 4.59801 1.49561 15.7914
128 2 0.162078 -0.563348 6.6604 12.9907
135 2 0.229559 6.55905 0.586029 9.19788
296 4 0.663656 -2.61281 6.78195 14.2107
10 4 1.25917 -2.588 8.99105 1.92524
196 3 -0.754742 -3.86567 8.04807 2.81073
197 3 -0.83168 -3.11504 9.66762 0.413864
198 3 -0.789979 -4.15162 11.8236 1.58162
285 1 -0.647692 -3.45733 9.39271 6.64264
289 2 0.168374 -4.4023 9.05246 5.98155
290 2 0.202639 -2.49523 8.96103 6.34747
291 2 0.124418 -3.43788 10.5715 6.89277
317 1 -0.67509 -4.4797 11.5095 4.45512
318 2 0.168022 -4.19553 12.1774 5.35386
319 2 0.191396 -3.79635 10.5811 4.39457
320 2 0.151087 -5.62451 11.3014 4.3458
347 2 -0.0216019 -3.52571 12.206 8.07099
100 2 0.0130424 -2.51392 11.9842 4.64234
1 4 1.19453 -4.59773 12.6419 2.83483
115 2 0.224062 -6.69599 12.3466 1.31897
284 4 0.798281 -4.26315 8.72519 8.22997
295 3 -0.776733 -3.70526 7.20586 8.33005
11 4 1.46241 -3.88933 10.9778 0.144893
59 1 -0.668365 -6.49974 12.9292 2.28592
114 2 0.164282 -7.31087 12.7359 3.06673
125 2 0.177853 -1.8433 7.08239 4.68189
101 2 -0.00279976 1.54998 9.59283 0.146626
182 2 0.188516 -7.84106 12.7306 5.80315
129 2 0.165955 -1.05267 7.67866 0.524438
145 2 0.17064 0.778552 6.9955 3.6386
13 4 1.60301 0.114564 13.0731 1.69979
66 1 -0.667687 -1.70555 13.0137 8.30736
219 3 -0.818722 -1.8011 10.0245 2.99476
134 2 0.190851 -1.68346 11.9428 8.68965
158 2 0.161389 0.883421 9.07137 1.54605
131 2 0.170269 -0.396215 8.07552 2.25583
362 3 -0.821399 0.383795 11.9899 0.574808
74 1 -0.670437 1.80857 9.47145 2.08214
223 3 -0.78789 0.795382 9.42899 7.17079
217 3 -0.798577 3.23067 7.25383 2.79296
220 3 -0.867671 -0.715735 12.3553 2.88043
224 3 -0.78584 0.58279 12.0781 7.17528
157 2 0.183381 1.7188 9.49364 3.23812
8 4 1.22943 -4.22031 6.8451 3.83548
221 3 -0.78812 2.57207 7.11117 7.57612
222 3 -0.825738 -0.201333 10.6908 4.92584
31 4 1.35562 -1.2279 11.2593 3.75962
33 4 1.18642 1.87697 8.43233 8.20509
34 4 1.33494 0.790492 10.6669 6.21208
64 1 -0.683999 -1.29105 7.65768 1.63457
124 2 0.176064 -3.19408 6.72797 5.97862
353 2 0.149408 -2.35148 13.2013 7.34971
130 2 0.157358 -1.72856 6.71276 1.98453
103 2 -0.0368359 -2.45879 10.0956 14.724
229 3 -0.792458 -2.94874 12.1837 16.2821
272 4 0.994414 -5.95316 12.7464 13.5975
273 4 1.24455 -6.59588 10.9724 16.271
274 2 -0.00733486 -5.43712 11.8677 12.2072
132 2 0.153183 -5.40009 10.666 10.3177
277 3 -0.837108 -5.34659 10.9986 17.24
278 3 -0.800661 -6.36753 11.7858 14.8931
286 1 -0.666886 -3.57824 9.93644 9.67653
359 2 0.198547 -5.37609 8.92129 16.8986
294 2 0.152071 -3.91447 9.72808 10.7064
299 2 -0.0186802 -2.23525 8.21356 13.4928
352 2 0.169502 -6.33179 12.2306 10.8397
65 1 -0.647978 -6.42504 11.175 10.6325
292 2 0.11617 -3.89285 11.0105 9.38017
293 2 0.182848 -2.45434 9.72067 9.62857
327 2 0.274061 -3.7697 13.0821 15.0119
349 2 -0.0239851 -5.98405 12.1965 8.97096
298 2 -0.0188644 -2.14981 7.06368 15.7686
75 1 -0.679556 -0.639433 8.35309 10.5268
266 3 -0.869904 2.51769 9.57814 14.8806
263 3 -0.818845 2.05886 9.74701 10.9596
29 4 0.955093 3.58766 6.96073 12.5721
36 4 1.2639 -1.83396 11.3953 15.4875
102 2 -0.00122968 0.988913 7.8303 9.54547
24 4 1.11179 3.89571 7.51605 16.5427
230 3 -0.826254 0.303539 9.00771 13.1042
160 2 0.155033 -0.432757 7.24166 10.6738
162 2 0.162675 -1.67945 8.64189 10.9659
228 3 -0.793513 -1.30936 12.3531 14.2817
226 3 -0.871038 2.33411 7.50141 13.2811
227 3 -0.819497 -0.624103 10.8149 16.4077
231 3 -0.789308 -0.53007 10.9768 11.7312
161 2 0.15958 -0.671915 8.62056 9.41841
225 3 -0.825913 0.765008 7.39357 15.4834
19 4 1.28143 -0.48592 12.3746 12.779
32 4 1.2899 0.769058 11.2596 17.0506
35 4 1.45083 1.46337 8.43531 14.1679
37 4 1.25708 0.308344 9.64301 11.6124
15 4 1.55813 7.55539 2.59088 0.351491
18 4 1.34155 7.953 2.45023 5.25068
22 4 1.33339 6.45545 4.44626 2.42676
39 4 1.35839 10.2879 1.92878 3.06619
49 4 1.05353 7.89494 6.01651 8.43258
71 1 -0.669056 5.55379 5.69897 1.24336
94 2 0.0778179 8.19157 3.97322 5.92106
150 2 0.173466 6.33081 5.63445 0.37668
209 3 -0.814722 7.55688 3.7751 1.54602
232 3 -0.813876 10.0581 0.55961 2.20502
233 3 -0.822375 9.05964 2.19407 4.20403
244 3 -0.877541 6.98069 5.34682 3.60067
248 3 -0.837468 7.55634 4.76603 7.48747
250 3 -0.827785 9.05501 6.00305 5.02483
174 2 0.176618 10.2134 4.04713 6.57068
333 1 -0.654538 12.5758 0.134232 7.01049
331 2 0.148937 16.0252 1.37743 0.989332
204 3 -0.842109 8.14733 1.41352 6.41086
245 3 -0.768318 11.0206 5.26996 0.760204
46 4 1.29609 7.68847 6.53483 4.29592
166 2 0.197431 12.0241 0.470232 3.58
241 3 -0.820895 10.8566 3.29069 2.3391
234 3 -0.842901 13.1523 0.594977 0.796381
242 3 -0.860995 13.0029 3.34506 0.717433
330 2 0.167199 15.893 1.19002 2.86198
88 2 0.0289653 14.8426 2.34797 1.71024
247 3 -0.832119 12.9432 4.66538 8.31451
334 2 0.0957881 11.9038 0.802702 8.52388
109 2 0.00465307 10.9211 5.71038 6.88945
335 2 0.153129 13.5141 0.786433 6.62117
243 3 -0.738488 12.6914 5.21588 2.70161
354 2 0.137649 14.2828 2.55928 6.37702
45 4 1.54787 11.8862 4.18455 1.5748
48 4 1.07385 11.9712 3.53068 7.97444
76 1 -0.688623 15.157 1.90627 6.07558
77 1 -0.671223 11.7518 1.37494 4.24013
80 1 -0.686387 11.3357 3.87489 6.22908
106 2 -0.00463575 12.7816 2.03708 7.45875
329 1 -0.66694 15.8713 0.672183 1.81898
163 2 0.153772 15.4252 1.2675 6.94271
164 2 0.157313 14.9752 1.27496 5.16536
165 2 0.154134 12.5678 2.17302 4.36162
167 2 0.161076 11.1744 1.05419 5.23716
175 2 0.171348 11.4876 2.91239 5.51187
176 2 0.180688 11.687 4.80231 5.68443
355 2 0.174606 11.7784 0.221606 6.2255
87 2 0.0793072 14.1618 4.53877 2.58915
183 2 0.188549 16.9833 0.0839145 4.19535
107 2 0.0410976 9.53178 5.72815 8.97689
42 4 1.48059 9.94665 2.19077 9.86848
73 1 -0.685322 7.34572 5.02796 13.6454
79 1 -0.672747 8.15549 5.63867 10.3779
154 2 0.153162 7.71149 5.03424 12.5586
155 2 0.194994 7.87633 4.35073 14.322
156 2 0.166883 7.35646 6.09522 14.0565
171 2 0.248798 8.38622 4.53452 10.6548
237 3 -0.83188 8.7073 2.75795 11.01
238 3 -0.829531 8.82177 3.27627 16.8175
300 4 1.2933 10.1718 3.08083 15.9092
302 1 -0.677358 9.70279 1.80521 14.5212
305 2 0.222336 10.4414 0.990871 14.9618
306 2 0.154699 10.0481 2.40557 13.6202
307 2 0.202289 8.62881 1.61442 14.6393
338 2 0.221102 10.0611 0.599292 12.6762
340 1 -0.679065 9.00712 6.22797 16.5366
350 2 0.176925 5.79754 6.25597 16.2103
360 2 0.28323 8.81861 5.10279 16.6998
310 2 0.0870416 10.3112 5.67684 12.0432
96 2 -0.0134731 7.35322 3.13591 13.098
172 2 0.119255 6.93795 5.85273 10.4891
236 3 -0.780536 9.27439 1.05484 8.87506
280 2 0.0594723 15.8311 2.35341 14.2767
21 4 1.24529 7.43415 2.20766 11.7146
341 2 0.195138 9.33533 6.50694 15.5297
173 2 0.158593 8.84747 6.34495 10.9628
315 3 -0.763972 10.782 4.47648 14.8682
193 3 -0.786501 15.7565 1.1046 11.7582
104 2 0.224869 11.4573 4.37266 10.7622
110 2 -0.0326791 12.3942 3.04881 12.5978
239 3 -0.809237 13.7135 2.34629 10.2137
308 2 0.16397 10.7974 3.55417 12.2863
240 3 -0.819129 11.1226 1.4705 10.7359
279 4 1.09859 14.9463 1.12231 15.2579
40 4 1.50999 12.8265 2.213 17.423
281 3 -0.821078 13.9929 1.98055 16.2217
309 2 0.0916933 12.6545 4.70546 12.4446
303 1 -0.639813 11.2917 4.49898 11.836
301 4 0.939026 11.3528 5.54494 13.8494
351 2 -0.0716956 13.1239 0.545985 12.3826
316 3 -0.746438 13.1914 6.37118 14.1087
4 4 1.07907 15.142 1.30194 10.2657
44 4 0.904011 12.5969 1.88678 11.3152
314 3 -0.832409 11.4808 2.42501 16.6005
323 2 0.194669 16.7617 0.371053 16.4574
246 3 -0.830381 10.646 3.31732 8.9504
312 2 0.150161 9.24453 6.53525 13.4325
38 4 1.34836 5.92541 12.7499 1.31918
52 4 1.30878 5.49786 10.5677 3.47686
78 1 -0.709542 5.11493 8.14962 6.3116
82 1 -0.665631 2.58434 10.8342 5.57512
111 2 -0.0059569 4.37785 11.0514 4.66392
113 2 0.0335983 4.89181 11.6746 7.08897
169 2 0.193054 5.16001 8.31456 5.23552
170 2 0.23264 6.09563 7.87053 6.86251
179 2 0.152956 2.5821 11.0729 4.44503
180 2 0.174258 2.9965 9.8415 5.77142
181 2 0.175771 3.21515 11.6837 6.20409
253 3 -0.82536 4.69826 9.50139 2.61898
254 3 -0.84758 5.70222 11.8897 2.67441
168 2 0.198463 4.60942 8.99805 6.90342
264 3 -0.835212 6.72623 10.2349 4.35675
148 2 0.215881 5.58051 6.73641 1.6934
159 2 0.143316 2.22295 10.4945 1.60684
30 4 1.26673 3.48668 8.58147 1.89767
218 3 -0.840078 3.6015 8.06192 0.22727
361 2 0.181077 10.1651 10.963 2.5646
261 3 -0.834989 3.14169 9.25809 8.70396
184 2 0.127456 9.51605 11.5061 4.43777
177 2 0.160872 9.93297 9.76462 4.03764
332 2 0.186463 8.28825 12.9641 1.70456
112 2 0.0137838 7.10738 12.4959 5.91697
178 2 0.239209 11.1151 9.34895 2.60012
252 3 -0.785565 9.67152 7.62301 1.24191
256 3 -0.774653 7.87104 9.57315 0.979542
259 3 -0.868046 9.90407 8.15583 6.41409
251 3 -0.782719 7.94573 7.77955 3.23362
50 4 1.24871 10.2832 6.78945 5.71686
258 3 -0.870754 7.7219 7.48665 7.82155
265 3 -0.866085 7.96225 10.0541 6.87325
249 3 -0.800477 11.5961 7.01935 4.74342
51 4 1.33419 8.82737 8.71461 2.14813
54 4 1.38497 8.68895 8.71852 7.39068
56 4 1.03327 7.63128 10.8645 5.53828
81 1 -0.684403 10.1383 9.8431 2.89571
83 1 -0.677201 8.77954 12.3377 4.90108
105 2 0.00739272 6.53213 7.00086 5.45133
257 3 -0.831953 6.67677 11.8451 0.124185
288 2 0.100175 11.1935 8.85062 8.44541
47 4 1.20554 10.2595 6.60056 0.173754
43 4 1.32433 5.20474 12.3827 13.4378
55 4 1.4195 3.38273 10.0084 10.0669
57 4 1.26721 3.07495 11.0745 15.3087
72 1 -0.68751 5.72872 7.41229 15.9289
84 1 -0.690332 4.28024 10.9376 16.6965
108 2 0.0785611 4.25863 8.10045 11.4684
153 2 0.146345 6.23713 8.0039 16.8465
185 2 0.184714 5.43471 10.639 16.2756
282 3 -0.858193 6.13963 12.9399 14.5313
189 2 0.187983 5.93832 7.90803 12.9778
262 3 -0.792308 3.82175 11.6564 9.75909
267 3 -0.832055 3.87671 11.872 14.0847
268 3 -0.814976 1.81936 12.0251 16.033
270 3 -0.772196 4.99605 9.30772 10.7323
271 3 -0.805669 5.84697 11.2194 12.5516
356 2 0.218154 1.84518 11.8485 12.5146
151 2 0.0745026 4.26928 8.4984 15.1294
186 2 0.21822 3.97467 10.0549 17.2227
235 3 -0.756215 6.33658 13.0461 9.44178
187 2 0.220168 4.17153 11.9206 17.2983
152 2 0.175066 6.12018 7.7804 14.8871
336 1 -0.665801 1.38907 12.6963 13.0743
337 2 0.245344 1.48307 12.4837 14.1983
58 4 1.34596 6.32306 9.99486 11.6133
53 4 1.3288 7.7773 11.0052 17.4062
269 3 -0.784894 7.69873 10.1421 10.8061
346 2 0.148454 6.65733 9.22833 15.8654
358 2 0.19468 12.4971 7.19385 16.662
260 3 -0.802514 9.67138 9.06244 9.01681
275 2 -0.0235248 10.4265 9.293 15.8945
255 3 -0.827193 9.3229 11.4357 17.106
345 2 0.239999 6.80271 11.0803 15.2005
343 1 -0.691473 7.33765 10.1962 15.6719
85 1 -0.667292 6.73511 8.66233 12.9034
357 2 0.15889 11.0457 7.63476 15.4704
188 2 0.172864 7.71643 8.27375 12.4068
304 1 -0.67377 10.134 7.18378 13.7884
311 2 0.141857 9.79424 7.96216 14.4802
12 4 1.0245 9.11815 10.2324 9.87809
90 2 0.00448511 9.45726 11.8734 9.34899
133 2 0.102053 10.1224 10.3682 11.7559
339 1 -0.667531 11.5552 7.81198 16.6294
313 2 0.143407 10.7533 7.62962 12.9396
344 2 0.148109 8.27531 9.91513 15.0954
190 2 0.179025 6.98533 9.14027 13.9422
342 2 0.169709 8.19747 6.92094 16.8428
41 4 1.00431 4.69312 12.4937 8.80882
ITEM: TIMESTEP
200
ITEM: NUMBER OF ATOMS
362
ITEM: BOX BOUNDS xy xz yz pp pp pp
-8.3484719999999992e+00 1.7133889199999999e+01 -8.3484719999999992e+00
0.0000000000000000e+00 1.3430600000000000e+01 3.0377999999999999e-02
0.0000000000000000e+00 1.7586700000000000e+01 3.0270000000000002e-01
ITEM: ATOMS id type q x y z
2 4 1.01566 -0.547653 2.85194 5.3561
7 4 0.744043 -1.4847 3.66245 2.41948
60 1 -0.659835 -0.406678 4.68312 6.37621
69 1 -0.640951 -0.0321528 3.98077 1.25839
287 2 -0.00525744 -1.60713 5.57581 7.65307
146 2 0.21043 0.478943 5.41071 4.71099
118 2 0.186956 -1.20551 5.34148 5.87393
119 2 0.187364 0.468828 5.23443 6.72802
70 1 -0.652866 0.961347 5.83282 3.68584
142 2 0.127645 -0.452396 3.20646 0.464247
143 2 0.154267 1.1112 3.82964 1.47556
144 2 0.0893767 -0.489858 5.26662 1.24125
147 2 0.168338 0.589121 5.13256 2.75203
191 3 -0.744046 1.05844 1.98595 5.38635
194 3 -0.785607 -1.03071 3.3288 3.90248
116 2 0.183126 1.85078 0.835001 2.32446
122 2 0.166372 1.31073 3.91019 7.1003