ITEM: TIMESTEP
0
ITEM: NUMBER OF ATOMS
362
ITEM: BOX BOUNDS xy xz yz pp pp pp
-8.3819999999999997e+00 1.7202700000000000e+01 -8.3819999999999997e+00
0.0000000000000000e+00 1.3430600000000000e+01 3.0499999999999999e-02
0.0000000000000000e+00 1.7586700000000000e+01 3.0270000000000002e-01
ITEM: ATOMS id type q x y z
13 4 1.61606 8.2712 0.19202 1.88771
2 4 1.00561 -0.718481 2.84143 5.18303
5 4 1.24999 2.34591 2.21189 6.26712
7 4 0.701888 -0.979418 3.58833 1.89015
14 4 1.45032 5.08449 2.60093 4.27172
23 4 1.05902 2.7361 6.07842 4.25897
59 1 -0.655631 2.33047 0.775972 2.31837
60 1 -0.659811 -1.0628 4.29588 6.37875
61 1 -0.668494 2.16161 3.6405 7.4818
203 3 -0.82584 6.76596 2.69293 5.17201
69 1 -0.64729 -0.0320903 5.23091 1.54608
87 2 0.0634041 -1.75714 5.28722 1.36216
353 2 0.176175 6.06163 0.462464 8.07912
93 2 0.0982878 3.67766 4.63941 3.98308
62 1 -0.663717 -2.25006 6.49531 4.29391
116 2 0.177456 2.7182 1.6908 1.75852
205 3 -0.822777 5.77016 3.26286 0.217016
118 2 0.187264 -1.51003 5.11289 5.69635
119 2 0.150886 -0.123942 4.61601 6.98009
120 2 0.159986 1.22852 4.35649 7.31115
121 2 0.223258 3.10974 4.14544 7.30139
210 3 -0.847622 5.14512 3.70342 8.65662
123 2 0.200074 -1.84927 5.61705 3.64886
70 1 -0.64536 0.823819 6.11659 4.52648
3 4 0.919338 3.57731 0.163203 8.46379
143 2 0.024421 0.671583 3.67568 1.04813
144 2 0.177301 0.286658 5.48442 2.67177
147 2 0.157094 0.719618 4.93966 4.40109
124 2 0.167033 -2.50781 6.25169 5.40361
191 3 -0.747901 0.926599 2.22165 5.54334
192 3 -0.748975 2.59452 0.823644 7.33836
194 3 -0.739965 -0.851283 3.30052 3.47589
199 3 -0.785583 4.88067 1.32777 3.41251
200 3 -0.79938 3.75384 2.52468 5.31109
122 2 0.183147 2.15981 3.07229 8.46362
287 2 -0.0130715 -1.53689 5.05692 8.12881
208 3 -0.814207 4.8629 3.82225 3.31991
201 3 -0.821077 7.37848 1.43347 1.11695
350 2 0.036706 4.60699 5.29752 0.407891
142 2 0.169012 0.522076 5.88508 0.884789
117 2 0.128798 -1.92102 3.59256 6.89506
114 2 0.20787 1.62059 0.967792 3.12134
283 4 0.88463 -3.13104 5.55332 8.59305
146 2 0.208555 0.741493 6.45673 5.62817
6 4 1.26832 0.487266 1.11515 12.011
9 4 1.00909 0.866049 4.14278 13.1745
17 4 1.33828 4.90392 2.66835 9.88012
20 4 0.953156 5.11197 2.92644 16.5386
24 4 1.1031 3.50366 6.55044 17.0732
27 4 1.03183 5.39806 4.53512 13.7713
28 4 1.21656 0.856611 5.65285 15.862
276 3 -0.821965 1.50384 0.31462 12.9624
63 1 -0.701933 0.525145 5.44986 11.8292
67 1 -0.683089 3.69436 3.31959 11.2842
68 1 -0.690951 1.2819 1.46691 10.297
89 2 0.0080118 2.5477 4.08689 12.7347
91 2 -0.0338515 3.47757 2.49122 16.7218
92 2 0.0924702 5.69442 1.32805 16.4251
97 2 -0.00528164 5.29312 3.36505 12.484
98 2 -0.0316681 -0.182304 5.30967 17.1602
99 2 -0.0367979 2.44966 5.75154 11.4986
126 2 0.139834 -0.65333 5.39692 11.9921
127 2 0.132721 0.867912 4.96983 10.919
348 2 -0.0166345 -3.12031 5.42217 10.3379
136 2 0.147659 3.83154 2.6428 12.1249
137 2 0.140998 2.58252 3.32088 10.9177
138 2 0.133128 4.21834 4.4021 11.3426
139 2 0.150583 1.51729 2.55671 10.5201
140 2 0.177698 1.09942 1.32632 9.20088
141 2 0.181863 2.20484 0.824353 10.5953
195 3 -0.813744 0.364616 2.61806 12.6787
202 3 -0.810872 4.13464 1.30948 9.36857
297 2 -0.0219933 -2.25862 6.18492 14.5351
206 3 -0.857662 6.24714 2.35543 10.6429
328 2 0.00804675 3.82703 0.780656 14.5123
213 3 -0.826269 5.26576 3.7491 15.1956
214 3 -0.825451 0.627175 4.58472 14.6974
215 3 -0.817751 2.34994 5.62201 16.4639
216 3 -0.86448 4.54994 5.68231 13.2192
29 4 0.969633 3.40745 6.59971 12.5541
207 3 -0.850122 7.95558 0.863739 12.0285
128 2 0.184824 0.896613 6.50404 11.9649
86 2 -0.0192117 -0.49263 1.65843 9.45784
324 2 0.208497 0.0547973 2.01727 14.8868
327 2 0.172967 4.18484 0.593766 12.0488
320 2 0.166148 -5.69059 11.9136 4.68193
347 2 -0.0306757 -3.54245 12.3198 7.90384
10 4 1.2628 -2.52924 9.06931 1.53585
26 4 1.30993 3.97834 7.01954 6.93267
101 2 -0.00586738 1.15201 9.7333 0.431807
8 4 1.32969 -3.8836 6.72778 3.31409
159 2 0.169708 1.25616 10.0801 2.12081
362 3 -0.853919 0.135228 12.1732 0.813076
31 4 1.31371 -1.20531 11.0119 3.67187
33 4 1.21432 1.64207 8.42294 8.23908
34 4 1.34585 0.667836 10.3831 6.10715
64 1 -0.669884 -1.44033 7.8865 0.495527
66 1 -0.66601 -1.6311 12.7803 8.42307
291 2 0.160283 -4.11127 9.76404 5.63741
74 1 -0.657379 1.08815 8.94539 2.24808
100 2 -0.000853407 -2.66245 11.3095 4.47563
319 2 0.162937 -4.29413 10.8767 4.08408
30 4 1.23961 2.83784 8.27858 1.99391
318 2 0.166952 -3.98747 12.2829 5.27958
130 2 0.169419 -0.872498 6.93295 0.811709
221 3 -0.78048 2.50625 7.07324 7.94266
134 2 0.154268 -1.80785 11.7535 7.98518
284 4 0.780274 -3.90332 8.58693 7.6585
317 1 -0.682004 -4.56223 11.9174 4.43288
157 2 0.21595 0.845566 8.68507 3.34705
158 2 0.180415 0.242197 8.49022 1.52818
196 3 -0.805565 -3.54541 7.89304 2.37742
197 3 -0.855207 -3.40763 10.0525 0.485346
198 3 -0.81476 -3.73198 12.4223 1.62684
16 4 1.3198 0.128266 13.2441 7.70921
217 3 -0.825913 2.88616 7.13117 3.07617
218 3 -0.81411 2.98557 7.42366 0.267035
219 3 -0.823334 -1.53387 9.90207 2.57696
220 3 -0.836263 -0.7071 12.4118 3.13293
145 2 0.17692 0.250559 6.71559 3.73597
222 3 -0.836756 -0.193108 10.3665 4.75056
223 3 -0.813959 0.692793 9.06457 7.04599
224 3 -0.788281 0.43857 11.7738 6.90543
285 1 -0.659921 -3.19603 9.08557 6.03434
289 2 0.199163 -2.90327 8.18768 5.30963
11 4 1.40202 -3.85662 11.5912 0.224086
290 2 0.148905 -2.27 9.69321 6.43653
178 2 0.2108 -5.76921 9.3991 2.26976
125 2 0.180791 -1.70969 7.52702 4.12851
295 3 -0.772142 -3.45401 6.99183 8.14536
288 2 0.0402912 -5.57529 9.26696 8.35672
361 2 0.169488 -6.78552 10.9708 1.92431
211 3 -0.820298 3.32143 6.74893 5.54102
293 2 0.123681 -3.25778 10.6045 8.63416
1 4 1.17932 -4.35159 13.1489 2.86909
131 2 0.176926 -0.652703 8.66371 0.102752
115 2 0.172765 -6.38686 12.9883 1.56628
19 4 1.32831 -0.0537421 12.7304 12.8593
32 4 1.28724 0.462343 11.4668 17.2342
35 4 1.48851 1.44842 8.15374 14.302
36 4 1.23855 -1.81394 11.92 15.4853
37 4 1.30616 0.484648 9.74897 11.8555
75 1 -0.666462 -0.746625 9.07637 10.5764
65 1 -0.659874 -6.61808 11.092 10.8421
102 2 -0.0120836 0.589784 8.03517 9.61414
103 2 -0.00990458 -2.74984 10.7494 14.6081
286 1 -0.680566 -4.06501 9.91527 9.13312
160 2 0.155243 -0.860124 7.94931 10.8381
161 2 0.164993 -0.518289 9.32001 9.47984
162 2 0.173236 -1.70522 9.65757 10.9196
225 3 -0.785747 0.450571 7.15704 15.3329
226 3 -0.873149 2.53629 7.2554 13.573
227 3 -0.835651 -0.714832 10.9954 16.3693
228 3 -0.782009 -0.990413 12.7856 14.4584
229 3 -0.819561 -2.81472 12.7978 16.4028
230 3 -0.812779 0.496308 8.70813 12.9759
231 3 -0.780676 -0.285902 11.2521 12.4118
129 2 0.159385 -2.10776 7.88509 17.2738
299 2 -0.0026886 -3.41141 7.3625 16.0847
272 4 1.07452 -5.71369 12.788 13.7734
273 4 1.20371 -6.27618 11.1422 16.2793
274 2 0.197777 -2.9897 13.1457 13.2406
132 2 0.151597 -5.5335 11.2508 10.7725
277 3 -0.844274 -5.39237 11.931 17.3015
278 3 -0.810361 -5.91861 11.5212 14.6769
326 2 0.135111 -4.11388 11.8168 12.4717
266 3 -0.825286 2.1522 9.51157 14.9652
292 2 0.150022 -5.02205 10.4637 9.4471
294 2 0.15801 -3.62096 9.35442 10.0399
135 2 0.206555 -1.51519 12.7759 9.59133
263 3 -0.826768 1.96239 10.1994 11.1777
352 2 0.208543 -6.87141 11.2475 11.8875
325 1 -0.694354 -4.03904 12.9905 12.9082
90 2 0.116692 -7.31076 12.0927 10.0141
359 2 0.219314 -4.6687 8.76098 17.5719
349 2 -0.00903115 -5.67008 12.0864 9.39676
15 4 1.48871 7.31003 2.98866 0.755744
18 4 1.32952 8.26251 2.50525 5.75714
22 4 1.27786 6.44535 4.90828 2.88085
330 2 0.168539 14.9969 1.46061 2.43537
39 4 1.36396 10.3413 1.96282 3.22097
45 4 1.53476 12.1109 4.303 1.59821
354 2 0.142906 13.9904 2.18203 5.55238
48 4 1.01149 12.243 3.13397 7.62684
329 1 -0.678871 15.4546 0.536485 2.03148
71 1 -0.688475 5.82693 6.26471 1.64982
76 1 -0.68192 15.0508 1.58444 5.48286
77 1 -0.666386 11.6621 0.769751 3.83585
80 1 -0.682581 12.2004 3.10872 5.74697
94 2 -0.00367905 8.50109 3.7744 6.77629
331 2 0.138409 16.2894 0.687181 1.22079
106 2 -0.00669317 13.2153 1.69286 7.63511
109 2 -0.0149639 11.3269 6.64457 7.0079
335 2 0.1504 13.7958 0.434799 6.53543
150 2 0.156739 6.00505 6.15706 0.528331
163 2 0.144881 15.2042 0.840992 6.34562
164 2 0.153489 15.1351 1.08134 4.45228
165 2 0.158943 12.7494 1.23317 3.67747
167 2 0.157456 11.4622 0.527862 4.91489
174 2 0.196975 11.04 3.38091 5.67114
175 2 0.164612 12.484 2.14282 5.18137
176 2 0.188543 12.8951 3.95902 5.45729
204 3 -0.87251 8.39978 1.31863 6.71505
209 3 -0.758953 7.53125 3.89007 2.08425
232 3 -0.83983 9.62678 0.940654 2.24882
233 3 -0.790875 9.34399 2.40986 4.62025
234 3 -0.837028 13.1637 0.727513 0.245171
248 3 -0.842826 7.28087 5.25682 8.23637
241 3 -0.770836 11.1978 3.27128 2.45663
242 3 -0.872631 13.0566 3.37743 0.616931
243 3 -0.811976 13.1178 5.31223 2.57312
244 3 -0.846324 7.17031 5.73527 4.00408
245 3 -0.785337 11.1723 5.26654 0.67518
246 3 -0.830147 10.9352 2.7679 8.50783
247 3 -0.810704 13.0065 4.48467 7.98898
250 3 -0.79164 9.40571 6.64179 5.07865
149 2 0.187034 4.76576 6.42905 1.90229
49 4 1.05207 8.49404 6.24313 8.7146
25 4 1.29806 5.92032 4.68089 7.70863
212 3 -0.857828 5.04002 5.91629 7.32413
88 2 -0.0207626 15.6412 2.20243 0.983053
334 2 0.174302 12.2282 0.264941 7.80032
95 2 0.0577721 6.28675 3.75916 6.32064
4 4 1.24425 15.3703 0.759098 10.1996
21 4 1.28031 7.62549 2.30909 11.3516
323 2 0.166133 16.3572 1.03029 16.3056
42 4 1.4411 10.0519 1.86528 9.66562
44 4 1.03814 12.8018 2.31062 11.1158
73 1 -0.669318 7.25078 5.02565 13.6753
79 1 -0.659623 8.67636 6.44428 10.6191
338 2 0.235665 10.5962 0.539096 12.373
96 2 -0.0101693 7.66071 3.41934 12.7158
104 2 0.0857398 12.4161 4.08289 10.2863
110 2 0.0265459 13.0749 2.77786 12.8601
341 2 0.168323 9.48208 6.77508 15.2127
154 2 0.136818 7.3399 5.16588 12.5311
155 2 0.256203 8.21069 4.61499 14.1125
156 2 0.164366 7.08311 6.06405 14.2729
171 2 0.166632 9.0182 5.60189 11.2827
360 2 0.283777 8.91447 5.56909 16.6433
193 3 -0.767211 16.2287 0.315478 11.5329
237 3 -0.812355 8.82496 2.78745 10.421
238 3 -0.799219 8.70441 3.79233 17.1004
239 3 -0.861495 14.1043 1.63087 10.5481
240 3 -0.800633 11.3445 1.68767 10.9686
279 4 1.09076 14.5912 1.49873 14.9076
340 1 -0.671966 9.09337 6.62958 16.3262
281 3 -0.83145 13.908 2.63576 15.7615
40 4 1.49891 12.775 2.41653 17.2508
304 1 -0.672887 10.2338 6.73982 13.2702
300 4 1.30053 9.78423 3.0942 16.246
301 4 1.01831 10.9108 5.09054 13.8773
302 1 -0.660884 8.83602 1.55218 15.7931
303 1 -0.659201 13.1926 4.23512 11.629
172 2 0.136359 7.36889 6.60534 10.6002
306 2 0.172516 8.66949 1.79863 14.6896
280 2 0.0548793 15.6761 2.4323 13.8743
308 2 0.151045 12.8272 5.21561 12.0731
313 2 0.126167 10.6614 6.57809 12.1757
310 2 0.00511352 11.3933 4.27621 12.4495
314 3 -0.813379 11.2171 2.55571 16.8059
315 3 -0.790908 9.89368 4.18239 14.5555
316 3 -0.774831 12.3031 5.46576 14.7368
107 2 0.0155965 9.91019 5.50151 9.48872
358 2 0.0615487 13.1729 6.32325 17.2424
305 2 0.280934 9.45986 0.480899 15.953
309 2 0.125961 14.373 4.25602 11.4846
321 1 -0.679624 16.4572 1.18801 15.1574
236 3 -0.795759 9.48496 0.509683 9.13718
298 2 0.0699292 14.333 4.23369 16.1224
296 4 0.652062 13.6139 5.6873 15.5565
307 2 0.209324 7.86159 1.50444 16.3391
282 3 -0.808052 13.8543 0.263745 14.1939
38 4 1.2972 5.77021 12.7351 0.928973
181 2 0.169769 3.31307 10.4784 6.39133
260 3 -0.824206 9.10152 10.1315 8.34025
50 4 1.24369 10.801 7.31248 5.5951
51 4 1.2935 9.19772 8.8925 1.84251
52 4 1.25523 4.63787 10.588 3.00904
54 4 1.35483 8.95132 9.00941 7.14703
56 4 0.922706 6.83403 10.7817 5.0124
78 1 -0.684942 4.89845 8.77317 6.94962
81 1 -0.681139 10.5046 10.0133 2.57563
82 1 -0.650629 2.54954 10.8446 5.60408
83 1 -0.661133 8.247 11.5831 4.11475
105 2 0.092689 7.07129 7.97419 5.51801
111 2 -0.0108619 3.53164 11.3926 4.03071
112 2 -0.0213022 5.94483 11.8059 6.08937
113 2 0.00446551 5.60379 10.3658 7.96395
148 2 0.205499 6.50716 7.15538 2.12129
166 2 0.197398 3.03285 12.9796 3.11951
265 3 -0.764301 7.57761 9.35275 6.18902
332 2 0.176791 7.49489 12.9366 2.84343
169 2 0.184231 4.20161 9.58931 7.21636
170 2 0.189331 5.17805 8.75276 5.78921
177 2 0.202664 10.4028 10.1573 3.70155
168 2 0.197998 5.78639 8.66326 7.66488
179 2 0.1657 2.58126 11.9745 5.39374
46 4 1.27046 7.9909 7.07803 4.45106
180 2 0.142613 2.43808 10.2164 4.60204
182 2 0.200482 7.91677 11.3416 2.97823
183 2 0.180932 9.33491 11.3167 4.31083
333 1 -0.661599 4.64866 12.8223 7.13245
249 3 -0.768236 11.9929 7.10774 4.56422
251 3 -0.745429 8.4306 8.06339 3.16517
252 3 -0.818635 9.95414 7.76158 1.04043
253 3 -0.842991 3.85827 9.49457 2.19258
254 3 -0.82662 5.0447 11.7636 2.07477
256 3 -0.76876 8.06346 9.89106 0.934121
355 2 0.152845 3.97001 12.1595 6.43899
258 3 -0.865987 8.77491 7.56565 7.97106
259 3 -0.797741 10.4346 8.83895 6.01584
184 2 0.128672 7.94474 12.724 4.46712
264 3 -0.803673 5.83119 10.0631 3.94114
47 4 1.1595 10.597 6.68839 0.0434474
261 3 -0.85094 2.60329 9.586 8.75571
187 2 0.226898 4.0076 10.6331 0.0741939
12 4 1.06072 9.0246 10.1511 9.91624
43 4 1.28581 4.80101 12.0698 13.4563
53 4 1.24396 7.77535 11.0235 17.0653
55 4 1.43036 3.22572 10.2082 10.075
57 4 1.30037 2.9882 10.8065 15.5506
58 4 1.21569 6.11304 9.68918 11.7228
357 2 0.112381 11.7799 7.86746 15.8742
72 1 -0.69306 4.6168 7.4328 15.7897
84 1 -0.683097 4.13167 10.1518 16.8717
85 1 -0.663146 6.51643 8.17177 12.6883
345 2 0.222127 6.40155 10.4063 15.0004
108 2 0.0822055 3.99948 7.8692 11.5028
346 2 0.147797 6.73748 8.97392 16.3123
336 1 -0.681106 1.84803 12.8258 13.0967
342 2 0.174152 8.32117 7.35035 16.6509
153 2 0.216551 4.2582 8.45993 15.5509
351 2 0.0401143 3.63586 12.5221 12.3133
185 2 0.195648 5.29778 9.97566 16.4941
186 2 0.263159 3.74448 9.18608 17.2867
337 2 0.1978 1.82979 13.1047 14.222
188 2 0.169501 7.70384 8.32249 12.6877
189 2 0.178967 6.19946 7.2065 12.2546
190 2 0.167601 5.96313 8.45358 13.7343
235 3 -0.832455 6.52772 12.751 9.23658
255 3 -0.782734 9.36572 11.4793 16.4698
262 3 -0.827654 4.02137 11.5801 9.67856
356 2 0.217563 2.16581 11.6944 12.9185
267 3 -0.858634 3.9376 11.3727 14.4935
268 3 -0.783414 1.75142 12.0765 16.2976
269 3 -0.758877 7.67566 9.92831 10.7228
270 3 -0.781767 4.61137 9.18048 10.7745
271 3 -0.8007 5.74485 10.8861 12.7046
344 2 0.16261 8.13554 9.56719 15.1378
133 2 0.0133193 10.3257 9.2023 10.6823
311 2 0.157675 10.749 7.55546 13.8109
339 1 -0.628612 12.1603 7.81536 17.0331
275 2 -0.0222461 11.1828 9.43987 16.4225
343 1 -0.665919 7.13362 9.85327 15.7029
322 2 0.237194 8.24034 13.3332 14.6402
152 2 0.13199 5.59218 7.42482 16.3352
173 2 0.156887 9.14143 7.45952 10.8107
257 3 -0.787503 6.60957 12.1444 17.3036
312 2 0.172337 9.09776 6.812 13.302
151 2 0.246051 4.64069 6.83292 14.8475
41 4 1.08652 5.27938 11.8606 8.79775
ITEM: TIMESTEP
100
ITEM: NUMBER OF ATOMS
362
ITEM: BOX BOUNDS xy xz yz pp pp pp
-8.3819999999999997e+00 1.7202700000000000e+01 -8.3819999999999997e+00
0.0000000000000000e+00 1.3403738800000001e+01 3.0499999999999999e-02
0.0000000000000000e+00 1.7586700000000000e+01 3.0209460000000005e-01
ITEM: ATOMS id type q x y z
13 4 1.6508 8.18593 0.136187 1.78874
2 4 1.03419 -0.722833 2.73837 5.14184
5 4 1.20225 2.46535 2.38972 6.27695
7 4 0.704143 -0.981366 3.76891 1.91655
14 4 1.4905 4.97215 2.69056 4.35338
23 4 1.09635 2.84367 6.02266 4.18019
59 1 -0.672373 2.38656 0.813435 2.55156
60 1 -0.632651 -1.0045 4.27188 6.33908
61 1 -0.660922 2.25163 3.78026 7.49116
203 3 -0.767643 6.69806 2.7175 5.19135
69 1 -0.640947 0.124722 5.34423 1.4733
87 2 0.0452151 -1.72757 5.3673 1.52279
353 2 0.18174 6.0296 0.676323 7.66695
93 2 0.0892818 3.38815 4.51713 3.56113
62 1 -0.680861 -2.37124 6.36368 4.34717
116 2 0.165494 2.49464 1.91047 2.46537
145 2 0.170821 0.369762 6.5817 4.03264
118 2 0.192368 -1.52218 5.0633 5.61652
119 2 0.155708 0.0160559 4.60073 6.80141
120 2 0.149643 1.19174 4.27903 7.54905
121 2 0.2171 3.15988 4.47279 7.15095
16 4 1.3452 8.4873 0.155767 7.8321
123 2 0.198843 -2.22676 5.34263 3.86734
70 1 -0.689235 0.974501 5.77534 4.53413
3 4 0.931077 3.46274 0.342673 8.41787
143 2 0.0227244 0.740502 3.75892 1.09969
144 2 0.178731 0.485647 5.54804 2.58531
147 2 0.198748 0.79623 4.73899 4.18186
124 2 0.155786 -2.80864 6.28945 5.41186
191 3 -0.731276 0.810294 2.3323 5.44506
192 3 -0.749466 2.68367 0.824571 7.09411
194 3 -0.743073 -0.876627 3.39453 3.48211
199 3 -0.783343 5.04502 1.20599 3.76528
200 3 -0.860434 3.84051 2.76431 5.41852
122 2 0.180697 2.47628 3.10713 8.48984
287 2 0.00173768 -1.51969 5.20774 8.0004
208 3 -0.858488 4.87664 3.88499 3.40199
201 3 -0.848404 7.24748 1.30242 1.24575
350 2 0.00680967 4.40043 5.31085 0.534132
142 2 0.177515 0.62862 6.06103 0.746442
117 2 0.139696 -1.67182 3.48252 7.0343
114 2 0.191363 1.59995 0.53288 3.28871
283 4 0.911724 -3.14032 5.44877 8.5479
146 2 0.191081 0.942901 5.91372 5.63758
95 2 0.0807655 6.05586 3.69667 6.3153
115 2 0.188146 2.18435 0.290572 1.5172
211 3 -0.833415 3.56055 6.60637 5.44534
6 4 1.17793 0.373545 1.09716 11.9522
9 4 1.01398 0.794063 4.13745 13.0099
17 4 1.37999 4.98647 2.62092 9.85525
20 4 0.975148 5.18128 2.85417 16.3845
24 4 1.07241 3.38872 6.54138 17.1287
27 4 1.0427 5.46494 4.37562 13.6284
28 4 1.21277 0.897403 5.72252 15.7152
205 3 -0.862866 6.05894 3.51183 17.4437
63 1 -0.685301 0.420022 5.44982 11.702
67 1 -0.668993 3.80466 3.47559 11.1637
68 1 -0.687544 1.07929 1.41563 10.2605
89 2 0.0112807 2.48018 4.09735 12.4953
91 2 -0.0417813 3.66421 2.77005 16.9765
92 2 0.0895851 5.44894 1.13364 16.3576
97 2 0.0249311 5.41136 3.21739 12.3314
98 2 -0.0194262 -0.0502909 5.24636 17.1301
99 2 -0.0271217 2.28194 6.0629 11.5597
126 2 0.124162 -0.747192 5.04265 11.61
127 2 0.121459 0.940938 5.34879 10.6178
348 2 -0.0138057 -3.01437 5.3235 10.2832
136 2 0.124655 3.75377 2.90606 12.2246
137 2 0.151564 2.776 3.42561 10.7605
138 2 0.165854 4.04688 4.57935 11.1925
139 2 0.140932 0.824668 2.53476 10.1976
140 2 0.143604 0.765062 0.707396 9.41817
141 2 0.176953 2.1972 1.17068 10.5955
195 3 -0.810891 0.206189 2.60678 12.6467
202 3 -0.868779 4.07027 1.48741 9.28054
297 2 -0.0400908 -2.33159 5.76894 14.7078
206 3 -0.842075 6.35831 2.3243 10.64
328 2 -0.00503654 3.80707 0.956551 14.1394
213 3 -0.820274 5.32809 3.46358 14.9357
214 3 -0.812313 0.588129 4.64143 14.4852
215 3 -0.803012 2.37633 5.55817 16.2572
216 3 -0.842249 4.40771 5.45736 13.2437
29 4 0.945519 3.41455 6.68064 12.6873
207 3 -0.82798 7.82227 0.93026 12.1536
128 2 0.190482 0.481416 6.50706 12.1477
86 2 -0.0202748 -0.701985 1.71642 9.4746
324 2 0.181407 -0.0883941 1.98 15.2655
327 2 0.180169 4.28088 0.231601 11.7195
151 2 0.265052 4.55045 6.49265 14.9126
135 2 0.212031 6.74324 0.364564 9.38964
210 3 -0.839656 5.30107 3.75212 8.83454
320 2 0.167227 -5.7947 11.8412 4.44398
347 2 -0.0189364 -3.60301 12.4719 8.06417
10 4 1.3124 -2.58605 9.01329 1.53368
26 4 1.32561 4.05492 6.96784 6.94363
101 2 -0.00331283 1.04398 9.62014 0.406525
8 4 1.32838 -4.07404 6.67869 3.37049
159 2 0.162916 1.21531 10.204 2.1087
362 3 -0.880163 0.181895 12.2063 0.705954
31 4 1.33756 -1.24542 11.0272 3.6286
33 4 1.23984 1.73971 8.49647 8.26188
34 4 1.21503 0.849155 10.4379 6.10766
64 1 -0.661868 -1.31014 7.99444 0.438579
66 1 -0.683521 -1.70627 13.1076 8.3451
291 2 0.17795 -3.97133 9.66442 5.48378
74 1 -0.677488 1.09247 9.0665 2.32538
100 2 0.0178626 -2.68082 11.4249 4.47946
319 2 0.168101 -4.31051 10.7024 3.88652
30 4 1.22578 2.74583 8.24814 2.0536
318 2 0.156665 -4.16145 11.8709 5.39375
130 2 0.175482 -0.806147 7.01434 0.842133
221 3 -0.776762 2.68735 7.21852 8.05258
134 2 0.151278 -1.95727 12.012 8.28675
284 4 0.786499 -3.99085 8.47064 7.67614
317 1 -0.645679 -4.63193 11.7404 4.32638
157 2 0.199977 0.82779 8.82898 3.42543
158 2 0.185767 0.221077 8.62287 1.64853
196 3 -0.799445 -3.45535 7.9669 2.33331
197 3 -0.872121 -3.50571 9.92925 0.444446
198 3 -0.841386 -3.77626 12.3471 1.79027
293 2 0.108089 -3.15738 10.2631 8.76471
217 3 -0.851338 2.90334 6.99425 2.98004
218 3 -0.792275 2.79544 7.46243 0.312808
219 3 -0.839382 -1.64824 9.9764 2.51067
220 3 -0.825186 -0.74935 12.397 3.09703
131 2 0.187986 -0.513996 8.73165 0.0217788
222 3 -0.802199 -0.249257 10.4569 4.74098
223 3 -0.808886 0.79779 9.01959 7.13374
224 3 -0.755854 0.529617 11.923 7.03542
285 1 -0.669681 -3.31233 9.01971 6.07469
289 2 0.182026 -2.89883 8.0049 5.41144
11 4 1.43043 -3.7997 11.5076 0.402188
290 2 0.148096 -2.43609 9.62587 6.54603
1 4 1.18822 -4.27004 13.1542 2.99564
125 2 0.183254 -1.58092 7.10991 4.15592
295 3 -0.796918 -3.62407 6.89524 8.09553
288 2 0.0526629 -5.56295 9.1564 8.48504
19 4 1.3098 -0.139791 12.7065 13.0296
32 4 1.26042 0.506409 11.3796 17.2308
35 4 1.47455 1.42928 8.25951 14.2519
36 4 1.26895 -1.83159 11.9053 15.4781
37 4 1.31107 0.555294 9.89877 11.7213
75 1 -0.659521 -0.705738 9.23772 10.4346
65 1 -0.640316 -6.5974 11.1381 10.7008
102 2 -0.00509037 0.581316 8.08671 9.5345
103 2 -0.0125192 -2.83254 10.9243 14.4463
286 1 -0.656498 -4.04281 9.62368 9.33397
160 2 0.143972 -0.795631 8.05586 10.5955
161 2 0.169851 -0.342591 9.48389 9.41181
162 2 0.177474 -1.70768 9.79881 10.6599
225 3 -0.769347 0.457031 7.25243 15.447
226 3 -0.870352 2.64242 7.40673 13.7508
227 3 -0.81021 -0.810721 10.9657 16.2995
228 3 -0.807923 -1.00875 12.8575 14.6002
229 3 -0.809565 -2.76196 12.6531 16.5821
230 3 -0.827449 0.583272 8.73933 12.881
231 3 -0.815331 -0.237473 11.3674 12.2884
129 2 0.170891 -2.00964 8.12028 17.1662
299 2 0.00760807 -3.39058 7.27173 15.8852
272 4 1.02983 -5.6236 12.6803 13.7375
273 4 1.22933 -6.19362 11.2964 16.3708
274 2 0.176721 -3.13492 13.0925 13.367
132 2 0.137973 -5.53531 11.3033 10.3164
277 3 -0.825627 -5.36557 12.0012 17.4989
278 3 -0.845142 -5.63379 11.5949 14.8898
326 2 0.123588 -4.11477 11.5513 12.5034
266 3 -0.817623 2.09018 9.45334 15.1675
292 2 0.147972 -4.53853 10.3647 10.0852
294 2 0.156651 -3.60257 8.75814 9.95262
352 2 0.221736 -6.7472 11.3459 11.7852
263 3 -0.859031 1.98526 10.1134 11.099
349 2 0.00438009 -6.04928 12.4748 9.34231
325 1 -0.670714 -4.04195 12.8488 12.7295
276 3 -0.773967 -6.87645 13.134 12.8199
359 2 0.233376 -4.54555 8.83862 17.2689
275 2 0.00879907 -5.89519 9.63281 16.7844
15 4 1.50871 7.3067 2.88637 0.739127
18 4 1.26496 8.33233 2.72302 5.72915
22 4 1.28824 6.51075 4.9051 2.95107
330 2 0.165093 14.8707 1.66916 2.40184
39 4 1.432 10.2893 2.02279 3.1923
45 4 1.51004 12.0252 4.26393 1.67722
354 2 0.153609 14.0035 2.22565 5.64421
48 4 1.03771 12.298 3.06518 7.62582
329 1 -0.660159 15.5044 0.75541 1.95081
71 1 -0.678159 5.87018 6.14127 1.62566
76 1 -0.690836 15.0051 1.52863 5.558
77 1 -0.67504 11.7841 0.956534 3.80477
80 1 -0.653585 12.4164 3.43133 5.7646
94 2 0.0312299 8.63311 4.18828 6.37729
331 2 0.149551 16.368 0.964355 1.23955
106 2 0.000838606 13.1913 1.56906 7.65207
212 3 -0.859266 4.98674 5.88232 7.52255
335 2 0.15296 13.6003 0.395358 6.45472
150 2 0.178402 6.04321 5.72761 0.587776
163 2 0.14406 15.2594 0.860187 6.45201
164 2 0.149709 15.0718 1.00314 4.55312
165 2 0.182462 12.6634 1.60495 3.68342
167 2 0.157712 11.41 0.751927 4.8817
174 2 0.165052 11.397 4.14046 5.82934
175 2 0.171586 12.2003 2.47727 5.09833
176 2 0.182912 13.319 4.0696 5.42812
204 3 -0.7827 8.41887 1.5033 6.75505
209 3 -0.771939 7.53481 4.02572 2.0386
232 3 -0.823488 9.48901 0.983123 2.28892
233 3 -0.795027 9.40857 2.53552 4.53228
234 3 -0.816756 12.8823 0.912525 0.527583
248 3 -0.855761 7.39419 5.03603 8.05188
241 3 -0.821398 11.1495 3.20563 2.48895
242 3 -0.856731 13.2336 3.43573 0.707474
243 3 -0.831702 12.8146 5.28724 2.68468
244 3 -0.858866 6.97187 5.79534 4.20698
245 3 -0.787661 11.113 5.33148 0.682788
246 3 -0.833027 10.9569 2.77424 8.37332
247 3 -0.846455 13.3666 4.14952 8.10668
334 2 0.183768 12.0778 0.234209 7.75583
149 2 0.183043 4.75444 6.15204 2.00018
49 4 1.03134 8.32693 6.27769 8.67169
25 4 1.33387 5.94323 4.65773 7.73091
250 3 -0.797758 9.42421 6.50201 5.104
88 2 -0.00573779 15.6018 2.45408 0.938507
109 2 -0.0205951 11.394 6.43668 6.76635
4 4 1.23637 15.2392 0.669551 10.1623
21 4 1.28718 7.80009 2.27806 11.3329
323 2 0.18311 16.0763 0.861794 16.4879
42 4 1.41769 10.1525 1.84477 9.64971
44 4 1.04356 12.7666 2.36916 11.0637
73 1 -0.671469 7.2518 5.11881 13.5755
79 1 -0.670171 8.72222 6.33 10.5388
338 2 0.23003 10.4638 0.676119 12.4051
96 2 -0.00100609 7.76289 3.58152 12.472
104 2 0.0688748 12.5189 4.29378 10.3834
110 2 0.0239228 13.0188 2.88192 12.8555
341 2 0.172398 9.50904 6.60756 15.2812
154 2 0.127827 7.27156 5.31494 12.3852
155 2 0.258118 8.27363 4.65678 13.9975
156 2 0.175594 6.98102 6.09989 14.0603
171 2 0.173886 8.8847 5.31315 11.0013
360 2 0.27057 8.95216 5.49223 16.8338
193 3 -0.745697 16.0732 0.256569 11.5098
237 3 -0.843406 8.99398 2.7631 10.44
238 3 -0.811701 8.67173 3.54663 17.2626
239 3 -0.861015 14.0047 1.60622 10.5388
240 3 -0.821312 11.3625 1.65815 10.9594
279 4 1.10906 14.5683 1.49042 14.8567
340 1 -0.643753 9.19909 6.54394 16.4373
281 3 -0.831622 13.8732 2.49663 15.8427
40 4 1.46475 12.7139 2.50812 17.345
304 1 -0.662266 10.1244 6.64247 13.3331
300 4 1.29339 9.69203 3.04203 16.181
301 4 1.03885 10.8841 4.97873 13.8278
302 1 -0.645104 9.02563 1.4441 15.5419
303 1 -0.667678 13.3288 4.32269 11.735
358 2 0.0427693 13.1958 6.39868 17.2147
306 2 0.188414 9.00274 1.64287 14.3888
280 2 0.0679931 15.6807 2.18855 13.7425
308 2 0.157739 13.1913 5.21937 12.439
313 2 0.116959 10.7396 6.68563 12.2857
310 2 -0.00573841 11.405 4.18023 12.3658
314 3 -0.808481 11.2117 2.74098 16.6662
315 3 -0.793088 9.81995 4.11507 14.4918
316 3 -0.799404 12.1815 5.30949 14.7438
107 2 0.0109482 9.89387 5.66381 9.11238
312 2 0.184358 9.03116 6.7077 13.1822
305 2 0.285191 9.49645 0.344258 15.8946
309 2 0.143939 14.3883 4.23334 11.5371
321 1 -0.672078 16.3771 1.1384 15.2955
236 3 -0.816311 9.51595 0.475402 9.0205
298 2 0.0691252 14.2646 4.1182 16.0828
296 4 0.684287 13.4194 5.54913 15.602
307 2 0.189464 7.9327 1.60867 16.097
337 2 0.202075 10.4128 0.310506 14.2898
282 3 -0.845067 13.9426 0.246267 14.2015
38 4 1.30694 5.78796 12.8828 0.957235
181 2 0.164276 3.36329 10.1735 6.33027
260 3 -0.818988 9.18059 10.1827 8.27097
50 4 1.22872 10.7929 7.33686 5.5194
51 4 1.37269 8.87668 8.73247 1.87307
52 4 1.26132 4.69366 10.6449 2.92331
54 4 1.40898 8.91081 9.0669 7.05747
56 4 0.950093 6.74814 10.7781 5.047
78 1 -0.673595 5.07577 8.65931 7.05216
81 1 -0.654525 10.1939 9.94212 2.56326
82 1 -0.688162 2.64547 10.5381 5.50112
83 1 -0.675715 8.22278 11.5499 4.31151
105 2 0.0928204 7.16645 7.98125 5.48944
111 2 -0.0109191 3.4534 11.3449 3.88654
112 2 -0.0286152 5.8453 11.9993 5.9866
113 2 0.0185501 5.63285 10.2697 7.92112
148 2 0.216165 6.38527 7.17043 1.67729
187 2 0.21648 3.8228 10.7701 0.229785
265 3 -0.80276 7.60432 9.4137 6.21161
332 2 0.17761 7.35895 13.058 2.72726
169 2 0.167874 4.29917 9.53614 7.18
170 2 0.174491 5.40292 8.58439 5.94022
177 2 0.202149 10.4776 9.7899 3.66944
168 2 0.22886 5.91272 8.67897 7.73003
179 2 0.149336 2.61021 11.7271 5.31742
46 4 1.26681 7.98747 7.02006 4.40525
180 2 0.165205 2.70128 9.84687 4.6184
182 2 0.188131 8.12154 11.2219 3.12987
183 2 0.183255 9.10955 11.0469 4.83682
333 1 -0.700826 4.4523 12.8162 7.09397
249 3 -0.821251 11.9209 7.12968 4.36975
251 3 -0.845459 8.2393 7.93412 3.02471
252 3 -0.786799 9.83777 7.7649 0.832981
253 3 -0.821617 3.93119 9.44435 2.26994
254 3 -0.835488 5.16786 11.8934 1.9887
256 3 -0.81687 7.99833 9.68762 0.904423
355 2 0.160647 3.95119 12.0385 6.46868
258 3 -0.834799 8.56233 7.6729 7.89233
259 3 -0.844611 10.36 8.76537 6.03353
184 2 0.151732 8.10237 12.6329 4.56367
264 3 -0.830816 5.84301 10.2679 3.88813
361 2 0.171465 9.76078 11.0081 2.33806
41 4 1.07285 5.22238 11.9063 8.65551
166 2 0.196717 3.55525 13.1506 3.16831
261 3 -0.802473 2.81007 9.61331 8.77394
178 2 0.19497 11.0276 9.56805 1.81958
12 4 1.02795 9.00639 10.3258 9.82175
43 4 1.34021 4.84932 12.1383 13.505
53 4 1.29873 7.93011 11.0369 17.2504
55 4 1.40567 3.41242 10.1796 10.2174
57 4 1.30806 3.01126 10.775 15.5566
58 4 1.21302 6.18756 9.69265 11.6876
357 2 0.113786 11.6925 8.06175 15.7099
72 1 -0.664733 4.6835 7.08584 15.8767
84 1 -0.676961 4.05547 10.2532 17.0597
85 1 -0.676554 6.49533 8.33689 12.9461
345 2 0.196534 6.21354 10.6023 15.3534
108 2 0.0804551 4.12657 7.89755 11.673
346 2 0.16366 6.71267 9.15267 16.466
336 1 -0.676196 1.77095 13.0414 13.2379
342 2 0.189754 8.40197 7.28713 16.7763
153 2 0.177732 4.59109 8.23082 15.6884
351 2 0.0468982 3.62922 12.7922 12.5746
185 2 0.183273 5.18845 10.1452 16.705
186 2 0.260654 3.58334 9.24429 17.3847
90 2 0.0851203 9.40337 12.1813 9.9808
188 2 0.164798 7.66567 8.36938 12.9832
189 2 0.158945 6.03425 7.3882 12.5703
190 2 0.171733 5.99122 8.74644 13.9179
235 3 -0.840671 6.52211 12.5914 9.17049
255 3 -0.821242 9.3635 11.4331 16.5979
262 3 -0.79558 4.14806 11.6151 9.82928
356 2 0.185887 2.03484 11.9036 12.9621
267 3 -0.885707 3.92285 11.4571 14.5344
268 3 -0.792108 1.76815 11.9089 16.2823
269 3 -0.748641 7.53132 9.88864 10.6844
270 3 -0.780829 4.73075 9.06076 10.7481
271 3 -0.789025 5.6446 11.054 12.6663
344 2 0.168598 7.97869 9.75182 15.1181
133 2 0.0430529 10.4978 9.39775 10.5959
311 2 0.143903 10.5437 7.38078 14.1311
339 1 -0.650138 12.2577 7.89403 16.7809
47 4 1.15884 10.7362 7.00956 17.5553
343 1 -0.654873 7.08263 10.0117 15.8581
322 2 0.227331 8.40416 13.3744 14.7559
172 2 0.12996 7.45817 6.789 10.678
173 2 0.158387 9.50844 7.005 10.8988
257 3 -0.798177 6.82229 12.3642 17.5774
152 2 0.135158 5.66269 6.86473 16.4637
ITEM: TIMESTEP
200
ITEM: NUMBER OF ATOMS
362
ITEM: BOX BOUNDS xy xz yz pp pp pp
-8.3819999999999997e+00 1.7202700000000000e+01 -8.3819999999999997e+00
0.0000000000000000e+00 1.3376877600000000e+01 3.0499999999999999e-02
0.0000000000000000e+00 1.7586700000000000e+01 3.0148920000000001e-01
ITEM: ATOMS id type q x y z
13 4 1.62163 8.1535 0.148716 1.87113
2 4 1.02846 -0.672732 2.79086 5.1469
5 4 1.18489 2.47896 2.35116 6.26507
7 4 0.702661 -1.03424 3.7395 1.95487
14 4 1.49488 5.02075 2.57924 4.41568
23 4 1.06045 2.87374 6.03798 4.23759
59 1 -0.664904 2.43482 0.846704 2.69933
60 1 -0.644775 -0.97165 4.26797 6.33199
61 1 -0.662768 2.12998 3.62534 7.59224
211 3 -0.792151 3.61537 6.35086 5.60724
69 1 -0.625067 0.0358082 5.31872 1.43887
87 2 0.0509291 -1.81641 5.35686 1.47118
353 2 0.174211 5.97304 0.580141 7.70757
93 2 0.0948074 3.79212 4.66625 3.6826
62 1 -0.676009 -2.76366 6.42284 4.70448
116 2 0.182385 2.33623 1.95811 3.13343
145 2 0.176639 0.195166 6.28059 3.89306