ITEM: TIMESTEP
0
ITEM: NUMBER OF ATOMS
362
ITEM: BOX BOUNDS xy xz yz pp pp pp
-8.3819999999999997e+00 1.7202700000000000e+01 -8.3819999999999997e+00
0.0000000000000000e+00 1.3430600000000000e+01 3.0499999999999999e-02
0.0000000000000000e+00 1.7586700000000000e+01 3.0270000000000002e-01
ITEM: ATOMS id type x y z
3 4 3.64502 0.340502 8.25079
2 4 -0.534468 2.91331 5.31093
5 4 2.60344 2.26128 6.09513
7 4 -0.745125 3.96984 2.23126
14 4 4.93713 2.48405 4.09166
23 4 3.29075 6.52991 4.44736
201 3 7.56345 1.21376 1.14503
60 1 -0.721584 4.62103 6.56124
61 1 2.21793 3.56939 7.43747
70 1 1.43562 6.38083 4.89026
69 1 0.361825 5.51005 1.98678
87 2 -1.46272 5.62479 1.98326
91 2 3.90115 1.96573 0.30927
93 2 3.93504 4.93031 4.03692
88 2 -1.34347 2.76411 1.0983
116 2 1.82481 0.950792 2.88633
117 2 -1.52406 5.28347 6.06414
118 2 0.189476 5.22178 6.74921
119 2 -1.05604 4.03057 7.47306
120 2 1.11227 4.15097 7.05181
121 2 3.04698 4.28756 7.39552
122 2 2.17971 3.04265 8.4698
123 2 -2.473 5.36367 4.46098
353 2 6.25386 0.496088 7.63302
142 2 0.805478 6.19949 1.2392
143 2 1.10362 4.0347 1.62922
144 2 0.791415 5.81037 3.07747
147 2 1.53822 5.15763 4.7528
62 1 -2.67299 6.46907 4.7926
191 3 1.06914 2.27534 5.41501
192 3 2.93175 0.944506 6.95841
194 3 -0.89534 3.4322 3.7227
199 3 4.50631 1.08876 3.29583
200 3 3.88269 2.83643 5.2969
149 2 4.64866 5.74615 1.70346
203 3 6.52099 2.46902 4.63367
208 3 4.72929 3.77014 3.13896
210 3 5.30158 3.28912 8.12224
287 2 -1.60357 5.67977 7.93469
95 2 5.55239 4.52294 5.73729
350 2 4.22662 5.28816 0.11272
16 4 8.47129 0.167732 7.46291
124 2 -2.96357 6.55179 5.85396
6 4 0.410014 1.47258 11.9412
9 4 0.747532 4.46767 13.183
17 4 4.94903 2.69574 9.55952
20 4 5.07675 2.49297 16.7692
24 4 3.38303 6.77942 16.8185
27 4 4.82349 3.61084 13.9699
28 4 0.615979 6.22454 15.5573
29 4 3.50821 6.33595 11.9946
63 1 -0.234008 5.52515 11.9705
67 1 3.51798 4.05254 10.0634
68 1 1.59259 1.59978 10.4748
89 2 2.53843 4.49165 13.1815
205 3 6.34702 3.14719 17.2628
92 2 5.44298 0.89555 16.3249
97 2 4.6052 2.13556 13.007
98 2 -0.562726 6.65698 16.7566
99 2 2.6795 5.72845 10.5984
126 2 -0.924902 6.23894 12.5716
127 2 -0.791499 4.80807 11.267
128 2 0.728467 5.99371 11.4853
136 2 3.39208 4.02679 11.1695
137 2 2.51293 3.87256 9.48406
138 2 4.06785 4.94915 9.67221
139 2 2.30123 2.52189 10.3508
140 2 0.788921 1.52162 9.63516
141 2 2.20006 0.603949 10.5265
195 3 0.563482 2.88171 12.605
202 3 4.08816 1.24148 9.45985
348 2 -2.32767 4.82081 10.2532
206 3 6.09966 2.79833 10.6555
207 3 7.49197 1.15226 11.9789
213 3 4.44932 3.33437 15.4315
214 3 0.195956 4.81024 14.7113
215 3 1.97561 6.07651 16.3873
216 3 3.91023 5.12024 12.9524
322 2 0.191532 0.883826 14.4075
326 2 4.40676 0.969501 12.0112
298 2 -2.60371 5.64336 15.7978
325 1 4.14162 0.253728 12.7936
296 4 -3.42325 6.7714 14.8311
324 2 -0.169512 2.44121 15.4777
321 1 -0.42937 1.39858 15.3063
328 2 3.6844 1.02023 14.2421
283 4 -3.0052 5.44676 8.91276
154 2 6.76443 2.65747 13.6659
145 2 0.608203 6.80922 4.35624
59 1 -6.64156 12.9439 2.75666
10 4 -2.27485 8.96763 1.48426
11 4 -3.73863 11.2312 0.289042
159 2 1.64158 10.3259 1.67286
290 2 -3.82273 10.0966 8.5544
362 3 0.600197 12.0878 0.264816
361 2 -5.71866 9.12195 2.61514
31 4 -0.844621 10.9684 3.43051
33 4 1.83527 8.48283 8.27813
34 4 1.04169 10.5388 6.04435
64 1 -1.14183 7.83328 0.361668
66 1 -1.59097 12.7694 8.25776
320 2 -5.11943 11.7946 5.08194
74 1 1.48611 9.18813 1.8145
100 2 -2.18653 11.613 4.32475
114 2 -7.34391 12.4218 3.49937
125 2 -1.84968 7.20339 4.50101
291 2 -5.76958 10.2169 8.30448
130 2 -0.595402 6.9618 1.01881
115 2 -6.78429 12.62 1.72944
134 2 -1.48691 11.6911 7.8292
319 2 -3.9057 10.808 3.96207
347 2 -3.45868 12.3669 7.77751
157 2 1.35119 8.95431 2.93944
158 2 0.619145 8.70786 1.19638
196 3 -3.17386 7.92519 2.54469
197 3 -3.13867 9.79289 0.448003
198 3 -3.98484 12.1488 1.62066
211 3 4.07196 7.03011 5.75022
217 3 3.28019 7.38516 3.05267
218 3 3.31985 7.71443 0.275732
219 3 -1.3262 9.85678 2.39117
220 3 -0.405831 12.1886 2.6498
221 3 2.75913 7.21107 8.05431
222 3 0.240734 10.5326 4.46252
223 3 1.09693 9.14945 6.89385
224 3 0.720906 11.8674 6.86261
285 1 -4.89154 9.55616 8.18412
289 2 -4.80312 9.09342 7.14171
318 2 -3.2282 12.1838 5.15934
1 4 -4.57594 12.8084 2.94797
317 1 -4.10605 11.8101 4.57022
177 2 -6.52375 10.948 2.96776
8 4 -3.95539 6.78039 3.36129
146 2 1.60741 6.76202 5.99996
19 4 -0.592892 12.8466 12.7428
32 4 0.848866 11.4749 16.6528
35 4 1.56881 8.35477 13.6142
36 4 -1.74606 11.8292 15.4105
37 4 0.253473 10.1967 11.5031
75 1 -0.872568 8.95569 10.3982
299 2 -3.63935 8.27649 15.5121
102 2 0.603862 8.03204 9.38071
103 2 -2.69029 10.6953 14.5732
135 2 -1.57957 12.9188 9.33468
160 2 -0.302984 7.99936 10.7381
161 2 -0.726548 9.22873 9.31394
162 2 -2.03075 9.01485 10.7316
225 3 0.570498 7.54577 14.7148
226 3 2.4615 7.34354 12.6984
227 3 -0.531893 10.9848 15.9271
228 3 -1.17454 12.8605 14.255
229 3 -2.67876 12.4027 16.5437
230 3 0.600279 9.23832 12.7678
231 3 -0.904133 11.3356 11.9633
295 3 -3.79395 6.96169 9.3337
359 2 -4.77676 9.0845 16.9077
272 4 -5.914 12.7083 13.6316
273 4 -6.29699 11.0764 16.2748
274 2 -5.13715 12.0553 12.0492
297 2 -2.25754 7.03465 13.7019
277 3 -5.15202 11.393 17.279
278 3 -5.92017 11.5457 14.7158
284 4 -4.57469 8.31551 9.68128
286 1 -3.94863 8.93396 11.3515
292 2 -3.75288 10.0368 11.2861
293 2 -3.06058 8.26857 11.7246
266 3 2.68633 9.28535 14.5244
294 2 -5.02929 8.61699 11.8502
129 2 -1.82436 7.75719 17.147
263 3 1.60453 10.7009 10.8141
133 2 -6.22896 10.5558 10.4497
101 2 1.40659 10.0344 17.5081
358 2 -4.28607 7.23101 16.9643
327 2 -3.34128 12.7165 13.0297
131 2 -0.401544 8.93064 17.5362
151 2 3.89044 6.95354 14.5547
276 3 -7.2568 13.3235 13.1551
349 2 -5.67183 12.3115 8.94691
15 4 7.64571 2.73178 0.61635
18 4 7.98045 2.38054 5.11685
22 4 6.44966 4.73532 2.66939
25 4 5.79864 4.56954 7.40138
39 4 10.4739 2.00064 3.0515
45 4 12.2222 4.32257 1.65577
354 2 15.2065 1.90745 6.84805
48 4 12.2321 3.38118 7.72143
49 4 8.40084 5.798 8.5439
71 1 5.75779 5.82695 1.25084
76 1 15.4105 1.58086 5.71191
77 1 11.6828 1.20214 4.32103
80 1 11.5121 3.97443 6.06817
94 2 8.16132 3.89085 5.71835
212 3 5.21437 5.95554 7.89468
106 2 13.1882 1.9013 7.5352
334 2 12.1223 0.599342 7.56673
109 2 11.3618 5.94003 6.55515
204 3 8.24073 1.25159 6.27106
163 2 15.7814 0.420901 5.61394
164 2 14.5718 1.88819 4.92919
165 2 12.6274 1.77356 4.48367
167 2 11.0961 1.06119 5.22762
174 2 10.4458 4.33719 6.31829
175 2 11.5434 2.93594 5.34454
176 2 12.2551 4.73473 5.73256
335 2 13.9003 0.573038 6.71186
209 3 7.4941 3.82572 1.81223
232 3 10.1159 0.662411 2.02734
233 3 9.14709 2.27337 4.04885
234 3 13.211 0.802451 0.507418
236 3 9.30343 0.816851 8.70471
241 3 11.2772 3.17223 2.36596
242 3 13.3446 3.49042 0.579871
243 3 13.0286 5.33249 2.75418
244 3 7.04622 5.62038 3.84455
245 3 11.2182 5.3783 0.869533
246 3 10.8178 3.00015 8.53123
247 3 13.2161 4.42892 8.31768
248 3 7.54064 4.71598 7.68093
250 3 9.42622 6.17912 4.86249
329 1 15.3212 1.12916 2.04941
330 2 14.5922 2.016 2.08258
331 2 16.2323 1.13845 1.29195
332 2 15.6369 0.854104 3.10727
150 2 5.86303 5.34989 0.225996
166 2 11.8128 0.214654 3.55055
4 4 14.9374 1.39655 10.3888
21 4 7.54632 2.5276 11.2221
40 4 12.9897 2.44104 17.249
42 4 9.93661 2.02542 9.56683
44 4 12.2329 2.26148 11.4158
73 1 6.59678 4.13731 13.9579
79 1 7.69347 6.06248 10.2985
338 2 9.77592 1.06369 12.7863
96 2 7.85324 3.68891 12.5009
104 2 12.3132 3.80321 10.3051
110 2 11.7395 3.04996 12.8554
341 2 9.26328 6.81707 15.6541
280 2 15.7225 2.4919 13.993
155 2 7.36783 4.57874 14.6815
156 2 6.53655 4.81102 12.933
171 2 7.03929 5.16898 10.5734
360 2 8.92973 5.30137 16.8371
193 3 16.2058 1.23036 11.2369
237 3 8.8079 2.92973 10.3009
238 3 8.98239 3.39363 17.1034
239 3 13.7259 1.83112 11.3939
240 3 11.0603 1.3903 10.9179
279 4 14.8387 1.37109 14.972
107 2 9.4192 5.28006 9.82723
281 3 14.0735 2.25903 15.9646
323 2 16.5904 0.717104 16.2523
173 2 8.49155 6.28432 11.0095
300 4 10.1146 3.14597 15.9985
301 4 10.8445 5.59172 13.7587
302 1 9.4254 1.53263 15.2986
303 1 11.7051 4.69406 11.7358
305 2 10.4726 0.994457 15.2759
306 2 9.04428 1.74228 14.2603
307 2 8.6491 1.11613 15.9052
308 2 10.5379 4.27075 12.0154
309 2 12.5732 4.65708 12.6003
310 2 11.641 5.76211 11.3055
314 3 11.538 2.73964 16.6477
315 3 10.19 4.40138 14.7268
316 3 12.384 6.16303 14.2951
340 1 9.07972 6.5236 16.7473
86 2 15.1403 2.49572 9.14745
38 4 5.82168 12.9245 1.26659
30 4 3.31587 8.51276 1.7838
13 4 0.246485 13.1092 1.48254
50 4 10.7231 7.0734 5.4126
51 4 9.20378 8.80986 2.24597
52 4 4.63023 10.7893 3.20467
54 4 8.89956 8.62329 7.14849
56 4 7.04561 10.3477 5.2448
78 1 5.2605 8.83606 8.10052
81 1 10.5857 9.72132 3.12785
82 1 2.92684 10.6751 5.77631
83 1 8.52089 11.4771 4.74473
105 2 7.01779 7.52191 5.53191
111 2 3.07231 11.1821 3.89337
112 2 7.20641 11.7753 6.19352
113 2 5.66274 10.732 8.23691
46 4 8.00365 6.75284 4.38415
333 1 4.65049 13.1021 7.21943
183 2 8.41893 11.0978 3.61003
184 2 9.42125 11.0794 5.3424
169 2 4.76309 9.5782 7.32976
170 2 6.33972 8.60866 7.95887
47 4 10.4828 6.70516 0.208013
178 2 10.3724 9.46235 4.19876
179 2 3.32628 11.7971 5.50771
180 2 3.09489 9.87231 4.93646
181 2 3.33097 10.3184 6.74309
182 2 8.19501 12.6551 4.98213
26 4 4.37412 7.21604 7.44603
257 3 6.76456 11.8701 0.199329
249 3 11.8052 7.26426 4.29628
251 3 8.27881 7.90182 3.38896
252 3 9.90154 7.82351 1.21652
253 3 4.37399 9.69064 2.13946
254 3 5.16085 12.1534 2.57968
256 3 8.46061 9.98023 1.45619
148 2 6.32299 6.79625 1.33348
258 3 8.68564 7.23913 7.94103
259 3 10.2319 8.49771 6.24027
260 3 8.89682 9.84545 8.28304
264 3 5.67901 10.416 4.46319
265 3 7.5189 9.03595 5.94039
355 2 4.22307 12.3623 6.42648
12 4 8.51906 10.036 9.81669
43 4 5.35642 12.152 13.1093
53 4 8.06891 11.1167 17.5379
55 4 3.08429 10.4993 10.2258
57 4 3.27516 10.7616 14.8924
58 4 5.86342 9.5481 11.6524
65 1 9.98299 10.098 10.9898
304 1 9.63701 7.06276 13.63
84 1 4.53542 10.4369 16.2817
85 1 6.14857 7.90307 12.633
90 2 9.11153 11.6925 10.1723
108 2 4.8882 7.09224 11.3204
132 2 9.86741 10.6963 11.9806
352 2 10.0176 8.96765 11.261
235 3 6.10898 13.1542 9.60892
153 2 4.58921 8.53195 15.622
337 2 1.58973 12.7717 13.9638
185 2 5.67224 10.2261 16.1977
186 2 4.06765 9.59585 16.9455
187 2 4.41599 11.4684 16.8116
188 2 6.75091 7.24542 11.8164
189 2 5.28667 7.32858 13.1337
190 2 6.8092 8.41633 13.4689
351 2 4.8843 12.896 11.6406
255 3 9.46347 11.7165 16.9171
262 3 3.74395 11.9269 9.76194
172 2 7.06592 7.06374 9.99768
267 3 3.99497 11.5627 13.698
268 3 1.94341 11.9432 15.5378
269 3 7.01469 9.62592 10.3519
270 3 4.41027 9.4412 11.0809
271 3 6.25799 10.86 12.7368
275 2 10.6752 9.38084 16.2503
72 1 4.54048 7.37408 15.4082
346 2 6.91028 9.10753 16.8854
311 2 10.2979 7.83786 14.1047
356 2 1.87181 12.5528 12.1239
288 2 10.9686 8.42559 9.0654
336 1 1.345 13.1169 12.9111
282 3 5.94817 13.2263 14.1043
357 2 11.3692 7.81339 15.8367
343 1 7.68959 9.72407 16.2908
344 2 8.59759 9.09646 15.9896
345 2 7.24612 10.2755 15.4088
339 1 12.0131 8.02068 16.8161
342 2 8.1836 7.15092 17.2025
41 4 5.04502 12.2505 8.90632
261 3 2.69379 9.56603 8.96571
313 2 9.71712 7.09809 12.4917
168 2 4.94095 8.92981 9.19629
312 2 8.58589 7.16876 13.904
152 2 5.53683 6.87849 15.5978
ITEM: TIMESTEP
100
ITEM: NUMBER OF ATOMS
362
ITEM: BOX BOUNDS xy xz yz pp pp pp
-8.3819999999999997e+00 1.7202700000000000e+01 -8.3819999999999997e+00
0.0000000000000000e+00 1.3421806650000001e+01 3.0499999999999999e-02
0.0000000000000000e+00 1.7586700000000000e+01 2.9390665000000027e-01
ITEM: ATOMS id type x y z
3 4 3.57095 0.241074 8.3651
2 4 -0.48705 2.96813 5.32318
5 4 2.71146 2.26077 6.17708
7 4 -0.644647 4.0823 2.29118
14 4 4.99523 2.5767 4.06585
23 4 3.27029 6.51945 4.41163
201 3 7.68057 1.15433 0.991833
60 1 -0.705394 4.60319 6.56072
61 1 2.25225 3.66318 7.38832
70 1 1.5227 6.49808 4.99228
69 1 0.365816 5.6524 2.1022
87 2 -1.35292 5.83851 2.10051
91 2 3.62183 2.41141 0.273262
93 2 4.02589 5.06638 3.90875
88 2 -1.4657 3.08667 1.14401
116 2 1.95224 0.910144 2.79675
117 2 -1.29977 5.32985 5.81886
118 2 -0.023713 5.16527 7.29502
119 2 -1.42472 3.82961 7.20047
120 2 1.12806 4.06344 7.10282
121 2 3.04141 4.39131 7.11211
122 2 2.39285 3.18213 8.45349
123 2 -2.34113 5.37076 4.30228
353 2 6.06631 0.711305 7.99398
142 2 0.804959 6.36875 1.35284
143 2 1.11257 4.0729 1.56791
144 2 0.771172 5.94372 3.2036
147 2 1.34187 5.32811 4.7863
62 1 -2.62362 6.47821 4.70118
191 3 0.938512 2.32337 5.38136
192 3 2.87191 0.853449 7.06523
194 3 -0.835094 3.61403 3.8314
199 3 4.44205 1.16065 3.33486
200 3 3.89412 2.77755 5.30185
350 2 4.4062 5.01048 0.0924485
203 3 6.61913 2.5715 4.51605
208 3 4.76224 3.80778 3.02127
210 3 5.45716 3.26883 7.98024
287 2 -1.67706 5.71619 7.87549
16 4 8.47173 0.1886 7.35171
124 2 -2.99845 6.57512 5.72345
6 4 0.416228 1.49236 11.9007
9 4 0.66436 4.54021 13.2167
17 4 4.89564 2.71636 9.45791
20 4 4.92742 2.56467 16.7742
24 4 3.52328 6.56389 16.86
27 4 4.83099 3.4439 13.8672
28 4 0.55661 6.25392 15.6408
29 4 3.45579 6.34091 12.0403
63 1 -0.1635 5.82374 12.1159
67 1 3.53801 4.0656 9.98877
68 1 1.63679 1.58511 10.4967
89 2 2.39132 4.6897 13.2935
205 3 6.20206 3.29701 17.3266
92 2 5.21309 0.886233 16.7384
97 2 4.55525 1.94099 13.0345
98 2 -0.63648 6.49018 16.8842
99 2 3.02439 5.88265 10.4635
126 2 -0.267765 6.76603 12.7165
127 2 -1.13053 5.34831 11.7064
128 2 0.868007 5.89337 11.4033
136 2 3.49541 4.10594 11.1464
137 2 2.46631 4.06854 9.50162
138 2 4.10467 4.94471 9.63581
139 2 2.35262 2.51313 10.4398
140 2 0.888236 1.50721 9.58629
141 2 2.20438 0.611456 10.7249
195 3 0.430643 2.99025 12.6137
202 3 4.07228 1.27842 9.4431
348 2 -2.21079 4.97249 10.1773
206 3 6.02438 2.85572 10.5949
207 3 7.62627 1.19227 11.8443
213 3 4.38551 3.15776 15.3843
214 3 0.0782537 4.91975 14.7227
215 3 2.05479 6.21294 16.2536
216 3 3.95248 4.9471 12.9355
322 2 0.122058 0.90598 14.436
326 2 4.29743 0.849587 11.9259
298 2 -2.38218 5.78552 15.6869
283 4 -3.04145 5.49473 8.87996
296 4 -3.58745 6.80499 14.9842
324 2 -0.0685523 2.39693 15.6377
321 1 -0.530815 1.41571 15.2949
328 2 3.46543 0.843511 14.3202
145 2 0.964132 7.20327 4.30377
59 1 -6.4424 12.8789 2.89161
10 4 -2.32295 8.99477 1.4406
11 4 -3.66842 11.3171 0.203297
159 2 1.36131 10.2294 1.58151
290 2 -3.88549 10.0409 8.58589
362 3 0.595008 12.0985 0.167173
361 2 -5.49908 9.18347 2.61489
31 4 -0.82848 11.0359 3.49451
33 4 1.83492 8.55207 8.26593
34 4 1.09969 10.3714 5.95814
64 1 -1.18987 7.81667 0.289898
66 1 -1.60823 12.9562 8.21348
320 2 -5.29904 11.6606 4.91601
74 1 1.36158 9.11745 1.78491
100 2 -2.22951 11.467 4.45507
114 2 -7.23696 12.442 3.67997
125 2 -1.88563 7.26293 4.43224
291 2 -5.77199 9.74764 8.13883
130 2 -0.659625 6.97837 1.02732
115 2 -6.48729 12.3466 1.90995
134 2 -1.84918 11.9825 7.58893
319 2 -3.81763 10.558 4.52055
347 2 -3.4832 12.3805 7.94191
157 2 1.25186 8.93752 2.87191
158 2 0.415416 8.6458 1.23648
196 3 -3.29626 7.9438 2.17578
197 3 -3.01516 9.84057 0.259582
198 3 -3.92265 12.0174 1.72475
211 3 4.12289 7.02593 5.77191
217 3 3.21387 7.57058 3.03977
218 3 3.31465 7.77311 0.366421
219 3 -1.36757 9.91309 2.48447
220 3 -0.2477 12.2774 2.71497
221 3 2.80064 7.1024 8.18019
222 3 0.234374 10.3242 4.63166
223 3 0.914042 8.9886 6.93403
224 3 0.553409 11.8394 6.67657
285 1 -4.71999 9.25004 8.13478
289 2 -4.47974 8.7266 7.17169
318 2 -3.60247 12.1229 5.52501
1 4 -4.51332 12.7309 3.05955
317 1 -4.15682 11.6219 4.71092
177 2 -6.41631 10.8611 3.04739
8 4 -3.94232 6.76178 3.34585
146 2 1.40835 6.79531 6.11037
19 4 -0.582134 12.9589 12.6805
32 4 0.870067 11.2967 16.6701
35 4 1.55167 8.37326 13.6252
36 4 -1.70273 11.7311 15.2148
37 4 0.161593 10.158 11.5319
75 1 -0.901111 8.9526 10.5023
299 2 -3.7233 8.46635 15.5309
102 2 0.555468 8.21566 9.42218
103 2 -2.57632 10.5328 14.4419
135 2 -1.49537 12.7196 9.32574
160 2 -0.457563 7.83211 10.5374
161 2 -0.833029 9.52428 9.4763
162 2 -2.03994 9.00879 10.8512
225 3 0.554982 7.53827 14.6657
226 3 2.34667 7.29191 12.6838
227 3 -0.446036 10.8806 15.7724
228 3 -1.37368 12.8526 14.1362
229 3 -2.764 12.4258 16.5166
230 3 0.496072 9.28541 12.7902
231 3 -0.812857 11.6566 11.6502
295 3 -3.72741 6.86022 9.29616
359 2 -4.88791 9.04871 16.7822
272 4 -5.87036 12.6726 13.6928
273 4 -6.39851 11.0888 16.3251
274 2 -4.53614 11.8861 12.1845
297 2 -2.44276 7.36874 13.8506
277 3 -5.20901 11.4016 17.323
278 3 -5.92495 11.5332 14.8167
284 4 -4.47928 8.19756 9.72711
286 1 -3.97913 9.10244 11.3976
292 2 -3.74221 10.1277 11.1395
293 2 -3.17926 8.55037 12.0244
266 3 2.65247 9.39557 14.4333
294 2 -5.1061 8.8918 11.8163
129 2 -1.99978 7.70032 17.2186
263 3 1.58868 10.6899 10.9327
133 2 -6.35034 10.3724 10.4451
101 2 1.38608 9.84477 17.4743
358 2 -4.06004 6.9354 17.0166
327 2 -3.19303 13.0055 13.2599
131 2 -0.417766 8.80528 17.3449
151 2 3.71825 6.86807 14.5749
276 3 -7.23161 13.2916 13.1078
349 2 -5.81329 12.1638 8.95681
325 1 -4.19474 13.1633 12.7449
15 4 7.57517 2.74055 0.606881
18 4 8.0316 2.56234 5.12935
22 4 6.43836 4.73895 2.56519
25 4 5.93389 4.61381 7.34245
39 4 10.3439 1.94847 3.04115
45 4 12.1791 4.35717 1.55119
354 2 15.1672 1.88491 6.72831
48 4 12.2613 3.35959 7.72467
49 4 8.50062 5.8546 8.34839
71 1 5.67681 5.94467 1.21328
76 1 15.4316 1.61201 5.68272
77 1 11.7812 1.40073 4.16793
80 1 11.8158 4.10261 6.01914
94 2 8.16353 4.02678 5.92129
212 3 5.28402 5.94433 7.92226
106 2 13.0962 1.88824 7.33155
334 2 12.1008 0.519221 7.578
109 2 11.5798 5.99216 6.65181
204 3 8.17958 1.35448 6.28753
163 2 15.9883 0.573839 5.61586
164 2 14.5494 1.59394 4.95922
165 2 12.7016 2.10257 3.98441
167 2 11.3426 1.46 5.23679
174 2 10.7081 4.36042 6.26632
175 2 11.8538 3.19585 5.27196
176 2 12.4492 4.9795 5.5316
335 2 13.8506 0.580608 6.6471
209 3 7.46481 3.73353 1.89306
232 3 10.0663 0.667682 2.09726
233 3 9.17017 2.49011 4.11135
234 3 12.9985 0.691985 0.367716
236 3 9.39461 0.72925 8.60243
241 3 11.2627 3.17465 2.26403
242 3 13.2647 3.44245 0.599387
243 3 12.8959 5.34426 2.56312
244 3 7.09856 5.60987 3.79416
245 3 11.2602 5.29033 0.652376
246 3 10.9828 2.95238 8.58694
247 3 13.221 4.38011 8.40708
248 3 7.57561 4.54935 7.48103
250 3 9.53502 6.11888 5.08508
329 1 15.3812 1.18139 1.74169
330 2 14.6005 2.00042 1.90892
331 2 16.056 1.35931 0.863776
332 2 16.0165 0.906683 2.65771
150 2 5.87557 5.7284 0.0715097
166 2 12.0262 0.382086 3.86714
149 2 4.66779 6.2498 1.52073
95 2 5.70052 4.63296 5.66893
4 4 14.9286 1.34165 10.3726
21 4 7.48627 2.58411 11.1595
40 4 12.8893 2.46683 17.1857
42 4 9.92335 1.97609 9.50084
44 4 12.2088 2.30793 11.4264
73 1 6.48954 4.31129 13.9677
79 1 7.99224 5.91751 10.1941
338 2 9.93281 1.11254 12.9806
96 2 7.52058 3.79859 12.3258
104 2 12.2237 3.81991 10.3143
110 2 11.7544 3.01145 12.9857
154 2 6.95483 3.01286 13.7683
152 2 5.4149 6.73931 15.5873
155 2 6.85568 4.80017 14.8277
156 2 6.31563 5.01722 13.0687
171 2 7.25499 5.0493 10.2598
360 2 8.91503 5.69039 16.9628
193 3 16.1929 1.05826 11.1909
237 3 8.77731 2.87224 10.1963
238 3 8.93506 3.42462 17.1781
239 3 13.7697 1.81128 11.4133
240 3 11.017 1.475 10.8977
279 4 14.7433 1.47207 14.9199
107 2 9.70538 5.30436 9.52648
281 3 13.9155 2.32785 15.9254
323 2 16.474 0.701803 16.2567
173 2 8.60208 5.91315 11.1567
300 4 10.053 3.16288 16.1165
301 4 10.8958 5.56157 13.7893
302 1 9.38189 1.6522 15.1008
303 1 11.7227 4.63521 11.8581
305 2 10.3304 1.17057 14.6522
306 2 8.67069 2.09127 14.3274
307 2 8.88819 0.889815 15.7936
308 2 10.3599 4.10704 12.2961
309 2 12.5984 4.60101 12.6508
310 2 11.6673 5.66163 11.2578
314 3 11.4345 2.59733 16.5999
315 3 10.3328 4.31421 14.9152
316 3 12.3223 6.20033 14.2635
340 1 9.07599 6.77874 16.5914
86 2 15.2579 2.63435 9.39574
280 2 15.6713 2.53617 13.969
38 4 5.78207 12.9361 1.2094
30 4 3.27811 8.52932 1.74203
355 2 4.30534 12.2466 6.4295
50 4 10.8189 7.02288 5.50084
51 4 9.26722 8.78038 2.28249
52 4 4.66167 10.7374 3.06456
54 4 8.89623 8.69061 7.15084
56 4 6.97881 10.3561 5.23222
78 1 5.34145 8.73837 7.90317
81 1 10.7313 9.70951 3.07504
82 1 2.9973 10.634 5.73717
83 1 8.42487 11.5312 4.81417
105 2 7.19557 7.40724 5.68037
111 2 3.17193 11.0533 3.83427
112 2 7.10319 11.6692 6.29632
113 2 5.71339 10.625 8.08838
46 4 8.09994 6.71709 4.45281
333 1 4.61422 13.0664 7.1687
183 2 8.4609 11.0981 3.67411
184 2 9.36742 11.0966 5.31734
169 2 5.16125 9.21023 6.84297
170 2 6.41524 8.39627 7.97473
47 4 10.5574 6.77322 0.17416
178 2 10.5259 9.27418 4.15292
179 2 2.94424 11.7777 5.40049
180 2 3.47534 9.93417 5.03245
181 2 3.45689 10.5267 6.73136
182 2 8.27746 12.6792 4.87779
26 4 4.29522 7.13733 7.46561
257 3 6.80427 11.8708 0.245547
249 3 11.876 7.32274 4.28508
251 3 8.27241 7.86422 3.40261
252 3 9.92123 7.77472 1.27085
253 3 4.35838 9.764 1.85134
254 3 5.1797 12.2048 2.56552
256 3 8.40329 10.0538 1.54171
148 2 6.45877 6.83453 1.59138
258 3 8.73431 7.25165 7.79337
259 3 10.3396 8.43035 6.3631
260 3 8.80882 9.81154 8.27036
264 3 5.73237 10.4571 4.28095
265 3 7.40645 9.03364 5.99351
53 4 8.01637 10.8666 0.10687
13 4 0.271452 13.0822 1.43023
41 4 5.11423 12.1688 8.7438
12 4 8.43249 10.0244 9.77461
43 4 5.29494 12.1407 13.0461
312 2 8.75321 6.96918 14.099
55 4 3.06973 10.4653 10.2627
57 4 3.26903 10.8314 14.8504
58 4 5.91889 9.59864 11.5579
65 1 9.89403 10.082 10.9762
304 1 9.78004 7.05211 13.5382
84 1 4.44189 10.3465 16.3543
85 1 6.28441 8.00472 12.5528
90 2 8.83807 11.6627 10.4991
108 2 4.82956 7.24028 11.5162
132 2 9.69352 10.6347 11.9425
352 2 9.91984 8.9834 11.2421
235 3 6.10531 13.181 9.5629
153 2 4.44643 8.5101 15.5685
337 2 1.47774 12.5864 13.9426
185 2 5.56158 10.1498 16.1064
186 2 3.95297 9.3784 16.9668
187 2 4.33714 11.2912 16.9846
188 2 6.89873 7.23307 11.9445
189 2 5.39829 7.54989 13.104
190 2 7.02068 8.41597 13.3656
351 2 4.91261 13.0502 11.6814
255 3 9.41123 11.7717 16.8151
262 3 3.87708 11.873 9.77351
172 2 7.35663 6.9179 10.0217
267 3 3.8426 11.7103 13.6377
268 3 2.14189 11.7209 15.751
269 3 7.12437 9.64922 10.5456
270 3 4.21443 9.59608 11.0608
271 3 6.18176 10.7641 12.7043
275 2 10.5243 9.37151 16.2631
72 1 4.42181 7.28335 15.4311
346 2 6.98081 9.09903 17.1239
311 2 10.2389 8.05284 13.7692
356 2 1.86136 12.6956 12.0884
288 2 11.0576 8.38602 9.17997
336 1 1.3576 13.1572 12.9526
282 3 5.95198 13.2638 14.1056
357 2 11.2927 7.77059 15.7374
343 1 7.59148 9.81189 16.4458
344 2 8.48539 9.33948 16.0224
345 2 6.98815 10.3019 15.5839
339 1 11.9405 7.98959 16.7062
342 2 8.20013 7.4209 16.9431
341 2 9.30107 6.84563 15.4226
261 3 2.74119 9.65507 8.85857
313 2 9.70154 6.88556 12.3385
168 2 4.93195 9.28587 8.82341
ITEM: TIMESTEP
200
ITEM: NUMBER OF ATOMS
362
ITEM: BOX BOUNDS xy xz yz pp pp pp
-8.3819999999999997e+00 1.7202700000000000e+01 -8.3819999999999997e+00
0.0000000000000000e+00 1.3413013300000001e+01 3.0499999999999999e-02
0.0000000000000000e+00 1.7586700000000000e+01 2.8511330000000079e-01
ITEM: ATOMS id type x y z
3 4 3.6551 0.268739 8.30735
2 4 -0.490391 2.91703 5.26454
5 4 2.63783 2.32304 6.19459
7 4 -0.583114 4.13512 2.30722
14 4 4.98345 2.52697 4.05532
23 4 3.34907 6.47082 4.41866
201 3 7.64893 1.15124 0.888535
60 1 -0.710378 4.55238 6.53481
61 1 2.25817 3.73727 7.43059
70 1 1.58957 6.39567 4.94905
69 1 0.591874 5.69865 1.99613
87 2 -1.23438 5.8324 2.2236
91 2 3.56112 2.24492 0.28699
93 2 4.21181 5.04482 3.825
88 2 -1.46146 3.08201 1.25649
116 2 1.91607 0.814453 2.75597
117 2 -1.29805 5.20559 5.8156
118 2 -0.058814 5.24131 7.12527
119 2 -1.40695 3.92709 7.13344
120 2 1.15285 4.12959 7.15896
121 2 3.09352 4.48839 7.22269
122 2 2.20418 3.41574 8.48621
123 2 -2.52694 5.13526 4.35019
353 2 6.287 0.717418 7.79225
142 2 1.05748 6.49199 1.32456
143 2 1.07139 4.35417 1.3945
144 2 0.961165 5.87265 3.13931
147 2 1.56026 5.14135 4.81318
62 1 -2.47296 6.31038 4.49949
191 3 1.22111 2.25433 5.51013
192 3 2.84454 1.02855 7.09903
194 3 -0.490141 3.55169 3.76792
199 3 4.47059 1.20459 3.39245
200 3 3.84475 2.75451 5.26852
124 2 -2.93452 6.6429 5.53419
203 3 6.49924 2.47233 4.59732
208 3 4.8531 3.85187 3.07416
210 3 5.24478 3.31174 7.87515
287 2 -1.59011 5.72523 7.93617
16 4 8.48869 0.126253 7.37764
149 2 4.77433 5.88036 1.61568
95 2 5.54531 4.86666 5.61281
6 4 0.425946 1.36717 11.9157
9 4 0.573292 4.51878 13.2142
17 4 4.86967 2.7978 9.40513
20 4 4.8041 2.53943 16.7114
24 4 3.53703 6.66043 16.8714
27 4 4.62118 3.47521 13.8431
28 4 0.599683 6.20845 15.7029
29 4 3.31576 6.28517 12.2245
63 1 -0.374996 5.63868 11.9783
67 1 3.4428 4.02514 10.1331
68 1 1.68595 1.39031 10.5445
89 2 2.30411 4.54871 13.5687
205 3 6.0032 3.38209 17.1851
92 2 5.29765 0.917154 16.695
97 2 4.41139 2.0725 12.822
98 2 -0.549657 6.37065 16.9584
99 2 2.64115 5.7816 10.7027
328 2 3.50952 1.01285 14.3488
127 2 -1.15825 4.94362 11.5755
128 2 0.481061 5.85637 11.2494
136 2 3.52092 3.75712 11.2326
137 2 2.33761 4.06446 9.71373
138 2 3.97736 4.98194 9.80975
139 2 2.38729 2.34498 10.4377
140 2 0.978 1.3234 9.6145
141 2 2.24006 0.402016 10.7704
195 3 0.404167 3.03336 12.6811
202 3 4.19258 1.28426 9.42989
348 2 -2.20237 4.65183 10.2583
206 3 6.13713 2.93036 10.4054
207 3 7.52927 1.26078 11.8834
213 3 4.24765 3.03301 15.3586
214 3 0.0224878 5.06755 14.6694
215 3 2.08502 6.02879 16.3034
216 3 3.85092 5.02432 13.13
322 2 0.141845 0.999545 14.4404
326 2 4.27677 0.930188 11.9968
298 2 -2.38642 5.57741 15.5334
283 4 -2.92019 5.39263 8.952
296 4 -3.5582 6.76678 15.027
324 2 -0.0939245 2.28772 15.7594
321 1 -0.530801 1.36582 15.2658
276 3 1.21715 0.387257 13.0079
126 2 -0.78259 6.4911 12.5406
280 2 -1.2635 2.40286 13.8035
154 2 6.76457 2.83234 13.4369
350 2 4.71058 5.58508 17.5526
145 2 0.795183 6.92674 4.40531
59 1 -6.34323 12.7924 2.9228
10 4 -2.3284 8.87988 1.48551
11 4 -3.63221 11.3298 0.303818
159 2 1.41018 10.0989 1.72313
290 2 -3.66063 9.91647 8.46037
362 3 0.692772 12.0998 0.308115
361 2 -5.65295 9.05044 2.64146
31 4 -0.806866 10.8125 3.34241
33 4 1.7611 8.56966 8.23656
34 4 1.00819 10.5134 5.78428
64 1 -1.19207 7.7721 0.223173
66 1 -1.58104 12.8665 8.19075
320 2 -5.07086 11.8742 5.11582
74 1 1.32125 8.93941 1.7791
100 2 -2.08616 11.366 4.26788
114 2 -6.98339 12.4094 3.7523
125 2 -1.58347 6.85176 4.09201
291 2 -5.5304 9.97083 7.72109
130 2 -0.468986 7.01861 0.983812
115 2 -6.45235 12.1723 1.93791
134 2 -1.74954 11.8414 7.54839
319 2 -3.8314 10.6377 4.46106
347 2 -3.42441 12.5931 7.5314
157 2 1.2249 8.55713 2.99205
158 2 0.433328 8.55075 1.17215
196 3 -3.31213 7.84689 2.32089
197 3 -3.16334 9.79785 0.501761
198 3 -3.68004 12.0923 1.67474
211 3 4.18776 6.8542 5.73463
217 3 3.3789 7.49151 3.06258
218 3 3.36863 7.76079 0.153043
219 3 -1.39244 9.68163 2.40644
220 3 -0.298624 12.1816 2.5606
221 3 2.82797 7.35251 8.13939
222 3 0.433209 10.3384 4.37081
223 3 0.980933 9.02272 6.88898
224 3 0.522837 11.8228 6.60699
285 1 -4.74505 9.25806 7.9941
289 2 -4.47639 8.57575 7.13846
318 2 -3.13494 12.21 5.22062
1 4 -4.40413 12.7772 3.0778
317 1 -3.97832 11.675 4.70449
177 2 -6.49134 10.7962 3.12907
8 4 -3.94235 6.71591 3.28142
146 2 1.69411 6.73409 6.06482
19 4 -0.52737 12.9903 12.7029
32 4 0.892017 11.2975 16.7019
35 4 1.50836 8.35903 13.718
36 4 -1.81116 11.837 15.2654
37 4 0.267674 10.1733 11.5369
75 1 -0.836628 9.11336 10.389
299 2 -3.53194 8.41478 15.6671
102 2 0.560049 8.09671 9.38537
103 2 -2.71789 10.5683 14.6284
135 2 -1.69286 12.7168 9.35027
160 2 -0.536307 7.99328 10.42
161 2 -0.664816 9.55448 9.38258
162 2 -2.061 9.24881 10.7097
225 3 0.575403 7.57512 14.8643
226 3 2.33989 7.1763 12.906
227 3 -0.413856 11.2595 15.8324
228 3 -1.43816 12.818 13.9683
229 3 -2.68622 12.4145 16.3678
230 3 0.370927 9.26707 12.7862
231 3 -0.73098 11.5522 11.6226
295 3 -3.62205 6.77805 9.37915
359 2 -5.15767 9.00028 17.2872
272 4 -5.95153 12.8702 13.7806
273 4 -6.37864 11.2613 16.4363
274 2 -4.70567 12.0667 12.3997
297 2 -2.71993 7.62074 13.8473
277 3 -5.12565 11.5582 17.3401
278 3 -6.10626 11.8674 14.9544
284 4 -4.49066 8.21858 9.62616
286 1 -3.99676 9.08216 11.2593
292 2 -3.85606 10.2062 11.0353
293 2 -3.20265 8.57267 11.8708
266 3 2.61445 9.31201 14.4899
294 2 -5.20136 8.77472 11.6792
129 2 -1.94742 7.55067 17.2491
263 3 1.74361 10.4526 10.9246
133 2 -6.20975 10.346 10.5291
101 2 1.18073 9.79516 17.4701
358 2 -3.91852 7.11314 17.0396
327 2 -3.16594 12.9989 13.2819
131 2 -0.611461 8.80771 17.2117
151 2 3.79892 7.07615 14.5187
325 1 -4.15964 13.2482 12.8345
349 2 -5.56756 12.1634 9.03763
15 4 7.36015 2.75308 0.436491
18 4 7.95849 2.47747 5.11085
22 4 6.57772 4.79156 2.5758
25 4 5.92856 4.64754 7.24396
39 4 10.4222 2.08279 3.00243
45 4 12.1101 4.27297 1.40743
354 2 14.7456 2.15564 6.24456
48 4 12.246 3.22296 7.71528
49 4 8.491 5.81306 8.37482
71 1 5.95228 6.07571 1.31505
76 1 15.4325 1.57162 5.48217
77 1 11.871 1.37227 4.07152
80 1 11.9038 3.94863 5.98966
94 2 8.18853 3.95237 5.9093
212 3 5.29455 5.92366 8.01308
106 2 13.1612 1.70965 7.59495
334 2 12.0006 0.315346 7.34801
109 2 11.5958 5.90347 6.587
204 3 8.16972 1.30658 6.13028
163 2 15.7924 0.510274 5.79741
164 2 14.9606 1.57903 4.43674
165 2 12.8513 1.88685 4.26949
167 2 11.2976 1.37131 5.11519
174 2 10.8474 4.33109 6.24117
175 2 11.8622 2.94881 5.30012
176 2 12.6255 4.67721 5.57422
335 2 13.8561 0.506118 6.56663
209 3 7.36688 3.77004 1.71481
232 3 9.98727 0.773426 2.0357
233 3 9.09649 2.43363 4.11877
234 3 13.1106 0.722722 0.406925
236 3 9.43064 0.631487 8.57415
241 3 11.1785 3.22896 2.21322
242 3 13.3161 3.38966 0.56249
243 3 12.9485 5.11239 2.60304
244 3 7.31895 5.57398 3.7326
245 3 11.3103 5.45645 0.588114
246 3 10.8507 3.03273 8.40481
247 3 13.2892 4.23622 8.33955
248 3 7.6562 4.57319 7.38647
250 3 9.56236 6.16214 5.07704
329 1 15.5187 1.20112 1.78288
330 2 14.6917 1.94455 2.02944
331 2 16.1566 1.49059 0.912391
332 2 16.0717 0.781263 2.71454
150 2 6.36954 5.61937 0.340859
166 2 11.9851 0.375142 3.65834
4 4 14.9403 1.15036 10.3422
21 4 7.4901 2.66435 11.0908
40 4 12.9383 2.39183 17.2122
42 4 9.91985 1.94461 9.37755
44 4 12.233 2.33725 11.2386
73 1 6.41176 3.94868 13.8478
79 1 8.06181 5.85123 10.2463
338 2 10.0822 0.832154 12.9421
96 2 7.67237 3.80296 12.3206
104 2 12.1004 3.94255 10.347
110 2 11.9501 2.95256 12.816
312 2 8.44535 6.60078 13.9694
152 2 5.37618 6.48278 15.4195
155 2 7.04863 4.17552 14.7178
156 2 6.5228 4.82234 13.0487
171 2 6.89981 5.53526 10.0435
360 2 8.7485 5.67572 16.9185
193 3 16.188 1.0262 11.2923
237 3 8.69537 2.73194 10.1077
238 3 8.74048 3.45797 17.0525
239 3 13.6374 1.62406 11.1974
240 3 10.9579 1.52405 10.864