ITEM: TIMESTEP
0
ITEM: NUMBER OF ATOMS
362
ITEM: BOX BOUNDS xy xz yz pp pp pp
-8.3819999999999997e+00 1.7202700000000000e+01 -8.3819999999999997e+00
0.0000000000000000e+00 1.3430600000000000e+01 3.0499999999999999e-02
0.0000000000000000e+00 1.7586700000000000e+01 3.0270000000000002e-01
ITEM: ATOMS id type q x y z
13 4 1.61606 8.2712 0.19202 1.88771
2 4 1.00561 -0.718481 2.84143 5.18303
5 4 1.24999 2.34591 2.21189 6.26712
7 4 0.701888 -0.979418 3.58833 1.89015
14 4 1.45032 5.08449 2.60093 4.27172
23 4 1.05902 2.7361 6.07842 4.25897
59 1 -0.655631 2.33047 0.775972 2.31837
60 1 -0.659811 -1.0628 4.29588 6.37875
61 1 -0.668494 2.16161 3.6405 7.4818
203 3 -0.82584 6.76596 2.69293 5.17201
69 1 -0.64729 -0.0320903 5.23091 1.54608
87 2 0.0634041 -1.75714 5.28722 1.36216
353 2 0.176175 6.06163 0.462464 8.07912
93 2 0.0982878 3.67766 4.63941 3.98308
62 1 -0.663717 -2.25006 6.49531 4.29391
116 2 0.177456 2.7182 1.6908 1.75852
205 3 -0.822777 5.77016 3.26286 0.217016
118 2 0.187264 -1.51003 5.11289 5.69635
119 2 0.150886 -0.123942 4.61601 6.98009
120 2 0.159986 1.22852 4.35649 7.31115
121 2 0.223258 3.10974 4.14544 7.30139
210 3 -0.847622 5.14512 3.70342 8.65662
123 2 0.200074 -1.84927 5.61705 3.64886
70 1 -0.64536 0.823819 6.11659 4.52648
3 4 0.919338 3.57731 0.163203 8.46379
143 2 0.024421 0.671583 3.67568 1.04813
144 2 0.177301 0.286658 5.48442 2.67177
147 2 0.157094 0.719618 4.93966 4.40109
124 2 0.167033 -2.50781 6.25169 5.40361
191 3 -0.747901 0.926599 2.22165 5.54334
192 3 -0.748975 2.59452 0.823644 7.33836
194 3 -0.739965 -0.851283 3.30052 3.47589
199 3 -0.785583 4.88067 1.32777 3.41251
200 3 -0.79938 3.75384 2.52468 5.31109
122 2 0.183147 2.15981 3.07229 8.46362
287 2 -0.0130715 -1.53689 5.05692 8.12881
208 3 -0.814207 4.8629 3.82225 3.31991
201 3 -0.821077 7.37848 1.43347 1.11695
350 2 0.036706 4.60699 5.29752 0.407891
142 2 0.169012 0.522076 5.88508 0.884789
117 2 0.128798 -1.92102 3.59256 6.89506
114 2 0.20787 1.62059 0.967792 3.12134
283 4 0.88463 -3.13104 5.55332 8.59305
146 2 0.208555 0.741493 6.45673 5.62817
6 4 1.26832 0.487266 1.11515 12.011
9 4 1.00909 0.866049 4.14278 13.1745
17 4 1.33828 4.90392 2.66835 9.88012
20 4 0.953156 5.11197 2.92644 16.5386
24 4 1.1031 3.50366 6.55044 17.0732
27 4 1.03183 5.39806 4.53512 13.7713
28 4 1.21656 0.856611 5.65285 15.862
276 3 -0.821965 1.50384 0.31462 12.9624
63 1 -0.701933 0.525145 5.44986 11.8292
67 1 -0.683089 3.69436 3.31959 11.2842
68 1 -0.690951 1.2819 1.46691 10.297
89 2 0.0080118 2.5477 4.08689 12.7347
91 2 -0.0338515 3.47757 2.49122 16.7218
92 2 0.0924702 5.69442 1.32805 16.4251
97 2 -0.00528164 5.29312 3.36505 12.484
98 2 -0.0316681 -0.182304 5.30967 17.1602
99 2 -0.0367979 2.44966 5.75154 11.4986
126 2 0.139834 -0.65333 5.39692 11.9921
127 2 0.132721 0.867912 4.96983 10.919
348 2 -0.0166345 -3.12031 5.42217 10.3379
136 2 0.147659 3.83154 2.6428 12.1249
137 2 0.140998 2.58252 3.32088 10.9177
138 2 0.133128 4.21834 4.4021 11.3426
139 2 0.150583 1.51729 2.55671 10.5201
140 2 0.177698 1.09942 1.32632 9.20088
141 2 0.181863 2.20484 0.824353 10.5953
195 3 -0.813744 0.364616 2.61806 12.6787
202 3 -0.810872 4.13464 1.30948 9.36857
297 2 -0.0219933 -2.25862 6.18492 14.5351
206 3 -0.857662 6.24714 2.35543 10.6429
328 2 0.00804675 3.82703 0.780656 14.5123
213 3 -0.826269 5.26576 3.7491 15.1956
214 3 -0.825451 0.627175 4.58472 14.6974
215 3 -0.817751 2.34994 5.62201 16.4639
216 3 -0.86448 4.54994 5.68231 13.2192
29 4 0.969633 3.40745 6.59971 12.5541
207 3 -0.850122 7.95558 0.863739 12.0285
128 2 0.184824 0.896613 6.50404 11.9649
86 2 -0.0192117 -0.49263 1.65843 9.45784
324 2 0.208497 0.0547973 2.01727 14.8868
327 2 0.172967 4.18484 0.593766 12.0488
320 2 0.166148 -5.69059 11.9136 4.68193
347 2 -0.0306757 -3.54245 12.3198 7.90384
10 4 1.2628 -2.52924 9.06931 1.53585
26 4 1.30993 3.97834 7.01954 6.93267
101 2 -0.00586738 1.15201 9.7333 0.431807
8 4 1.32969 -3.8836 6.72778 3.31409
159 2 0.169708 1.25616 10.0801 2.12081
362 3 -0.853919 0.135228 12.1732 0.813076
31 4 1.31371 -1.20531 11.0119 3.67187
33 4 1.21432 1.64207 8.42294 8.23908
34 4 1.34585 0.667836 10.3831 6.10715
64 1 -0.669884 -1.44033 7.8865 0.495527
66 1 -0.66601 -1.6311 12.7803 8.42307
291 2 0.160283 -4.11127 9.76404 5.63741
74 1 -0.657379 1.08815 8.94539 2.24808
100 2 -0.000853407 -2.66245 11.3095 4.47563
319 2 0.162937 -4.29413 10.8767 4.08408
30 4 1.23961 2.83784 8.27858 1.99391
318 2 0.166952 -3.98747 12.2829 5.27958
130 2 0.169419 -0.872498 6.93295 0.811709
221 3 -0.78048 2.50625 7.07324 7.94266
134 2 0.154268 -1.80785 11.7535 7.98518
284 4 0.780274 -3.90332 8.58693 7.6585
317 1 -0.682004 -4.56223 11.9174 4.43288
157 2 0.21595 0.845566 8.68507 3.34705
158 2 0.180415 0.242197 8.49022 1.52818
196 3 -0.805565 -3.54541 7.89304 2.37742
197 3 -0.855207 -3.40763 10.0525 0.485346
198 3 -0.81476 -3.73198 12.4223 1.62684
16 4 1.3198 0.128266 13.2441 7.70921
217 3 -0.825913 2.88616 7.13117 3.07617
218 3 -0.81411 2.98557 7.42366 0.267035
219 3 -0.823334 -1.53387 9.90207 2.57696
220 3 -0.836263 -0.7071 12.4118 3.13293
145 2 0.17692 0.250559 6.71559 3.73597
222 3 -0.836756 -0.193108 10.3665 4.75056
223 3 -0.813959 0.692793 9.06457 7.04599
224 3 -0.788281 0.43857 11.7738 6.90543
285 1 -0.659921 -3.19603 9.08557 6.03434
289 2 0.199163 -2.90327 8.18768 5.30963
11 4 1.40202 -3.85662 11.5912 0.224086
290 2 0.148905 -2.27 9.69321 6.43653
178 2 0.2108 -5.76921 9.3991 2.26976
125 2 0.180791 -1.70969 7.52702 4.12851
295 3 -0.772142 -3.45401 6.99183 8.14536
288 2 0.0402912 -5.57529 9.26696 8.35672
361 2 0.169488 -6.78552 10.9708 1.92431
211 3 -0.820298 3.32143 6.74893 5.54102
293 2 0.123681 -3.25778 10.6045 8.63416
1 4 1.17932 -4.35159 13.1489 2.86909
131 2 0.176926 -0.652703 8.66371 0.102752
115 2 0.172765 -6.38686 12.9883 1.56628
19 4 1.32831 -0.0537421 12.7304 12.8593
32 4 1.28724 0.462343 11.4668 17.2342
35 4 1.48851 1.44842 8.15374 14.302
36 4 1.23855 -1.81394 11.92 15.4853
37 4 1.30616 0.484648 9.74897 11.8555
75 1 -0.666462 -0.746625 9.07637 10.5764
65 1 -0.659874 -6.61808 11.092 10.8421
102 2 -0.0120836 0.589784 8.03517 9.61414
103 2 -0.00990458 -2.74984 10.7494 14.6081
286 1 -0.680566 -4.06501 9.91527 9.13312
160 2 0.155243 -0.860124 7.94931 10.8381
161 2 0.164993 -0.518289 9.32001 9.47984
162 2 0.173236 -1.70522 9.65757 10.9196
225 3 -0.785747 0.450571 7.15704 15.3329
226 3 -0.873149 2.53629 7.2554 13.573
227 3 -0.835651 -0.714832 10.9954 16.3693
228 3 -0.782009 -0.990413 12.7856 14.4584
229 3 -0.819561 -2.81472 12.7978 16.4028
230 3 -0.812779 0.496308 8.70813 12.9759
231 3 -0.780676 -0.285902 11.2521 12.4118
129 2 0.159385 -2.10776 7.88509 17.2738
299 2 -0.0026886 -3.41141 7.3625 16.0847
272 4 1.07452 -5.71369 12.788 13.7734
273 4 1.20371 -6.27618 11.1422 16.2793
274 2 0.197777 -2.9897 13.1457 13.2406
132 2 0.151597 -5.5335 11.2508 10.7725
277 3 -0.844274 -5.39237 11.931 17.3015
278 3 -0.810361 -5.91861 11.5212 14.6769
326 2 0.135111 -4.11388 11.8168 12.4717
266 3 -0.825286 2.1522 9.51157 14.9652
292 2 0.150022 -5.02205 10.4637 9.4471
294 2 0.15801 -3.62096 9.35442 10.0399
135 2 0.206555 -1.51519 12.7759 9.59133
263 3 -0.826768 1.96239 10.1994 11.1777
352 2 0.208543 -6.87141 11.2475 11.8875
325 1 -0.694354 -4.03904 12.9905 12.9082
90 2 0.116692 -7.31076 12.0927 10.0141
359 2 0.219314 -4.6687 8.76098 17.5719
349 2 -0.00903115 -5.67008 12.0864 9.39676
15 4 1.48871 7.31003 2.98866 0.755744
18 4 1.32952 8.26251 2.50525 5.75714
22 4 1.27786 6.44535 4.90828 2.88085
330 2 0.168539 14.9969 1.46061 2.43537
39 4 1.36396 10.3413 1.96282 3.22097
45 4 1.53476 12.1109 4.303 1.59821
354 2 0.142906 13.9904 2.18203 5.55238
48 4 1.01149 12.243 3.13397 7.62684
329 1 -0.678871 15.4546 0.536485 2.03148
71 1 -0.688475 5.82693 6.26471 1.64982
76 1 -0.68192 15.0508 1.58444 5.48286
77 1 -0.666386 11.6621 0.769751 3.83585
80 1 -0.682581 12.2004 3.10872 5.74697
94 2 -0.00367905 8.50109 3.7744 6.77629
331 2 0.138409 16.2894 0.687181 1.22079
106 2 -0.00669317 13.2153 1.69286 7.63511
109 2 -0.0149639 11.3269 6.64457 7.0079
335 2 0.1504 13.7958 0.434799 6.53543
150 2 0.156739 6.00505 6.15706 0.528331
163 2 0.144881 15.2042 0.840992 6.34562
164 2 0.153489 15.1351 1.08134 4.45228
165 2 0.158943 12.7494 1.23317 3.67747
167 2 0.157456 11.4622 0.527862 4.91489
174 2 0.196975 11.04 3.38091 5.67114
175 2 0.164612 12.484 2.14282 5.18137
176 2 0.188543 12.8951 3.95902 5.45729
204 3 -0.87251 8.39978 1.31863 6.71505
209 3 -0.758953 7.53125 3.89007 2.08425
232 3 -0.83983 9.62678 0.940654 2.24882
233 3 -0.790875 9.34399 2.40986 4.62025
234 3 -0.837028 13.1637 0.727513 0.245171
248 3 -0.842826 7.28087 5.25682 8.23637
241 3 -0.770836 11.1978 3.27128 2.45663
242 3 -0.872631 13.0566 3.37743 0.616931
243 3 -0.811976 13.1178 5.31223 2.57312
244 3 -0.846324 7.17031 5.73527 4.00408
245 3 -0.785337 11.1723 5.26654 0.67518
246 3 -0.830147 10.9352 2.7679 8.50783
247 3 -0.810704 13.0065 4.48467 7.98898
250 3 -0.79164 9.40571 6.64179 5.07865
149 2 0.187034 4.76576 6.42905 1.90229
49 4 1.05207 8.49404 6.24313 8.7146
25 4 1.29806 5.92032 4.68089 7.70863
212 3 -0.857828 5.04002 5.91629 7.32413
88 2 -0.0207626 15.6412 2.20243 0.983053
334 2 0.174302 12.2282 0.264941 7.80032
95 2 0.0577721 6.28675 3.75916 6.32064
4 4 1.24425 15.3703 0.759098 10.1996
21 4 1.28031 7.62549 2.30909 11.3516
323 2 0.166133 16.3572 1.03029 16.3056
42 4 1.4411 10.0519 1.86528 9.66562
44 4 1.03814 12.8018 2.31062 11.1158
73 1 -0.669318 7.25078 5.02565 13.6753
79 1 -0.659623 8.67636 6.44428 10.6191
338 2 0.235665 10.5962 0.539096 12.373
96 2 -0.0101693 7.66071 3.41934 12.7158
104 2 0.0857398 12.4161 4.08289 10.2863
110 2 0.0265459 13.0749 2.77786 12.8601
341 2 0.168323 9.48208 6.77508 15.2127
154 2 0.136818 7.3399 5.16588 12.5311
155 2 0.256203 8.21069 4.61499 14.1125
156 2 0.164366 7.08311 6.06405 14.2729
171 2 0.166632 9.0182 5.60189 11.2827
360 2 0.283777 8.91447 5.56909 16.6433
193 3 -0.767211 16.2287 0.315478 11.5329
237 3 -0.812355 8.82496 2.78745 10.421
238 3 -0.799219 8.70441 3.79233 17.1004
239 3 -0.861495 14.1043 1.63087 10.5481
240 3 -0.800633 11.3445 1.68767 10.9686
279 4 1.09076 14.5912 1.49873 14.9076
340 1 -0.671966 9.09337 6.62958 16.3262
281 3 -0.83145 13.908 2.63576 15.7615
40 4 1.49891 12.775 2.41653 17.2508
304 1 -0.672887 10.2338 6.73982 13.2702
300 4 1.30053 9.78423 3.0942 16.246
301 4 1.01831 10.9108 5.09054 13.8773
302 1 -0.660884 8.83602 1.55218 15.7931
303 1 -0.659201 13.1926 4.23512 11.629
172 2 0.136359 7.36889 6.60534 10.6002
306 2 0.172516 8.66949 1.79863 14.6896
280 2 0.0548793 15.6761 2.4323 13.8743
308 2 0.151045 12.8272 5.21561 12.0731
313 2 0.126167 10.6614 6.57809 12.1757
310 2 0.00511352 11.3933 4.27621 12.4495
314 3 -0.813379 11.2171 2.55571 16.8059
315 3 -0.790908 9.89368 4.18239 14.5555
316 3 -0.774831 12.3031 5.46576 14.7368
107 2 0.0155965 9.91019 5.50151 9.48872
358 2 0.0615487 13.1729 6.32325 17.2424
305 2 0.280934 9.45986 0.480899 15.953
309 2 0.125961 14.373 4.25602 11.4846
321 1 -0.679624 16.4572 1.18801 15.1574
236 3 -0.795759 9.48496 0.509683 9.13718
298 2 0.0699292 14.333 4.23369 16.1224
296 4 0.652062 13.6139 5.6873 15.5565
307 2 0.209324 7.86159 1.50444 16.3391
282 3 -0.808052 13.8543 0.263745 14.1939
38 4 1.2972 5.77021 12.7351 0.928973
181 2 0.169769 3.31307 10.4784 6.39133
260 3 -0.824206 9.10152 10.1315 8.34025
50 4 1.24369 10.801 7.31248 5.5951
51 4 1.2935 9.19772 8.8925 1.84251
52 4 1.25523 4.63787 10.588 3.00904
54 4 1.35483 8.95132 9.00941 7.14703
56 4 0.922706 6.83403 10.7817 5.0124
78 1 -0.684942 4.89845 8.77317 6.94962
81 1 -0.681139 10.5046 10.0133 2.57563
82 1 -0.650629 2.54954 10.8446 5.60408
83 1 -0.661133 8.247 11.5831 4.11475
105 2 0.092689 7.07129 7.97419 5.51801
111 2 -0.0108619 3.53164 11.3926 4.03071
112 2 -0.0213022 5.94483 11.8059 6.08937
113 2 0.00446551 5.60379 10.3658 7.96395
148 2 0.205499 6.50716 7.15538 2.12129
166 2 0.197398 3.03285 12.9796 3.11951
265 3 -0.764301 7.57761 9.35275 6.18902
332 2 0.176791 7.49489 12.9366 2.84343
169 2 0.184231 4.20161 9.58931 7.21636
170 2 0.189331 5.17805 8.75276 5.78921
177 2 0.202664 10.4028 10.1573 3.70155
168 2 0.197998 5.78639 8.66326 7.66488
179 2 0.1657 2.58126 11.9745 5.39374
46 4 1.27046 7.9909 7.07803 4.45106
180 2 0.142613 2.43808 10.2164 4.60204
182 2 0.200482 7.91677 11.3416 2.97823
183 2 0.180932 9.33491 11.3167 4.31083
333 1 -0.661599 4.64866 12.8223 7.13245
249 3 -0.768236 11.9929 7.10774 4.56422
251 3 -0.745429 8.4306 8.06339 3.16517
252 3 -0.818635 9.95414 7.76158 1.04043
253 3 -0.842991 3.85827 9.49457 2.19258
254 3 -0.82662 5.0447 11.7636 2.07477
256 3 -0.76876 8.06346 9.89106 0.934121
355 2 0.152845 3.97001 12.1595 6.43899
258 3 -0.865987 8.77491 7.56565 7.97106
259 3 -0.797741 10.4346 8.83895 6.01584
184 2 0.128672 7.94474 12.724 4.46712
264 3 -0.803673 5.83119 10.0631 3.94114
47 4 1.1595 10.597 6.68839 0.0434474
261 3 -0.85094 2.60329 9.586 8.75571
187 2 0.226898 4.0076 10.6331 0.0741939
12 4 1.06072 9.0246 10.1511 9.91624
43 4 1.28581 4.80101 12.0698 13.4563
53 4 1.24396 7.77535 11.0235 17.0653
55 4 1.43036 3.22572 10.2082 10.075
57 4 1.30037 2.9882 10.8065 15.5506
58 4 1.21569 6.11304 9.68918 11.7228
357 2 0.112381 11.7799 7.86746 15.8742
72 1 -0.69306 4.6168 7.4328 15.7897
84 1 -0.683097 4.13167 10.1518 16.8717
85 1 -0.663146 6.51643 8.17177 12.6883
345 2 0.222127 6.40155 10.4063 15.0004
108 2 0.0822055 3.99948 7.8692 11.5028
346 2 0.147797 6.73748 8.97392 16.3123
336 1 -0.681106 1.84803 12.8258 13.0967
342 2 0.174152 8.32117 7.35035 16.6509
153 2 0.216551 4.2582 8.45993 15.5509
351 2 0.0401143 3.63586 12.5221 12.3133
185 2 0.195648 5.29778 9.97566 16.4941
186 2 0.263159 3.74448 9.18608 17.2867
337 2 0.1978 1.82979 13.1047 14.222
188 2 0.169501 7.70384 8.32249 12.6877
189 2 0.178967 6.19946 7.2065 12.2546
190 2 0.167601 5.96313 8.45358 13.7343
235 3 -0.832455 6.52772 12.751 9.23658
255 3 -0.782734 9.36572 11.4793 16.4698
262 3 -0.827654 4.02137 11.5801 9.67856
356 2 0.217563 2.16581 11.6944 12.9185
267 3 -0.858634 3.9376 11.3727 14.4935
268 3 -0.783414 1.75142 12.0765 16.2976
269 3 -0.758877 7.67566 9.92831 10.7228
270 3 -0.781767 4.61137 9.18048 10.7745
271 3 -0.8007 5.74485 10.8861 12.7046
344 2 0.16261 8.13554 9.56719 15.1378
133 2 0.0133193 10.3257 9.2023 10.6823
311 2 0.157675 10.749 7.55546 13.8109
339 1 -0.628612 12.1603 7.81536 17.0331
275 2 -0.0222461 11.1828 9.43987 16.4225
343 1 -0.665919 7.13362 9.85327 15.7029
322 2 0.237194 8.24034 13.3332 14.6402
152 2 0.13199 5.59218 7.42482 16.3352
173 2 0.156887 9.14143 7.45952 10.8107
257 3 -0.787503 6.60957 12.1444 17.3036
312 2 0.172337 9.09776 6.812 13.302
151 2 0.246051 4.64069 6.83292 14.8475
41 4 1.08652 5.27938 11.8606 8.79775
ITEM: TIMESTEP
100
ITEM: NUMBER OF ATOMS
362
ITEM: BOX BOUNDS xy xz yz pp pp pp
-8.3819999999999997e+00 1.7202700000000000e+01 -8.3819999999999997e+00
0.0000000000000000e+00 1.3430600000000000e+01 3.0499999999999999e-02
0.0000000000000000e+00 1.7621873400000002e+01 3.0270000000000002e-01
ITEM: ATOMS id type q x y z
13 4 1.65102 8.18603 0.13581 1.78885
2 4 1.03421 -0.722824 2.73837 5.14182
5 4 1.20207 2.46543 2.38981 6.27688
7 4 0.704102 -0.981383 3.76887 1.91655
14 4 1.49068 4.97234 2.68876 4.35269
23 4 1.09636 2.8437 6.02261 4.18019
59 1 -0.672627 2.38732 0.810185 2.55214
60 1 -0.632641 -1.00448 4.27187 6.33911
61 1 -0.660919 2.25165 3.78022 7.49108
203 3 -0.767631 6.6972 2.71609 5.19219
69 1 -0.640933 0.124757 5.34428 1.4732
87 2 0.0452147 -1.72759 5.36705 1.52276
353 2 0.181666 6.02748 0.67059 7.66875
93 2 0.0893942 3.3887 4.517 3.56178
62 1 -0.680907 -2.371 6.36371 4.34726
116 2 0.165509 2.50169 1.90625 2.4644
145 2 0.170805 0.369851 6.58167 4.03261
118 2 0.192342 -1.52217 5.06337 5.61651
119 2 0.155709 0.016129 4.60071 6.80135
120 2 0.149658 1.19176 4.27903 7.54911
121 2 0.217085 3.15994 4.47266 7.15071
16 4 1.34582 8.48695 0.157317 7.83143
123 2 0.198903 -2.22633 5.34278 3.86758
70 1 -0.689252 0.97454 5.7753 4.53413
3 4 0.930894 3.46279 0.342561 8.41787
143 2 0.0227719 0.740212 3.75868 1.09988
144 2 0.178729 0.485634 5.54812 2.58524
147 2 0.19876 0.796296 4.73896 4.18186
124 2 0.155762 -2.80839 6.28954 5.41207
191 3 -0.731245 0.810274 2.33236 5.445
192 3 -0.749438 2.68326 0.824742 7.09416
194 3 -0.743107 -0.876652 3.39453 3.48213
199 3 -0.784402 5.04248 1.20345 3.76511
200 3 -0.860144 3.84108 2.76414 5.41813
122 2 0.180713 2.4764 3.10685 8.48971
287 2 0.0017229 -1.51974 5.20768 8.00041
208 3 -0.858371 4.87695 3.88436 3.40261
201 3 -0.848313 7.24793 1.30157 1.24611
350 2 0.00694593 4.40084 5.31105 0.533971
142 2 0.177454 0.628749 6.06094 0.746331
117 2 0.139698 -1.67176 3.48246 7.03434
114 2 0.191741 1.59926 0.535258 3.28772
283 4 0.911664 -3.14039 5.44866 8.54788
146 2 0.191076 0.942933 5.91372 5.63759
95 2 0.080937 6.05572 3.69667 6.31495
115 2 0.188562 2.18437 0.286914 1.51991
211 3 -0.833379 3.56053 6.60638 5.44533
6 4 1.17859 0.373395 1.09834 11.9522
9 4 1.01414 0.794231 4.13779 13.01
17 4 1.37993 4.98651 2.62088 9.85522
20 4 0.97522 5.18209 2.85517 16.3869
24 4 1.07237 3.38873 6.54137 17.1287
27 4 1.04243 5.46515 4.37538 13.6285
28 4 1.21279 0.897383 5.7225 15.7152
205 3 -0.863737 6.05521 3.50973 17.4516
63 1 -0.685324 0.419993 5.45001 11.702
67 1 -0.668984 3.80479 3.4755 11.1637
68 1 -0.687517 1.07884 1.41571 10.2598
89 2 0.0112687 2.48042 4.09692 12.4956
91 2 -0.0415816 3.66324 2.76697 16.9737
92 2 0.0897236 5.44864 1.13436 16.3599
97 2 0.0247893 5.41101 3.21676 12.332
98 2 -0.0194242 -0.0504002 5.24627 17.1303
99 2 -0.0271333 2.28195 6.06297 11.5597
126 2 0.124227 -0.747091 5.04286 11.6098
127 2 0.121461 0.940952 5.34901 10.6177
348 2 -0.0138027 -3.01478 5.32304 10.2831
136 2 0.1247 3.75374 2.90602 12.2247
137 2 0.151575 2.77605 3.42568 10.7608
138 2 0.165855 4.04716 4.57928 11.1924
139 2 0.140839 0.824299 2.53525 10.1971
140 2 0.143734 0.767219 0.708485 9.41585
141 2 0.177075 2.19706 1.17113 10.595
195 3 -0.810796 0.204734 2.60807 12.6459
202 3 -0.868778 4.07033 1.48739 9.28048
297 2 -0.0400818 -2.3313 5.7715 14.7095
206 3 -0.842091 6.35864 2.32413 10.6396
328 2 -0.0047872 3.81146 0.954334 14.1424
213 3 -0.820417 5.32929 3.46435 14.9371
214 3 -0.812334 0.588123 4.64151 14.4853
215 3 -0.802975 2.37636 5.55818 16.2572
216 3 -0.842131 4.40776 5.45723 13.2438
29 4 0.945437 3.41454 6.68065 12.6874
207 3 -0.827948 7.82255 0.93026 12.1536
128 2 0.190466 0.481339 6.50726 12.1476
86 2 -0.0202873 -0.702762 1.71634 9.47411
324 2 0.181471 -0.0882486 1.97951 15.2661
327 2 0.180207 4.27962 0.23293 11.7204
151 2 0.265021 4.55051 6.49232 14.9125
135 2 0.211981 6.74392 0.361814 9.38667
210 3 -0.839657 5.3011 3.75212 8.83449
320 2 0.167505 -5.79494 11.836 4.44547
347 2 -0.0190518 -3.60368 12.4708 8.06492
10 4 1.3124 -2.586 9.01298 1.53376
26 4 1.32558 4.05496 6.96781 6.94361
101 2 -0.00336111 1.04437 9.62089 0.407356
8 4 1.32873 -4.07386 6.67904 3.37077
159 2 0.16287 1.21541 10.2038 2.10755
362 3 -0.880197 0.18194 12.2062 0.705909
31 4 1.33761 -1.24535 11.0271 3.62876
33 4 1.23991 1.73974 8.49643 8.26189
34 4 1.21522 0.848938 10.4371 6.1074
64 1 -0.661972 -1.31009 7.99471 0.438568
66 1 -0.684182 -1.70585 13.1048 8.3442
291 2 0.17797 -3.97193 9.66414 5.4842
74 1 -0.677356 1.09255 9.06655 2.32561
100 2 0.0176411 -2.68124 11.4237 4.4805
319 2 0.168122 -4.30778 10.7 3.88952
30 4 1.22579 2.74586 8.24811 2.05359
318 2 0.156486 -4.15916 11.8728 5.39347
130 2 0.175372 -0.80412 7.01443 0.840492
221 3 -0.776752 2.68741 7.21849 8.05266
134 2 0.151652 -1.95427 12.0094 8.28635
284 4 0.786506 -3.99088 8.4706 7.67613
317 1 -0.645805 -4.63226 11.7379 4.32686
157 2 0.199998 0.827657 8.82904 3.42562
158 2 0.185668 0.220582 8.62291 1.64827
196 3 -0.799555 -3.45556 7.96686 2.33333
197 3 -0.872081 -3.5061 9.92902 0.444315
198 3 -0.841389 -3.77546 12.3445 1.78956
293 2 0.108143 -3.15757 10.2631 8.76483
217 3 -0.851333 2.90336 6.99423 2.98004
218 3 -0.792305 2.79544 7.46241 0.312806
219 3 -0.839335 -1.64835 9.97643 2.51074
220 3 -0.825311 -0.749411 12.397 3.09714
131 2 0.188099 -0.513765 8.73052 0.0208744
222 3 -0.802384 -0.248985 10.457 4.74113
223 3 -0.808914 0.797932 9.01909 7.13341
224 3 -0.755016 0.529684 11.9217 7.03653
285 1 -0.669722 -3.31219 9.0197 6.0747
289 2 0.182012 -2.8986 8.00519 5.41136
11 4 1.43072 -3.79973 11.5076 0.402105
290 2 0.14811 -2.43628 9.62616 6.54596
1 4 1.18878 -4.26892 13.1519 2.99735
125 2 0.183203 -1.58055 7.10986 4.15628
295 3 -0.796923 -3.62413 6.89516 8.09551
288 2 0.0526617 -5.56292 9.15655 8.48538
19 4 1.30979 -0.139728 12.7065 13.0296
32 4 1.26043 0.506457 11.3796 17.2308
35 4 1.47447 1.42928 8.25955 14.2519
36 4 1.26886 -1.8315 11.9054 15.4779
37 4 1.3111 0.555282 9.89873 11.7212
75 1 -0.659496 -0.705754 9.23769 10.4345
65 1 -0.640406 -6.59753 11.139 10.7013
102 2 -0.00509878 0.581253 8.08668 9.53443
103 2 -0.0126083 -2.83252 10.9244 14.4461
286 1 -0.656536 -4.04282 9.62359 9.33411
160 2 0.143943 -0.795757 8.05583 10.5955
161 2 0.16992 -0.342516 9.48388 9.41182
162 2 0.177507 -1.70767 9.79887 10.6598
225 3 -0.769377 0.45704 7.25245 15.4471
226 3 -0.870345 2.64241 7.40674 13.7509
227 3 -0.810206 -0.810705 10.9657 16.2995
228 3 -0.807936 -1.00861 12.8575 14.6001
229 3 -0.809527 -2.76182 12.6535 16.5817
230 3 -0.827475 0.583278 8.73933 12.8809
231 3 -0.81526 -0.237581 11.3673 12.2885
129 2 0.170784 -2.00986 8.1183 17.1672
299 2 0.00746333 -3.3899 7.27224 15.8894
272 4 1.02967 -5.62311 12.6816 13.7381
273 4 1.22904 -6.19334 11.2952 16.3709
274 2 0.176738 -3.13343 13.0897 13.366
132 2 0.13795 -5.5355 11.3026 10.3157
277 3 -0.825483 -5.36611 12.0013 17.4986
278 3 -0.84502 -5.63517 11.5947 14.8889
326 2 0.123538 -4.11743 11.5509 12.5018
266 3 -0.817601 2.09023 9.45337 15.1675
292 2 0.147954 -4.53832 10.3645 10.0856
294 2 0.156651 -3.60246 8.75803 9.95264
352 2 0.221391 -6.74752 11.3516 11.7848
263 3 -0.858954 1.98527 10.1134 11.099
349 2 0.00442369 -6.0495 12.4752 9.34281
325 1 -0.670605 -4.04189 12.8483 12.7294
276 3 -0.774397 -6.87523 13.1428 12.8208
359 2 0.233821 -4.54191 8.83816 17.2708
275 2 0.0085205 -5.89427 9.63248 16.7856
15 4 1.50834 7.30643 2.88613 0.739991
18 4 1.26513 8.33228 2.71905 5.7316
22 4 1.2884 6.51047 4.90514 2.95155
330 2 0.165066 14.8708 1.66922 2.40189
39 4 1.4322 10.2889 2.02276 3.19277
45 4 1.51127 12.0246 4.26434 1.67816
354 2 0.15362 14.0035 2.22559 5.64427
48 4 1.03803 12.2977 3.06514 7.62607
329 1 -0.660184 15.5045 0.755431 1.95084
71 1 -0.678055 5.87021 6.1414 1.626
76 1 -0.690826 15.0051 1.52867 5.55797
77 1 -0.675016 11.7839 0.956466 3.80471
80 1 -0.653532 12.4163 3.43117 5.76478
94 2 0.0310823 8.63376 4.18161 6.38576
331 2 0.149553 16.368 0.964334 1.23957
106 2 0.000911102 13.1915 1.56928 7.6519
212 3 -0.859246 4.98677 5.88223 7.52246
335 2 0.152997 13.6004 0.39559 6.45517
150 2 0.178237 6.0434 5.72832 0.587559
163 2 0.14405 15.2593 0.860127 6.45199
164 2 0.149706 15.0718 1.00317 4.55308
165 2 0.182478 12.663 1.60501 3.68287
167 2 0.157732 11.4097 0.752787 4.88187
174 2 0.165087 11.3967 4.14047 5.82933
175 2 0.171579 12.2001 2.47699 5.09837
176 2 0.182917 13.3189 4.06943 5.42845
204 3 -0.784595 8.41857 1.49887 6.75313
209 3 -0.771558 7.53597 4.02665 2.03998
232 3 -0.823495 9.48897 0.98306 2.28896
233 3 -0.794922 9.40934 2.53466 4.53326
234 3 -0.816797 12.8823 0.912439 0.527521
248 3 -0.855826 7.39421 5.0359 8.052
241 3 -0.821354 11.1494 3.20516 2.48949
242 3 -0.856295 13.2345 3.43484 0.706241
243 3 -0.831707 12.8152 5.2876 2.68539
244 3 -0.858862 6.97183 5.79553 4.20718
245 3 -0.788305 11.114 5.32777 0.690421
246 3 -0.833384 10.957 2.77347 8.37226
247 3 -0.846526 13.3664 4.14941 8.10681
334 2 0.183914 12.0772 0.234154 7.75506
149 2 0.182997 4.75435 6.15184 2.00009
49 4 1.03132 8.32692 6.27771 8.67169
25 4 1.33383 5.94329 4.65771 7.73086
250 3 -0.797723 9.42423 6.50208 5.10391
88 2 -0.00566621 15.6018 2.45399 0.938453
109 2 -0.0206146 11.3938 6.43644 6.76627
4 4 1.2365 15.2392 0.669465 10.1626
21 4 1.28714 7.79977 2.27813 11.3329
323 2 0.183182 16.076 0.860724 16.4876
42 4 1.41667 10.1527 1.84355 9.64908
44 4 1.04373 12.7665 2.3692 11.0636
73 1 -0.671483 7.2517 5.11867 13.5755
79 1 -0.670131 8.72228 6.32997 10.5387
338 2 0.230139 10.4633 0.675233 12.4041
96 2 -0.00110502 7.76318 3.58165 12.4711
104 2 0.0688091 12.5182 4.29312 10.3827
110 2 0.0240626 13.0189 2.88152 12.8552
341 2 0.17257 9.51332 6.60808 15.2857
154 2 0.127802 7.27125 5.31436 12.3849
155 2 0.258025 8.27356 4.65668 13.9975
156 2 0.175488 6.98083 6.10003 14.06
171 2 0.173797 8.88464 5.31312 11.0012
360 2 0.270452 8.95584 5.49121 16.8381
193 3 -0.745734 16.0729 0.255776 11.5098
237 3 -0.843216 8.99329 2.76262 10.4393
238 3 -0.812046 8.67197 3.54726 17.2616
239 3 -0.861032 14.0043 1.6059 10.5388
240 3 -0.821189 11.3627 1.65791 10.9598
279 4 1.10816 14.5686 1.49193 14.8567
340 1 -0.644385 9.20468 6.54477 16.4425
281 3 -0.831633 13.8733 2.49744 15.8431
40 4 1.4652 12.7141 2.50769 17.3445
304 1 -0.662021 10.1239 6.64347 13.3374
300 4 1.29348 9.69207 3.04206 16.1809
301 4 1.03887 10.884 4.97848 13.828
302 1 -0.645061 9.02584 1.44418 15.5419
303 1 -0.667731 13.3283 4.32202 11.7348
358 2 0.0429017 13.1931 6.39743 17.2158
306 2 0.188347 9.00337 1.64317 14.3887
280 2 0.0679554 15.6817 2.19101 13.7439
308 2 0.157756 13.1909 5.21865 12.4388
313 2 0.117024 10.7362 6.68769 12.2886
310 2 -0.00577632 11.4044 4.18027 12.3657
314 3 -0.808425 11.2117 2.74096 16.6662
315 3 -0.793127 9.81989 4.11482 14.4917
316 3 -0.799223 12.1813 5.30961 14.744
107 2 0.0108948 9.89394 5.66386 9.11233
312 2 0.184281 9.02993 6.70664 13.1897
305 2 0.285192 9.49665 0.344129 15.8946
309 2 0.143928 14.3878 4.23257 11.5368
321 1 -0.672252 16.377 1.13809 15.2954
236 3 -0.816215 9.51683 0.47355 9.01995
298 2 0.0691585 14.2646 4.1197 16.0834
296 4 0.684235 13.4189 5.55014 15.6025
307 2 0.189315 7.93276 1.60878 16.0967
337 2 0.202044 10.4127 0.310396 14.2895
282 3 -0.845593 13.9394 0.247009 14.1995
38 4 1.30696 5.78796 12.8828 0.957192
181 2 0.164237 3.36296 10.1727 6.3301
260 3 -0.819012 9.18062 10.1826 8.27103
50 4 1.22888 10.7929 7.33684 5.51938
51 4 1.37422 8.87599 8.73257 1.87345
52 4 1.26131 4.69369 10.6449 2.92324
54 4 1.40901 8.91079 9.06692 7.05747
56 4 0.950124 6.74811 10.7781 5.047
78 1 -0.673543 5.07573 8.65937 7.05222
81 1 -0.654367 10.1953 9.94414 2.56376
82 1 -0.68809 2.64509 10.5376 5.50066
83 1 -0.675719 8.22272 11.5499 4.31156
105 2 0.0927961 7.16638 7.98057 5.48992
111 2 -0.0109227 3.45395 11.3452 3.88699
112 2 -0.0287011 5.84555 11.9993 5.98653
113 2 0.0185344 5.63285 10.2698 7.921
148 2 0.216149 6.38494 7.17063 1.67817
187 2 0.216464 3.82236 10.7703 0.229492
265 3 -0.802757 7.60433 9.41369 6.2116
332 2 0.177605 7.35897 13.0581 2.7273
169 2 0.167817 4.29873 9.5363 7.17937
170 2 0.174477 5.40282 8.58441 5.94026
177 2 0.202163 10.4784 9.79037 3.67006
168 2 0.228869 5.91271 8.67894 7.73008
179 2 0.149394 2.6106 11.7265 5.31772
46 4 1.26733 7.98734 7.01977 4.40559
180 2 0.165241 2.7016 9.84669 4.61776
182 2 0.188043 8.12221 11.222 3.12989
183 2 0.183226 9.10938 11.0469 4.83715
333 1 -0.701011 4.45251 12.8166 7.09403
249 3 -0.821266 11.9209 7.1298 4.36977
251 3 -0.845403 8.23832 7.93433 3.02557
252 3 -0.788204 9.83619 7.76645 0.842935
253 3 -0.821633 3.93123 9.44433 2.26995
254 3 -0.835476 5.16792 11.8934 1.98864
256 3 -0.817233 7.99793 9.68816 0.904067
355 2 0.160673 3.95404 12.0392 6.46889
258 3 -0.834777 8.56231 7.67292 7.89231
259 3 -0.844636 10.36 8.76535 6.03349
184 2 0.151751 8.10256 12.6329 4.56359
264 3 -0.830839 5.84303 10.2679 3.88811
361 2 0.17141 9.76137 11.0098 2.33871
41 4 1.07293 5.22252 11.9064 8.65573
166 2 0.196757 3.55637 13.1507 3.16915
261 3 -0.802402 2.81005 9.61328 8.77395
178 2 0.19548 11.0265 9.57053 1.82042
12 4 1.02777 9.00646 10.326 9.82185
43 4 1.34129 4.85018 12.1407 13.5054
53 4 1.29873 7.9302 11.0371 17.2504
55 4 1.40575 3.41243 10.1796 10.2174
57 4 1.3078 3.01145 10.7751 15.5566
58 4 1.21272 6.18752 9.69272 11.6877
357 2 0.113963 11.6937 8.06348 15.715
72 1 -0.664743 4.68352 7.08576 15.8767
84 1 -0.676895 4.05529 10.2533 17.0595
85 1 -0.676551 6.49536 8.33704 12.9461
345 2 0.196495 6.21337 10.6016 15.3532
108 2 0.0804469 4.12652 7.89759 11.673
346 2 0.163686 6.71282 9.1526 16.4652
336 1 -0.676148 1.77107 13.0406 13.2373
342 2 0.189408 8.40629 7.28804 16.7817
153 2 0.177736 4.59105 8.23071 15.6883
351 2 0.0471443 3.62973 12.7933 12.5745
185 2 0.183234 5.18869 10.1453 16.7049
186 2 0.260656 3.58325 9.24423 17.3846
90 2 0.0848779 9.40154 12.1807 9.97783
188 2 0.164851 7.66573 8.36941 12.9831
189 2 0.158965 6.03413 7.38859 12.5699
190 2 0.171701 5.99117 8.74656 13.9179
235 3 -0.840717 6.52217 12.5916 9.17076
255 3 -0.821098 9.3637 11.4328 16.5978
262 3 -0.79555 4.14812 11.6151 9.82932
356 2 0.185985 2.0348 11.9028 12.9623
267 3 -0.88526 3.92346 11.4582 14.5345
268 3 -0.792049 1.76822 11.9088 16.2822
269 3 -0.748555 7.53126 9.88869 10.6845
270 3 -0.780817 4.7308 9.06078 10.7481
271 3 -0.788739 5.64488 11.055 12.6671
344 2 0.168598 7.97796 9.75166 15.1179
133 2 0.0432049 10.4984 9.39965 10.5991
311 2 0.143955 10.5441 7.38264 14.1347
339 1 -0.6501 12.2587 7.89454 16.7849
47 4 1.15765 10.7342 7.00994 17.5633
343 1 -0.655007 7.08248 10.0114 15.8578
322 2 0.227324 8.40391 13.3746 14.7554
172 2 0.130008 7.45823 6.78906 10.678
173 2 0.158333 9.50842 7.00482 10.8989
257 3 -0.798266 6.82226 12.3643 17.5773
152 2 0.135024 5.66276 6.86479 16.4637
ITEM: TIMESTEP
200
ITEM: NUMBER OF ATOMS
362
ITEM: BOX BOUNDS xy xz yz pp pp pp
-8.3819999999999997e+00 1.7202700000000000e+01 -8.3819999999999997e+00
0.0000000000000000e+00 1.3430600000000000e+01 3.0499999999999999e-02
0.0000000000000000e+00 1.7657046800000000e+01 3.0270000000000002e-01
ITEM: ATOMS id type q x y z
13 4 1.61838 8.15225 0.136357 1.85898
2 4 1.02432 -0.674944 2.78416 5.14111
5 4 1.18686 2.48159 2.3425 6.26767
7 4 0.702001 -1.02226 3.7443 1.93314
14 4 1.49658 5.02105 2.56249 4.41168
23 4 1.05786 2.87606 6.04813 4.22486
59 1 -0.66488 2.43382 0.821091 2.69925
60 1 -0.644612 -0.973564 4.26804 6.33107
61 1 -0.661627 2.13297 3.62222 7.59029
211 3 -0.789292 3.60859 6.359 5.60456
69 1 -0.629784 0.0264691 5.32417 1.42341
87 2 0.0547291 -1.79252 5.37838 1.47316
353 2 0.176257 6.01824 0.591131 7.69359
93 2 0.091647 3.81187 4.69363 3.69206
62 1 -0.675362 -2.76827 6.42525 4.70243
116 2 0.181596 2.32576 1.9416 3.12394
145 2 0.175847 0.218409 6.29239 3.85806