ITEM: TIMESTEP
0
ITEM: NUMBER OF ATOMS
362
ITEM: BOX BOUNDS xy xz yz pp pp pp
-8.3819999999999997e+00 1.7202700000000000e+01 -8.3819999999999997e+00
0.0000000000000000e+00 1.3430600000000000e+01 3.0499999999999999e-02
0.0000000000000000e+00 1.7586700000000000e+01 3.0270000000000002e-01
ITEM: ATOMS id type x y z
3 4 3.64502 0.340502 8.25079
2 4 -0.534468 2.91331 5.31093
5 4 2.60344 2.26128 6.09513
7 4 -0.745125 3.96984 2.23126
14 4 4.93713 2.48405 4.09166
23 4 3.29075 6.52991 4.44736
201 3 7.56345 1.21376 1.14503
60 1 -0.721584 4.62103 6.56124
61 1 2.21793 3.56939 7.43747
70 1 1.43562 6.38083 4.89026
69 1 0.361825 5.51005 1.98678
87 2 -1.46272 5.62479 1.98326
91 2 3.90115 1.96573 0.30927
93 2 3.93504 4.93031 4.03692
88 2 -1.34347 2.76411 1.0983
116 2 1.82481 0.950792 2.88633
117 2 -1.52406 5.28347 6.06414
118 2 0.189476 5.22178 6.74921
119 2 -1.05604 4.03057 7.47306
120 2 1.11227 4.15097 7.05181
121 2 3.04698 4.28756 7.39552
122 2 2.17971 3.04265 8.4698
123 2 -2.473 5.36367 4.46098
353 2 6.25386 0.496088 7.63302
142 2 0.805478 6.19949 1.2392
143 2 1.10362 4.0347 1.62922
144 2 0.791415 5.81037 3.07747
147 2 1.53822 5.15763 4.7528
62 1 -2.67299 6.46907 4.7926
191 3 1.06914 2.27534 5.41501
192 3 2.93175 0.944506 6.95841
194 3 -0.89534 3.4322 3.7227
199 3 4.50631 1.08876 3.29583
200 3 3.88269 2.83643 5.2969
149 2 4.64866 5.74615 1.70346
203 3 6.52099 2.46902 4.63367
208 3 4.72929 3.77014 3.13896
210 3 5.30158 3.28912 8.12224
287 2 -1.60357 5.67977 7.93469
95 2 5.55239 4.52294 5.73729
350 2 4.22662 5.28816 0.11272
16 4 8.47129 0.167732 7.46291
124 2 -2.96357 6.55179 5.85396
6 4 0.410014 1.47258 11.9412
9 4 0.747532 4.46767 13.183
17 4 4.94903 2.69574 9.55952
20 4 5.07675 2.49297 16.7692
24 4 3.38303 6.77942 16.8185
27 4 4.82349 3.61084 13.9699
28 4 0.615979 6.22454 15.5573
29 4 3.50821 6.33595 11.9946
63 1 -0.234008 5.52515 11.9705
67 1 3.51798 4.05254 10.0634
68 1 1.59259 1.59978 10.4748
89 2 2.53843 4.49165 13.1815
205 3 6.34702 3.14719 17.2628
92 2 5.44298 0.89555 16.3249
97 2 4.6052 2.13556 13.007
98 2 -0.562726 6.65698 16.7566
99 2 2.6795 5.72845 10.5984
126 2 -0.924902 6.23894 12.5716
127 2 -0.791499 4.80807 11.267
128 2 0.728467 5.99371 11.4853
136 2 3.39208 4.02679 11.1695
137 2 2.51293 3.87256 9.48406
138 2 4.06785 4.94915 9.67221
139 2 2.30123 2.52189 10.3508
140 2 0.788921 1.52162 9.63516
141 2 2.20006 0.603949 10.5265
195 3 0.563482 2.88171 12.605
202 3 4.08816 1.24148 9.45985
348 2 -2.32767 4.82081 10.2532
206 3 6.09966 2.79833 10.6555
207 3 7.49197 1.15226 11.9789
213 3 4.44932 3.33437 15.4315
214 3 0.195956 4.81024 14.7113
215 3 1.97561 6.07651 16.3873
216 3 3.91023 5.12024 12.9524
322 2 0.191532 0.883826 14.4075
326 2 4.40676 0.969501 12.0112
298 2 -2.60371 5.64336 15.7978
325 1 4.14162 0.253728 12.7936
296 4 -3.42325 6.7714 14.8311
324 2 -0.169512 2.44121 15.4777
321 1 -0.42937 1.39858 15.3063
328 2 3.6844 1.02023 14.2421
283 4 -3.0052 5.44676 8.91276
154 2 6.76443 2.65747 13.6659
145 2 0.608203 6.80922 4.35624
59 1 -6.64156 12.9439 2.75666
10 4 -2.27485 8.96763 1.48426
11 4 -3.73863 11.2312 0.289042
159 2 1.64158 10.3259 1.67286
290 2 -3.82273 10.0966 8.5544
362 3 0.600197 12.0878 0.264816
361 2 -5.71866 9.12195 2.61514
31 4 -0.844621 10.9684 3.43051
33 4 1.83527 8.48283 8.27813
34 4 1.04169 10.5388 6.04435
64 1 -1.14183 7.83328 0.361668
66 1 -1.59097 12.7694 8.25776
320 2 -5.11943 11.7946 5.08194
74 1 1.48611 9.18813 1.8145
100 2 -2.18653 11.613 4.32475
114 2 -7.34391 12.4218 3.49937
125 2 -1.84968 7.20339 4.50101
291 2 -5.76958 10.2169 8.30448
130 2 -0.595402 6.9618 1.01881
115 2 -6.78429 12.62 1.72944
134 2 -1.48691 11.6911 7.8292
319 2 -3.9057 10.808 3.96207
347 2 -3.45868 12.3669 7.77751
157 2 1.35119 8.95431 2.93944
158 2 0.619145 8.70786 1.19638
196 3 -3.17386 7.92519 2.54469
197 3 -3.13867 9.79289 0.448003
198 3 -3.98484 12.1488 1.62066
211 3 4.07196 7.03011 5.75022
217 3 3.28019 7.38516 3.05267
218 3 3.31985 7.71443 0.275732
219 3 -1.3262 9.85678 2.39117
220 3 -0.405831 12.1886 2.6498
221 3 2.75913 7.21107 8.05431
222 3 0.240734 10.5326 4.46252
223 3 1.09693 9.14945 6.89385
224 3 0.720906 11.8674 6.86261
285 1 -4.89154 9.55616 8.18412
289 2 -4.80312 9.09342 7.14171
318 2 -3.2282 12.1838 5.15934
1 4 -4.57594 12.8084 2.94797
317 1 -4.10605 11.8101 4.57022
177 2 -6.52375 10.948 2.96776
8 4 -3.95539 6.78039 3.36129
146 2 1.60741 6.76202 5.99996
19 4 -0.592892 12.8466 12.7428
32 4 0.848866 11.4749 16.6528
35 4 1.56881 8.35477 13.6142
36 4 -1.74606 11.8292 15.4105
37 4 0.253473 10.1967 11.5031
75 1 -0.872568 8.95569 10.3982
299 2 -3.63935 8.27649 15.5121
102 2 0.603862 8.03204 9.38071
103 2 -2.69029 10.6953 14.5732
135 2 -1.57957 12.9188 9.33468
160 2 -0.302984 7.99936 10.7381
161 2 -0.726548 9.22873 9.31394
162 2 -2.03075 9.01485 10.7316
225 3 0.570498 7.54577 14.7148
226 3 2.4615 7.34354 12.6984
227 3 -0.531893 10.9848 15.9271
228 3 -1.17454 12.8605 14.255
229 3 -2.67876 12.4027 16.5437
230 3 0.600279 9.23832 12.7678
231 3 -0.904133 11.3356 11.9633
295 3 -3.79395 6.96169 9.3337
359 2 -4.77676 9.0845 16.9077
272 4 -5.914 12.7083 13.6316
273 4 -6.29699 11.0764 16.2748
274 2 -5.13715 12.0553 12.0492
297 2 -2.25754 7.03465 13.7019
277 3 -5.15202 11.393 17.279
278 3 -5.92017 11.5457 14.7158
284 4 -4.57469 8.31551 9.68128
286 1 -3.94863 8.93396 11.3515
292 2 -3.75288 10.0368 11.2861
293 2 -3.06058 8.26857 11.7246
266 3 2.68633 9.28535 14.5244
294 2 -5.02929 8.61699 11.8502
129 2 -1.82436 7.75719 17.147
263 3 1.60453 10.7009 10.8141
133 2 -6.22896 10.5558 10.4497
101 2 1.40659 10.0344 17.5081
358 2 -4.28607 7.23101 16.9643
327 2 -3.34128 12.7165 13.0297
131 2 -0.401544 8.93064 17.5362
151 2 3.89044 6.95354 14.5547
276 3 -7.2568 13.3235 13.1551
349 2 -5.67183 12.3115 8.94691
15 4 7.64571 2.73178 0.61635
18 4 7.98045 2.38054 5.11685
22 4 6.44966 4.73532 2.66939
25 4 5.79864 4.56954 7.40138
39 4 10.4739 2.00064 3.0515
45 4 12.2222 4.32257 1.65577
354 2 15.2065 1.90745 6.84805
48 4 12.2321 3.38118 7.72143
49 4 8.40084 5.798 8.5439
71 1 5.75779 5.82695 1.25084
76 1 15.4105 1.58086 5.71191
77 1 11.6828 1.20214 4.32103
80 1 11.5121 3.97443 6.06817
94 2 8.16132 3.89085 5.71835
212 3 5.21437 5.95554 7.89468
106 2 13.1882 1.9013 7.5352
334 2 12.1223 0.599342 7.56673
109 2 11.3618 5.94003 6.55515
204 3 8.24073 1.25159 6.27106
163 2 15.7814 0.420901 5.61394
164 2 14.5718 1.88819 4.92919
165 2 12.6274 1.77356 4.48367
167 2 11.0961 1.06119 5.22762
174 2 10.4458 4.33719 6.31829
175 2 11.5434 2.93594 5.34454
176 2 12.2551 4.73473 5.73256
335 2 13.9003 0.573038 6.71186
209 3 7.4941 3.82572 1.81223
232 3 10.1159 0.662411 2.02734
233 3 9.14709 2.27337 4.04885
234 3 13.211 0.802451 0.507418
236 3 9.30343 0.816851 8.70471
241 3 11.2772 3.17223 2.36596
242 3 13.3446 3.49042 0.579871
243 3 13.0286 5.33249 2.75418
244 3 7.04622 5.62038 3.84455
245 3 11.2182 5.3783 0.869533
246 3 10.8178 3.00015 8.53123
247 3 13.2161 4.42892 8.31768
248 3 7.54064 4.71598 7.68093
250 3 9.42622 6.17912 4.86249
329 1 15.3212 1.12916 2.04941
330 2 14.5922 2.016 2.08258
331 2 16.2323 1.13845 1.29195
332 2 15.6369 0.854104 3.10727
150 2 5.86303 5.34989 0.225996
166 2 11.8128 0.214654 3.55055
4 4 14.9374 1.39655 10.3888
21 4 7.54632 2.5276 11.2221
40 4 12.9897 2.44104 17.249
42 4 9.93661 2.02542 9.56683
44 4 12.2329 2.26148 11.4158
73 1 6.59678 4.13731 13.9579
79 1 7.69347 6.06248 10.2985
338 2 9.77592 1.06369 12.7863
96 2 7.85324 3.68891 12.5009
104 2 12.3132 3.80321 10.3051
110 2 11.7395 3.04996 12.8554
341 2 9.26328 6.81707 15.6541
280 2 15.7225 2.4919 13.993
155 2 7.36783 4.57874 14.6815
156 2 6.53655 4.81102 12.933
171 2 7.03929 5.16898 10.5734
360 2 8.92973 5.30137 16.8371
193 3 16.2058 1.23036 11.2369
237 3 8.8079 2.92973 10.3009
238 3 8.98239 3.39363 17.1034
239 3 13.7259 1.83112 11.3939
240 3 11.0603 1.3903 10.9179
279 4 14.8387 1.37109 14.972
107 2 9.4192 5.28006 9.82723
281 3 14.0735 2.25903 15.9646
323 2 16.5904 0.717104 16.2523
173 2 8.49155 6.28432 11.0095
300 4 10.1146 3.14597 15.9985
301 4 10.8445 5.59172 13.7587
302 1 9.4254 1.53263 15.2986
303 1 11.7051 4.69406 11.7358
305 2 10.4726 0.994457 15.2759
306 2 9.04428 1.74228 14.2603
307 2 8.6491 1.11613 15.9052
308 2 10.5379 4.27075 12.0154
309 2 12.5732 4.65708 12.6003
310 2 11.641 5.76211 11.3055
314 3 11.538 2.73964 16.6477
315 3 10.19 4.40138 14.7268
316 3 12.384 6.16303 14.2951
340 1 9.07972 6.5236 16.7473
86 2 15.1403 2.49572 9.14745
38 4 5.82168 12.9245 1.26659
30 4 3.31587 8.51276 1.7838
13 4 0.246485 13.1092 1.48254
50 4 10.7231 7.0734 5.4126
51 4 9.20378 8.80986 2.24597
52 4 4.63023 10.7893 3.20467
54 4 8.89956 8.62329 7.14849
56 4 7.04561 10.3477 5.2448
78 1 5.2605 8.83606 8.10052
81 1 10.5857 9.72132 3.12785
82 1 2.92684 10.6751 5.77631
83 1 8.52089 11.4771 4.74473
105 2 7.01779 7.52191 5.53191
111 2 3.07231 11.1821 3.89337
112 2 7.20641 11.7753 6.19352
113 2 5.66274 10.732 8.23691
46 4 8.00365 6.75284 4.38415
333 1 4.65049 13.1021 7.21943
183 2 8.41893 11.0978 3.61003
184 2 9.42125 11.0794 5.3424
169 2 4.76309 9.5782 7.32976
170 2 6.33972 8.60866 7.95887
47 4 10.4828 6.70516 0.208013
178 2 10.3724 9.46235 4.19876
179 2 3.32628 11.7971 5.50771
180 2 3.09489 9.87231 4.93646
181 2 3.33097 10.3184 6.74309
182 2 8.19501 12.6551 4.98213
26 4 4.37412 7.21604 7.44603
257 3 6.76456 11.8701 0.199329
249 3 11.8052 7.26426 4.29628
251 3 8.27881 7.90182 3.38896
252 3 9.90154 7.82351 1.21652
253 3 4.37399 9.69064 2.13946
254 3 5.16085 12.1534 2.57968
256 3 8.46061 9.98023 1.45619
148 2 6.32299 6.79625 1.33348
258 3 8.68564 7.23913 7.94103
259 3 10.2319 8.49771 6.24027
260 3 8.89682 9.84545 8.28304
264 3 5.67901 10.416 4.46319
265 3 7.5189 9.03595 5.94039
355 2 4.22307 12.3623 6.42648
12 4 8.51906 10.036 9.81669
43 4 5.35642 12.152 13.1093
53 4 8.06891 11.1167 17.5379
55 4 3.08429 10.4993 10.2258
57 4 3.27516 10.7616 14.8924
58 4 5.86342 9.5481 11.6524
65 1 9.98299 10.098 10.9898
304 1 9.63701 7.06276 13.63
84 1 4.53542 10.4369 16.2817
85 1 6.14857 7.90307 12.633
90 2 9.11153 11.6925 10.1723
108 2 4.8882 7.09224 11.3204
132 2 9.86741 10.6963 11.9806
352 2 10.0176 8.96765 11.261
235 3 6.10898 13.1542 9.60892
153 2 4.58921 8.53195 15.622
337 2 1.58973 12.7717 13.9638
185 2 5.67224 10.2261 16.1977
186 2 4.06765 9.59585 16.9455
187 2 4.41599 11.4684 16.8116
188 2 6.75091 7.24542 11.8164
189 2 5.28667 7.32858 13.1337
190 2 6.8092 8.41633 13.4689
351 2 4.8843 12.896 11.6406
255 3 9.46347 11.7165 16.9171
262 3 3.74395 11.9269 9.76194
172 2 7.06592 7.06374 9.99768
267 3 3.99497 11.5627 13.698
268 3 1.94341 11.9432 15.5378
269 3 7.01469 9.62592 10.3519
270 3 4.41027 9.4412 11.0809
271 3 6.25799 10.86 12.7368
275 2 10.6752 9.38084 16.2503
72 1 4.54048 7.37408 15.4082
346 2 6.91028 9.10753 16.8854
311 2 10.2979 7.83786 14.1047
356 2 1.87181 12.5528 12.1239
288 2 10.9686 8.42559 9.0654
336 1 1.345 13.1169 12.9111
282 3 5.94817 13.2263 14.1043
357 2 11.3692 7.81339 15.8367
343 1 7.68959 9.72407 16.2908
344 2 8.59759 9.09646 15.9896
345 2 7.24612 10.2755 15.4088
339 1 12.0131 8.02068 16.8161
342 2 8.1836 7.15092 17.2025
41 4 5.04502 12.2505 8.90632
261 3 2.69379 9.56603 8.96571
313 2 9.71712 7.09809 12.4917
168 2 4.94095 8.92981 9.19629
312 2 8.58589 7.16876 13.904
152 2 5.53683 6.87849 15.5978
ITEM: TIMESTEP
100
ITEM: NUMBER OF ATOMS
362
ITEM: BOX BOUNDS xy xz yz pp pp pp
-8.3819999999999997e+00 1.7202700000000000e+01 -8.3819999999999997e+00
0.0000000000000000e+00 1.3439393350000000e+01 3.0499999999999999e-02
0.0000000000000000e+00 1.7586700000000000e+01 3.1149334999999923e-01
ITEM: ATOMS id type x y z
3 4 3.57095 0.24944 8.3651
2 4 -0.48705 2.97345 5.32318
5 4 2.71146 2.26695 6.17708
7 4 -0.644647 4.08459 2.29118
14 4 4.99523 2.58077 4.06585
23 4 3.27029 6.52387 4.41163
201 3 7.68057 1.15532 0.991833
60 1 -0.705394 4.60975 6.56072
61 1 2.25225 3.67057 7.38832
70 1 1.5227 6.50307 4.99228
69 1 0.365816 5.6545 2.1022
87 2 -1.35292 5.84061 2.10051
91 2 3.62183 2.41168 0.273262
93 2 4.02589 5.07029 3.90875
88 2 -1.4657 3.08782 1.14401
116 2 1.95224 0.912941 2.79675
117 2 -1.29977 5.33566 5.81886
118 2 -0.023713 5.17257 7.29502
119 2 -1.42472 3.83681 7.20047
120 2 1.12806 4.07054 7.10282
121 2 3.04141 4.39842 7.11211
122 2 2.39285 3.19059 8.45349
123 2 -2.34113 5.37506 4.30228
353 2 6.06631 0.719299 7.99398
142 2 0.804959 6.3701 1.35284
143 2 1.11257 4.07447 1.56791
144 2 0.771172 5.94693 3.2036
147 2 1.34187 5.33289 4.7863
62 1 -2.62362 6.48292 4.70118
191 3 0.938512 2.32875 5.38136
192 3 2.87191 0.860515 7.06523
194 3 -0.835094 3.61787 3.8314
199 3 4.44205 1.16398 3.33486
200 3 3.89412 2.78285 5.30185
350 2 4.4062 5.01057 0.0924485
203 3 6.61913 2.57602 4.51605
208 3 4.76224 3.8108 3.02127
210 3 5.45716 3.27681 7.98024
287 2 -1.67706 5.72406 7.87549
16 4 8.47173 0.195951 7.35171
124 2 -2.99845 6.58084 5.72345
6 4 0.416228 1.50426 11.9007
9 4 0.66436 4.55343 13.2167
17 4 4.89564 2.72582 9.45791
20 4 4.92742 2.58145 16.7742
24 4 3.52328 6.58075 16.86
27 4 4.83099 3.45777 13.8672
28 4 0.55661 6.26956 15.6408
29 4 3.45579 6.35295 12.0403
63 1 -0.1635 5.83586 12.1159
67 1 3.53801 4.07559 9.98877
68 1 1.63679 1.59561 10.4967
89 2 2.39132 4.70299 13.2935
205 3 6.20206 3.31434 17.3266
92 2 5.21309 0.902972 16.7384
97 2 4.55525 1.95402 13.0345
98 2 -0.63648 6.50707 16.8842
99 2 3.02439 5.89312 10.4635
126 2 -0.267765 6.77874 12.7165
127 2 -1.13053 5.36002 11.7064
128 2 0.868007 5.90477 11.4033
136 2 3.49541 4.11709 11.1464
137 2 2.46631 4.07804 9.50162
138 2 4.10467 4.95434 9.63581
139 2 2.35262 2.52357 10.4398
140 2 0.888236 1.5168 9.58629
141 2 2.20438 0.622181 10.7249
195 3 0.430643 3.00286 12.6137
202 3 4.07228 1.28786 9.4431
348 2 -2.21079 4.98267 10.1773
206 3 6.02438 2.86632 10.5949
207 3 7.62627 1.20412 11.8443
213 3 4.38551 3.17314 15.3843
214 3 0.0782537 4.93447 14.7227
215 3 2.05479 6.22919 16.2536
216 3 3.95248 4.96003 12.9355
322 2 0.122058 0.920416 14.436
326 2 4.29743 0.861513 11.9259
298 2 -2.38218 5.80121 15.6869
283 4 -3.04145 5.50361 8.87996
296 4 -3.58745 6.81998 14.9842
324 2 -0.0685523 2.41257 15.6377
321 1 -0.530815 1.43101 15.2949
328 2 3.46543 0.857831 14.3202
145 2 0.964132 7.20757 4.30377
59 1 -6.4424 12.8818 2.89161
10 4 -2.32295 8.99621 1.4406
11 4 -3.66842 11.3173 0.203297
159 2 1.36131 10.231 1.58151
290 2 -3.88549 10.0495 8.58589
362 3 0.595008 12.0986 0.167173
361 2 -5.49908 9.18609 2.61489
31 4 -0.82848 11.0394 3.49451
33 4 1.83492 8.56033 8.26593
34 4 1.09969 10.3774 5.95814
64 1 -1.18987 7.81696 0.289898
66 1 -1.60823 12.9644 8.21348
320 2 -5.29904 11.6655 4.91601
74 1 1.36158 9.11924 1.78491
100 2 -2.22951 11.4714 4.45507
114 2 -7.23696 12.4456 3.67997
125 2 -1.88563 7.26736 4.43224
291 2 -5.77199 9.75578 8.13883
130 2 -0.659625 6.9794 1.02732
115 2 -6.48729 12.3485 1.90995
134 2 -1.84918 11.9901 7.58893
319 2 -3.81763 10.5625 4.52055
347 2 -3.4832 12.3884 7.94191
157 2 1.25186 8.94039 2.87191
158 2 0.415416 8.64704 1.23648
196 3 -3.29626 7.94598 2.17578
197 3 -3.01516 9.84083 0.259582
198 3 -3.92265 12.0192 1.72475
211 3 4.12289 7.03171 5.77191
217 3 3.21387 7.57362 3.03977
218 3 3.31465 7.77347 0.366421
219 3 -1.36757 9.91557 2.48447
220 3 -0.2477 12.2801 2.71497
221 3 2.80064 7.11058 8.18019
222 3 0.234374 10.3288 4.63166
223 3 0.914042 8.99553 6.93403
224 3 0.553409 11.8461 6.67657
285 1 -4.71999 9.25818 8.13478
289 2 -4.47974 8.73377 7.17169
318 2 -3.60247 12.1285 5.52501
1 4 -4.51332 12.7339 3.05955
317 1 -4.15682 11.6266 4.71092
177 2 -6.41631 10.8642 3.04739
8 4 -3.94232 6.76513 3.34585
146 2 1.40835 6.80142 6.11037
19 4 -0.582134 12.9715 12.6805
32 4 0.870067 11.3133 16.6701
35 4 1.55167 8.38689 13.6252
36 4 -1.70273 11.7463 15.2148
37 4 0.161593 10.1696 11.5319
75 1 -0.901111 8.9631 10.5023
299 2 -3.7233 8.48188 15.5309
102 2 0.555468 8.22508 9.42218
103 2 -2.57632 10.5472 14.4419
135 2 -1.49537 12.7289 9.32574
160 2 -0.457563 7.84265 10.5374
161 2 -0.833029 9.53375 9.4763
162 2 -2.03994 9.01964 10.8512
225 3 0.554982 7.55294 14.6657
226 3 2.34667 7.3046 12.6838
227 3 -0.446036 10.8963 15.7724
228 3 -1.37368 12.8668 14.1362
229 3 -2.764 12.4424 16.5166
230 3 0.496072 9.2982 12.7902
231 3 -0.812857 11.6682 11.6502
295 3 -3.72741 6.86951 9.29616
359 2 -4.88791 9.06549 16.7822
272 4 -5.87036 12.6863 13.6928
273 4 -6.39851 11.1052 16.3251
274 2 -4.53614 11.8983 12.1845
297 2 -2.44276 7.38259 13.8506
277 3 -5.20901 11.419 17.323
278 3 -5.92495 11.548 14.8167
284 4 -4.47928 8.20729 9.72711
286 1 -3.97913 9.11383 11.3976
292 2 -3.74221 10.1388 11.1395
293 2 -3.17926 8.5624 12.0244
266 3 2.65247 9.41001 14.4333
294 2 -5.1061 8.90361 11.8163
129 2 -1.99978 7.71753 17.2186
263 3 1.58868 10.7008 10.9327
133 2 -6.35034 10.3829 10.4451
101 2 1.38608 9.86225 17.4743
358 2 -4.06004 6.95242 17.0166
327 2 -3.19303 13.0187 13.2599
131 2 -0.417766 8.82262 17.3449
151 2 3.71825 6.88265 14.5749
276 3 -7.23161 13.3048 13.1078
349 2 -5.81329 12.1728 8.95681
325 1 -4.19474 13.176 12.7449
15 4 7.57517 2.74116 0.606881
18 4 8.0316 2.56747 5.12935
22 4 6.43836 4.74151 2.56519
25 4 5.93389 4.62115 7.34245
39 4 10.3439 1.95151 3.04115
45 4 12.1791 4.35872 1.55119
354 2 15.1672 1.89164 6.72831
48 4 12.2613 3.36731 7.72467
49 4 8.50062 5.86295 8.34839
71 1 5.67681 5.94589 1.21328
76 1 15.4316 1.61769 5.68272
77 1 11.7812 1.40489 4.16793
80 1 11.8158 4.10863 6.01914
94 2 8.16353 4.0327 5.92129
212 3 5.28402 5.95225 7.92226
106 2 13.0962 1.89557 7.33155
334 2 12.1008 0.526799 7.578
109 2 11.5798 5.99882 6.65181
204 3 8.17958 1.36077 6.28753
163 2 15.9883 0.579455 5.61586
164 2 14.5494 1.5989 4.95922
165 2 12.7016 2.10656 3.98441
167 2 11.3426 1.46524 5.23679
174 2 10.7081 4.36669 6.26632
175 2 11.8538 3.20113 5.27196
176 2 12.4492 4.98504 5.5316
335 2 13.8506 0.587256 6.6471
209 3 7.46481 3.73542 1.89306
232 3 10.0663 0.669779 2.09726
233 3 9.17017 2.49422 4.11135
234 3 12.9985 0.692352 0.367716
236 3 9.39461 0.737852 8.60243
241 3 11.2627 3.17691 2.26403
242 3 13.2647 3.44305 0.599387
243 3 12.8959 5.34683 2.56312
244 3 7.09856 5.61366 3.79416
245 3 11.2602 5.29099 0.652376
246 3 10.9828 2.96097 8.58694
247 3 13.221 4.38852 8.40708
248 3 7.57561 4.55683 7.48103
250 3 9.53502 6.12397 5.08508
329 1 15.3812 1.18313 1.74169
330 2 14.6005 2.00233 1.90892
331 2 16.056 1.36017 0.863776
332 2 16.0165 0.909341 2.65771
150 2 5.87557 5.72847 0.0715097
166 2 12.0262 0.385954 3.86714
149 2 4.66779 6.25132 1.52073
95 2 5.70052 4.63863 5.66893
4 4 14.9286 1.35202 10.3726
21 4 7.48627 2.59527 11.1595
40 4 12.8893 2.48402 17.1857
42 4 9.92335 1.9856 9.50084
44 4 12.2088 2.31936 11.4264
73 1 6.48954 4.32525 13.9677
79 1 7.99224 5.9277 10.1941
338 2 9.93281 1.12552 12.9806
96 2 7.52058 3.81091 12.3258
104 2 12.2237 3.83023 10.3143
110 2 11.7544 3.02444 12.9857
154 2 6.95483 3.02663 13.7683
152 2 5.4149 6.7549 15.5873
155 2 6.85568 4.815 14.8277
156 2 6.31563 5.03029 13.0687
171 2 7.25499 5.05956 10.2598
360 2 8.91503 5.70735 16.9628
193 3 16.1929 1.06945 11.1909
237 3 8.77731 2.88244 10.1963
238 3 8.93506 3.4418 17.1781
239 3 13.7697 1.82269 11.4133
240 3 11.017 1.4859 10.8977
279 4 14.7433 1.48699 14.9199
107 2 9.70538 5.31389 9.52648
281 3 13.9155 2.34378 15.9254
323 2 16.474 0.71806 16.2567
173 2 8.60208 5.92431 11.1567
300 4 10.053 3.17899 16.1165
301 4 10.8958 5.57536 13.7893
302 1 9.38189 1.6673 15.1008
303 1 11.7227 4.64707 11.8581
305 2 10.3304 1.18522 14.6522
306 2 8.67069 2.1056 14.3274
307 2 8.88819 0.905609 15.7936
308 2 10.3599 4.11934 12.2961
309 2 12.5984 4.61366 12.6508
310 2 11.6673 5.67289 11.2578
314 3 11.4345 2.61393 16.5999
315 3 10.3328 4.32912 14.9152
316 3 12.3223 6.2146 14.2635
340 1 9.07599 6.79533 16.5914
86 2 15.2579 2.64374 9.39574
280 2 15.6713 2.55014 13.969
38 4 5.78207 12.9373 1.2094
30 4 3.27811 8.53106 1.74203
355 2 4.30534 12.253 6.4295
50 4 10.8189 7.02838 5.50084
51 4 9.26722 8.78266 2.28249
52 4 4.66167 10.7405 3.06456
54 4 8.89623 8.69776 7.15084
56 4 6.97881 10.3613 5.23222
78 1 5.34145 8.74627 7.90317
81 1 10.7313 9.71259 3.07504
82 1 2.9973 10.6398 5.73717
83 1 8.42487 11.536 4.81417
105 2 7.19557 7.41292 5.68037
111 2 3.17193 11.0571 3.83427
112 2 7.10319 11.6755 6.29632
113 2 5.71339 10.633 8.08838
46 4 8.09994 6.72154 4.45281
333 1 4.61422 13.0735 7.1687
183 2 8.4609 11.1018 3.67411
184 2 9.36742 11.1019 5.31734
169 2 5.16125 9.21707 6.84297
170 2 6.41524 8.40425 7.97473
47 4 10.5574 6.7734 0.17416
178 2 10.5259 9.27834 4.15292
179 2 2.94424 11.7831 5.40049
180 2 3.47534 9.93921 5.03245
181 2 3.45689 10.5334 6.73136
182 2 8.27746 12.6841 4.87779
26 4 4.29522 7.14479 7.46561
257 3 6.80427 11.871 0.245547
249 3 11.876 7.32702 4.28508
251 3 8.27241 7.86763 3.40261
252 3 9.92123 7.776 1.27085
253 3 4.35838 9.76585 1.85134
254 3 5.1797 12.2074 2.56552
256 3 8.40329 10.0553 1.54171
148 2 6.45877 6.83612 1.59138
258 3 8.73431 7.25944 7.79337
259 3 10.3396 8.43671 6.3631
260 3 8.80882 9.81981 8.27036
264 3 5.73237 10.4614 4.28095
265 3 7.40645 9.03963 5.99351
53 4 8.01637 10.8667 0.10687
13 4 0.271452 13.0836 1.43023
41 4 5.11423 12.1775 8.7438
12 4 8.43249 10.0341 9.77461
43 4 5.29494 12.1537 13.0461
312 2 8.75321 6.98328 14.099
55 4 3.06973 10.4755 10.2627
57 4 3.26903 10.8463 14.8504
58 4 5.91889 9.6102 11.5579
65 1 9.89403 10.093 10.9762
304 1 9.78004 7.06565 13.5382
84 1 4.44189 10.3629 16.3543
85 1 6.28441 8.01727 12.5528
90 2 8.83807 11.6732 10.4991
108 2 4.82956 7.2518 11.5162
132 2 9.69352 10.6466 11.9425
352 2 9.91984 8.99464 11.2421
235 3 6.10531 13.1906 9.5629
153 2 4.44643 8.52567 15.5685
337 2 1.47774 12.6004 13.9426
185 2 5.56158 10.1659 16.1064
186 2 3.95297 9.39537 16.9668
187 2 4.33714 11.3082 16.9846
188 2 6.89873 7.24501 11.9445
189 2 5.39829 7.563 13.104
190 2 7.02068 8.42933 13.3656
351 2 4.91261 13.0619 11.6814
255 3 9.41123 11.7885 16.8151
262 3 3.87708 11.8828 9.77351
172 2 7.35663 6.92792 10.0217
267 3 3.8426 11.7239 13.6377
268 3 2.14189 11.7366 15.751
269 3 7.12437 9.65976 10.5456
270 3 4.21443 9.60714 11.0608
271 3 6.18176 10.7768 12.7043
275 2 10.5243 9.38777 16.2631
72 1 4.42181 7.29878 15.4311
346 2 6.98081 9.11615 17.1239
311 2 10.2389 8.06661 13.7692
356 2 1.86136 12.7077 12.0884
288 2 11.0576 8.3952 9.17997
336 1 1.3576 13.1702 12.9526
282 3 5.95198 13.2779 14.1056
357 2 11.2927 7.78633 15.7374
343 1 7.59148 9.82833 16.4458
344 2 8.48539 9.35551 16.0224
345 2 6.98815 10.3175 15.5839
339 1 11.9405 8.0063 16.7062
342 2 8.20013 7.43785 16.9431
341 2 9.30107 6.86105 15.4226
261 3 2.74119 9.66393 8.85857
313 2 9.70154 6.8979 12.3385
168 2 4.93195 9.29469 8.82341
ITEM: TIMESTEP
200
ITEM: NUMBER OF ATOMS
362
ITEM: BOX BOUNDS xy xz yz pp pp pp
-8.3819999999999997e+00 1.7202700000000000e+01 -8.3819999999999997e+00
0.0000000000000000e+00 1.3448186700000001e+01 3.0499999999999999e-02
0.0000000000000000e+00 1.7586700000000000e+01 3.2028670000000048e-01
ITEM: ATOMS id type x y z
3 4 3.65512 0.285372 8.30889
2 4 -0.490543 2.92741 5.26505
5 4 2.63783 2.33579 6.19523
7 4 -0.58274 4.1405 2.30755
14 4 4.98383 2.53557 4.05528
23 4 3.34909 6.47925 4.41943
201 3 7.64926 1.15299 0.888716
60 1 -0.710625 4.56499 6.53634
61 1 2.25877 3.75191 7.43018
70 1 1.58945 6.40576 4.94911
69 1 0.593372 5.70298 1.99628
87 2 -1.23324 5.83707 2.22298
91 2 3.56079 2.24687 0.287434
93 2 4.21249 5.05322 3.82443
88 2 -1.46119 3.08534 1.25762
116 2 1.91658 0.819828 2.75355
117 2 -1.29863 5.21743 5.81742
118 2 -0.0590745 5.25316 7.12771
119 2 -1.40594 3.93918 7.13451
120 2 1.15272 4.14375 7.15834
121 2 3.09499 4.50082 7.21651
122 2 2.2039 3.43676 8.48894
123 2 -2.52726 5.14496 4.35029
353 2 6.28603 0.731299 7.79314
142 2 1.0587 6.49617 1.32404
143 2 1.07244 4.35896 1.39569
144 2 0.964668 5.87834 3.14296
147 2 1.55926 5.15089 4.81657
62 1 -2.47355 6.31901 4.49909
191 3 1.22135 2.26617 5.51107
192 3 2.84431 1.04224 7.10059
194 3 -0.489573 3.56033 3.76812
199 3 4.47097 1.21201 3.39263
200 3 3.84461 2.76452 5.26847
124 2 -2.93477 6.65198 5.53425
203 3 6.49905 2.48144 4.59756
208 3 4.85315 3.85935 3.07432
210 3 5.24463 3.32795 7.87532
287 2 -1.59135 5.74195 7.93423
16 4 8.48865 0.141427 7.37748
149 2 4.77517 5.8846 1.61633
95 2 5.54389 4.87814 5.61246
6 4 0.425559 1.39094 11.9161
9 4 0.572887 4.54547 13.2151
17 4 4.86928 2.81697 9.40537
20 4 4.80423 2.57323 16.7124
24 4 3.53627 6.69475 16.872
27 4 4.62151 3.50264 13.8428
28 4 0.599359 6.2391 15.7033
29 4 3.316 6.30984 12.2244
63 1 -0.374411 5.6645 11.979
67 1 3.44366 4.04605 10.1327
68 1 1.68573 1.41209 10.5443
89 2 2.3025 4.57758 13.5694
205 3 6.00258 3.41799 17.1849
92 2 5.29869 0.951335 16.6975
97 2 4.41137 2.09919 12.8224
98 2 -0.550732 6.40475 16.9585
99 2 2.64223 5.80461 10.7024
328 2 3.50943 1.04053 14.3481
127 2 -1.15842 4.97057 11.5754
128 2 0.48183 5.88165 11.2502
136 2 3.51391 3.78314 11.2334
137 2 2.3392 4.07661 9.70329
138 2 3.97689 5.00198 9.80802
139 2 2.38709 2.36679 10.4374
140 2 0.978445 1.34392 9.6131
141 2 2.24115 0.424317 10.7698
195 3 0.40376 3.05975 12.682
202 3 4.1921 1.30316 9.43111
348 2 -2.20031 4.67017 10.2559
206 3 6.13677 2.95089 10.4053
207 3 7.52999 1.28456 11.8834
213 3 4.2478 3.06258 15.3582
214 3 0.0218915 5.0965 14.671
215 3 2.08503 6.06135 16.3036
216 3 3.85084 5.05048 13.1301
322 2 0.142053 1.02897 14.4407
326 2 4.27608 0.95687 11.9967
298 2 -2.38715 5.609 15.5351
283 4 -2.92027 5.40985 8.95132
296 4 -3.55784 6.79654 15.0264
324 2 -0.0951508 2.31833 15.7591
321 1 -0.531532 1.39634 15.2656
276 3 1.21663 0.414171 13.0068
126 2 -0.781125 6.51713 12.5421
280 2 -1.26466 2.4298 13.803
154 2 6.76402 2.85898 13.4368
350 2 4.71171 5.62013 17.554
145 2 0.795728 6.93516 4.40471
59 1 -6.34284 12.7985 2.92181
10 4 -2.32768 8.88239 1.48518
11 4 -3.63189 11.3307 0.304041
159 2 1.41029 10.1021 1.72325
290 2 -3.66183 9.93509 8.46036
362 3 0.693617 12.1007 0.307582
361 2 -5.65086 9.05704 2.64426
31 4 -0.80698 10.8187 3.34224
33 4 1.76126 8.58577 8.2374
34 4 1.0085 10.5255 5.7845
64 1 -1.19134 7.77273 0.222909
66 1 -1.58082 12.8826 8.19139
320 2 -5.07225 11.8832 5.11469
74 1 1.32098 8.94258 1.7802
100 2 -2.0868 11.3736 4.26692
114 2 -6.98435 12.4161 3.75128
125 2 -1.58376 6.85998 4.09177
291 2 -5.52987 9.98694 7.71695
130 2 -0.468871 7.02301 0.983053
115 2 -6.45052 12.1766 1.93667
134 2 -1.74925 11.8556 7.55043
319 2 -3.83165 10.6453 4.46289
347 2 -3.42375 12.61 7.53338
157 2 1.22494 8.56275 2.9933
158 2 0.432229 8.55354 1.17299
196 3 -3.31165 7.85049 2.32047
197 3 -3.16284 9.79925 0.502058
198 3 -3.68017 12.0961 1.67526
211 3 4.18796 6.86696 5.73532
217 3 3.37889 7.49719 3.06248
218 3 3.36782 7.76079 0.153635
219 3 -1.39222 9.68565 2.40641
220 3 -0.298886 12.1866 2.56039
221 3 2.82851 7.36872 8.14057
222 3 0.433647 10.3467 4.37092
223 3 0.981122 9.03685 6.89002
224 3 0.523032 11.836 6.60685
285 1 -4.74581 9.27455 7.99344
289 2 -4.47587 8.58988 7.13953
318 2 -3.13587 12.2197 5.22086
1 4 -4.40389 12.7831 3.07759
317 1 -3.97876 11.6832 4.70455
177 2 -6.49106 10.8024 3.12851
8 4 -3.94309 6.72203 3.28096
146 2 1.6956 6.74795 6.06479
19 4 -0.526899 13.016 12.7029
32 4 0.892519 11.3314 16.7019
35 4 1.50855 8.38635 13.7172
36 4 -1.81146 11.8672 15.2662
37 4 0.267745 10.197 11.5367
75 1 -0.836007 9.13442 10.3888
299 2 -3.53352 8.44251 15.6621
102 2 0.559717 8.11514 9.38681
103 2 -2.71844 10.5971 14.631
135 2 -1.69114 12.7341 9.3507
160 2 -0.53578 8.01453 10.4194
161 2 -0.663982 9.57544 9.38349
162 2 -2.0602 9.26979 10.7085
225 3 0.574907 7.60395 14.8635
226 3 2.34044 7.20221 12.9054
227 3 -0.413869 11.2915 15.8336
228 3 -1.4385 12.845 13.9681
229 3 -2.68619 12.4477 16.3679
230 3 0.37075 9.29307 12.7857
231 3 -0.730879 11.5761 11.6222
295 3 -3.62148 6.79582 9.37909
359 2 -5.15289 9.03962 17.2793
272 4 -5.95132 12.8981 13.7805
273 4 -6.37907 11.2939 16.4371
274 2 -4.70608 12.0926 12.3982
297 2 -2.72048 7.64594 13.8453
277 3 -5.1258 11.5927 17.3407
278 3 -6.10558 11.8959 14.9538
284 4 -4.49014 8.23739 9.62561
286 1 -3.9964 9.10366 11.2583
292 2 -3.85787 10.2277 11.0353
293 2 -3.20196 8.59554 11.8699
266 3 2.61364 9.34033 14.4897
294 2 -5.20022 8.79433 11.6782
129 2 -1.94695 7.58513 17.2492
263 3 1.74316 10.4751 10.9244
133 2 -6.20966 10.3669 10.5285
101 2 1.18252 9.83036 17.4717
358 2 -3.92143 7.1505 17.0412
327 2 -3.1656 13.0264 13.2808
131 2 -0.610183 8.84258 17.2109
151 2 3.79448 7.10415 14.5229
325 1 -4.1598 13.2751 12.8338
349 2 -5.56685 12.1798 9.03973
15 4 7.36027 2.75434 0.436474
18 4 7.95841 2.48783 5.11082
22 4 6.57827 4.79695 2.57595
25 4 5.92883 4.6623 7.24345
39 4 10.4222 2.08835 3.00296
45 4 12.1103 4.27571 1.40662
354 2 14.7393 2.17103 6.23864
48 4 12.2463 3.23795 7.71577
49 4 8.49113 5.82913 8.37524
71 1 5.95333 6.07965 1.31441
76 1 15.4317 1.58207 5.48433
77 1 11.8712 1.37992 4.07276
80 1 11.9029 3.96026 5.98977
94 2 8.18796 3.96407 5.90832
212 3 5.29549 5.93981 8.0121
106 2 13.1614 1.72497 7.59742
334 2 11.9987 0.331609 7.35361
109 2 11.594 5.91678 6.58948
204 3 8.17006 1.31801 6.13165
163 2 15.786 0.527908 5.81057
164 2 14.9681 1.58609 4.4326
165 2 12.8512 1.8958 4.26995
167 2 11.297 1.38003 5.11598
174 2 10.8469 4.3429 6.24032
175 2 11.8605 2.95988 5.30157
176 2 12.6256 4.68843 5.57285
335 2 13.8539 0.52058 6.56512
209 3 7.36667 3.77385 1.71459
232 3 9.98719 0.777539 2.036
233 3 9.09628 2.4423 4.11879
234 3 13.1105 0.724186 0.407199
236 3 9.43089 0.649155 8.57476
241 3 11.179 3.23251 2.21291
242 3 13.3164 3.39165 0.561962
243 3 12.9489 5.11773 2.60331
244 3 7.3197 5.58015 3.73141
245 3 11.3102 5.45756 0.588537
246 3 10.8505 3.04987 8.40489
247 3 13.2888 4.25251 8.33915
248 3 7.65597 4.58752 7.38433
250 3 9.56238 6.17195 5.07788
329 1 15.5193 1.2042 1.78213
330 2 14.6922 1.94797 2.02914
331 2 16.1563 1.49321 0.91114
332 2 16.0732 0.78586 2.71348
150 2 6.36895 5.6217 0.340473
166 2 11.9864 0.381974 3.66077
4 4 14.9401 1.17094 10.3415
21 4 7.49024 2.68645 11.0901
40 4 12.9381 2.42685 17.2117
42 4 9.92007 1.96361 9.37747
44 4 12.2329 2.35985 11.238
73 1 6.41251 3.97569 13.8464
79 1 8.06125 5.87064 10.246
338 2 10.0829 0.858241 12.9408
96 2 7.67239 3.82729 12.3188
104 2 12.0985 3.963 10.346
110 2 11.9514 2.97868 12.8152
312 2 8.44542 6.62859 13.9677
152 2 5.37655 6.51382 15.4168
155 2 7.05111 4.20421 14.7152
156 2 6.52304 4.84755 13.0465
171 2 6.89782 5.55622 10.0427
360 2 8.73909 5.71552 16.9083
193 3 16.1873 1.04934 11.2924
237 3 8.69536 2.752 10.1069
238 3 8.74027 3.49211 17.0523
239 3 13.6374 1.64592 11.1966