ITEM: TIMESTEP
0
ITEM: NUMBER OF ATOMS
362
ITEM: BOX BOUNDS xy xz yz pp pp pp
-8.3819999999999997e+00 1.7202700000000000e+01 -8.3819999999999997e+00
0.0000000000000000e+00 1.3430600000000000e+01 3.0499999999999999e-02
0.0000000000000000e+00 1.7586700000000000e+01 3.0270000000000002e-01
ITEM: ATOMS id type q x y z
2 4 1.03452 -0.499867 2.91842 5.43163
7 4 0.755146 -1.56433 3.67566 2.37453
60 1 -0.653258 -0.467005 4.78755 6.46769
69 1 -0.677934 -0.11399 4.16975 1.28611
287 2 -0.00842207 -1.83521 5.62273 7.62523
146 2 0.197031 0.511034 5.45405 4.85667
118 2 0.170038 -1.40964 5.39107 5.9417
119 2 0.173472 0.468086 5.38997 6.82106
70 1 -0.653343 0.952755 5.9107 3.76583
142 2 0.131559 -0.495744 3.72069 0.267209
143 2 0.17099 0.909988 3.839 1.61332
144 2 0.134224 -0.288702 5.31321 1.32004
147 2 0.176506 0.530569 5.25999 2.9164
191 3 -0.776595 0.889651 2.10604 5.53389
194 3 -0.76811 -1.07447 3.33328 3.81016
116 2 0.189817 1.98737 0.804742 2.33002
122 2 0.179775 1.26121 4.08493 7.13999
117 2 0.106374 -0.760373 4.09973 7.38643
283 4 0.907241 -3.16476 5.75389 8.63648
123 2 0.160129 -2.76315 5.2299 4.72587
62 1 -0.69319 -2.8788 6.34654 4.92056
121 2 0.161835 2.17023 3.07627 8.53168
124 2 0.1729 -3.24133 6.57271 5.97185
87 2 0.0990644 -2.94023 4.7294 2.45586
61 1 -0.665767 2.23374 3.50454 7.45687
25 4 1.22639 5.87417 4.11408 7.32805
192 3 -0.835473 2.99541 0.869921 7.00705
93 2 0.117371 3.59688 4.61587 2.99315
201 3 -0.796646 7.57561 1.02326 0.862622
200 3 -0.828156 3.56088 2.71197 4.8954
23 4 1.0929 2.81372 6.037 3.67895
3 4 0.933963 3.65352 0.299372 8.35027
120 2 0.21736 3.19054 4.11113 7.19069
210 3 -0.90836 5.42049 3.2589 8.49334
199 3 -0.798462 4.36331 0.904805 3.24134
208 3 -0.787085 4.64546 3.56537 2.65238
211 3 -0.788371 3.41007 6.41804 5.14939
203 3 -0.805939 6.32998 2.32152 4.68447
95 2 0.0663114 5.71294 3.24359 5.89293
5 4 1.26638 2.4272 2.11238 6.14858
14 4 1.4488 4.65314 2.35881 3.87379
212 3 -0.858895 5.02564 5.45989 7.07578
353 2 0.176995 5.94949 0.660627 8.18284
149 2 0.169291 4.86092 5.54841 0.859546
16 4 1.42706 8.40011 0.379055 7.59659
26 4 1.30679 4.12116 6.67384 6.58283
6 4 1.2004 0.238164 1.58173 11.9559
9 4 1.02496 1.01692 4.4613 13.1741
28 4 1.18781 1.34855 5.95898 15.8852
63 1 -0.663526 -0.0465954 5.84684 12.4102
68 1 -0.685108 0.946728 1.81919 10.1758
98 2 0.00175117 0.380582 5.64192 17.2767
126 2 0.133498 -0.936949 5.24828 11.9296
127 2 0.121675 0.785252 6.07748 11.6384
139 2 0.125438 0.991864 3.02716 10.4046
140 2 0.149798 0.907068 1.60019 9.07333
195 3 -0.810259 0.456 2.99843 12.6894
214 3 -0.787304 1.01126 4.74607 14.7705
297 2 0.00548802 -1.54028 5.80468 13.7187
324 2 0.188402 0.000659582 2.43204 15.7181
141 2 0.165918 2.00542 1.49118 10.4544
86 2 -0.0114916 -0.848056 1.92694 9.23056
348 2 -0.0417191 -2.45914 5.42001 10.1221
321 1 -0.676871 -0.345836 1.35462 15.489
322 2 0.254183 0.323477 0.869457 14.6339
276 3 -0.760705 1.21731 0.3801 12.9213
128 2 0.211098 -0.364719 6.75823 12.931
97 2 0.0128152 5.4259 3.84529 12.4189
326 2 0.141285 4.28965 0.612332 13.3109
325 1 -0.646813 3.5963 0.649561 14.2399
137 2 0.122189 3.12435 3.77806 10.2252
91 2 -0.0030863 3.49616 3.70493 17.0159
138 2 0.135731 4.73894 4.79276 11.022
99 2 -0.030503 3.17293 5.83481 11.2508
202 3 -0.861658 4.17547 1.24755 9.45667
215 3 -0.844083 2.83152 6.18084 16.3819
206 3 -0.846261 6.09083 2.40972 10.8614
207 3 -0.838491 7.43512 0.692743 12.0964
328 2 0.165914 3.06658 1.67719 14.3683
213 3 -0.821255 5.12713 3.95121 14.9736
89 2 -0.00481616 2.72944 4.37436 12.6715
17 4 1.35755 4.96423 2.58075 9.77764
20 4 0.991137 4.82589 3.11299 16.2686
27 4 1.01464 5.52455 4.8915 13.7519
205 3 -0.783201 6.09988 2.94789 17.1645
67 1 -0.667519 3.91699 4.02104 11.1348
136 2 0.148325 3.90736 3.2366 11.9451
92 2 0.0257437 4.33734 1.5428 15.8092
216 3 -0.844796 4.75824 6.26292 13.4775
10 4 1.30756 -2.53939 8.91839 2.13215
196 3 -0.797661 -3.82368 8.13231 2.99322
197 3 -0.818871 -3.12295 9.4781 0.696503
198 3 -0.799649 -3.91193 12.0386 1.52596
285 1 -0.650192 -3.66806 9.43124 6.51304
289 2 0.179402 -4.74191 9.46044 6.04714
290 2 0.191596 -2.97677 8.61767 6.06633
291 2 0.136424 -3.16359 10.452 6.68129
317 1 -0.678201 -4.41723 11.4434 4.41093
318 2 0.16471 -4.26006 11.9945 5.40252
319 2 0.205629 -3.86827 10.4686 4.32172
320 2 0.137715 -5.63883 11.2552 4.31927
347 2 -0.0242534 -3.47592 12.3953 7.80473
100 2 0.0235281 -2.49242 11.8259 4.66669
1 4 1.19212 -4.56795 12.6022 2.82953
115 2 0.197868 -6.90198 12.2191 1.64877
284 4 0.806586 -4.26557 8.74255 8.2678
295 3 -0.778572 -3.71734 7.25329 8.46342
11 4 1.44439 -3.78566 10.9946 0.275546
59 1 -0.680377 -6.56019 12.7904 2.54481
114 2 0.176866 -7.14218 12.619 3.48601
125 2 0.165384 -1.98974 6.99993 4.57445
8 4 1.22631 -4.26671 6.76222 3.73551
182 2 0.205971 -8.12054 12.9739 6.03507
129 2 0.168968 -1.2954 7.51041 0.419804
145 2 0.183934 0.631481 6.9661 3.60723
13 4 1.6065 0.118628 13.1277 1.67198
66 1 -0.653165 -1.67042 12.9074 8.42454
219 3 -0.854488 -1.71791 9.95377 3.06235
134 2 0.148293 -1.75664 11.9321 7.76925
158 2 0.165553 0.993007 8.89788 1.77223
131 2 0.15563 -0.142762 7.92931 1.96719
362 3 -0.867751 0.596898 11.8615 0.775713
74 1 -0.668866 1.89769 9.52357 2.11074
223 3 -0.76074 0.969474 9.09237 7.12089
217 3 -0.843431 3.04915 7.17502 2.68455
220 3 -0.803996 -0.738504 12.3366 3.07898
224 3 -0.77192 0.701414 12.1292 7.10398
157 2 0.182695 1.80617 9.66023 3.22716
130 2 0.13458 -1.59757 6.68443 2.1507
221 3 -0.791231 2.71874 6.91391 7.58457
222 3 -0.80858 0.00230289 10.5955 4.93004
31 4 1.35297 -1.15535 11.1395 3.84275
33 4 1.21632 1.97647 8.25555 8.10396
34 4 1.25876 0.99426 10.6393 6.21794
64 1 -0.660108 -1.2099 7.6067 1.59131
101 2 0.0170599 1.45244 9.53195 0.202146
103 2 -0.0298052 -2.86574 10.2104 14.9782
229 3 -0.773153 -2.90834 12.2382 16.5234
272 4 1.00634 -6.03197 12.5386 13.5116
273 4 1.24296 -6.49515 11.0255 16.2904
274 2 -0.0169505 -5.4634 11.3637 12.386
132 2 0.15426 -5.5311 10.9052 10.291
277 3 -0.848553 -5.11304 11.0572 17.0834
278 3 -0.80536 -6.31971 11.7003 14.8802
286 1 -0.678629 -3.80669 9.93403 9.72685
359 2 0.198282 -5.3109 8.77913 17.0191
294 2 0.145729 -4.39644 9.47472 10.5784
299 2 -0.0188712 -2.44134 8.19055 13.3957
352 2 0.159021 -6.28524 12.5746 11.0557
65 1 -0.644127 -6.49918 11.4345 10.7001
292 2 0.126588 -4.08782 10.9403 9.42557
293 2 0.180299 -2.64124 9.93811 9.85613
327 2 0.223098 -4.29626 13.3379 15.1901
349 2 -0.00676444 -5.87009 12.423 9.13522
298 2 -0.0160688 -2.2759 7.26307 15.8797
296 4 0.629778 -2.71559 6.84068 14.3384
266 3 -0.852812 2.49758 9.55032 14.7769
263 3 -0.825126 1.82054 9.87656 10.9232
29 4 0.949111 3.57433 6.85827 12.6239
36 4 1.2419 -1.90651 11.4386 15.5889
102 2 0.00128254 1.06735 7.77451 9.51287
24 4 1.07714 3.75894 7.51639 16.664
135 2 0.23751 -1.58829 12.7569 9.52642
160 2 0.148888 -0.307209 7.41482 10.4762
162 2 0.154792 -1.56728 8.72088 10.987
228 3 -0.807178 -1.18766 12.1756 14.2618
226 3 -0.874605 2.25729 7.35832 13.2277
227 3 -0.810849 -0.631239 10.7535 16.3277
231 3 -0.768687 -0.449842 11.0779 11.6595
161 2 0.186057 -0.592779 8.89997 9.31741
225 3 -0.818064 0.677018 7.37376 15.4066
19 4 1.32041 -0.518542 12.4638 12.8059
32 4 1.27501 0.72855 11.2846 17.0806
35 4 1.44316 1.44854 8.37386 14.2088
37 4 1.30226 0.392959 9.73687 11.6215
75 1 -0.657628 -0.550836 8.49568 10.3853
230 3 -0.788758 0.249525 8.98668 13.188
15 4 1.5165 7.53826 2.59256 0.360488
18 4 1.31023 7.94303 2.40549 5.32869
22 4 1.26471 6.33573 4.51543 2.41757
39 4 1.45014 10.19 2.03506 3.21477
49 4 1.01928 8.06703 5.96768 8.33882
71 1 -0.690388 5.9215 5.86672 1.17186
94 2 0.092003 8.25858 3.87723 6.04757
150 2 0.173476 6.65812 5.6693 0.316097
209 3 -0.824355 7.42508 3.56636 1.61669
232 3 -0.84886 9.69091 0.845374 2.26508
233 3 -0.859827 9.07599 2.26022 4.27062
244 3 -0.850129 6.7772 5.44552 3.72282
248 3 -0.815638 7.59322 4.63164 7.40963
250 3 -0.832017 9.08445 6.13901 5.0255
174 2 0.19446 10.2674 4.27642 6.22526
246 3 -0.783276 10.5117 3.43833 8.6453
47 4 1.20471 10.287 6.50669 0.176231
204 3 -0.88114 8.06542 1.33399 6.43124
245 3 -0.826883 11.1089 5.26273 0.651565
355 2 0.163019 12.0989 0.136798 6.06304
166 2 0.173672 11.6855 0.327779 3.70618
241 3 -0.849009 10.9735 3.27864 2.51231
234 3 -0.818804 13.2373 0.735006 0.852298
242 3 -0.860936 13.0259 3.34406 0.752279
330 2 0.170593 15.9897 1.23549 2.6081
88 2 0.0483147 14.8016 2.29232 1.68169
247 3 -0.826363 12.9505 4.66402 8.31024
334 2 0.120776 11.787 0.635573 8.27908
109 2 0.00294617 10.9159 5.80084 6.86325
335 2 0.164316 13.6718 0.735669 6.87926
243 3 -0.790565 12.7272 5.15013 2.65001
354 2 0.122108 14.8711 2.59417 6.89961
45 4 1.55949 11.8911 4.19575 1.62365
48 4 1.04726 11.9228 3.52202 7.94683
76 1 -0.670371 15.411 1.79562 6.28687
77 1 -0.671008 11.7643 1.3684 4.26297
80 1 -0.656589 11.3712 3.98577 6.16501
106 2 -0.011354 12.6421 1.98771 7.50752
329 1 -0.688867 16.0418 0.791494 1.57227
163 2 0.164324 15.9578 1.01516 6.90232
164 2 0.149744 14.678 1.38273 5.48377
165 2 0.172009 12.6136 2.03 3.87374
167 2 0.16042 11.6673 1.25436 5.37536
175 2 0.16957 11.5976 3.06897 5.35437
176 2 0.174309 12.1446 4.87616 6.07918
331 2 0.154351 16.0325 1.60402 0.753855
332 2 0.19156 16.9109 0.0640132 1.48933
107 2 0.0257311 9.57669 5.6822 9.15166
42 4 1.46897 9.85192 2.07258 9.80305
73 1 -0.672302 7.49294 5.0637 13.5667
79 1 -0.674301 7.89629 5.6357 10.2403
154 2 0.167752 7.70018 5.24357 12.5032
155 2 0.182275 8.16135 4.27983 14.0763
156 2 0.157582 7.41537 6.09269 14.236
171 2 0.222111 8.42003 4.69881 10.484
237 3 -0.868485 8.8055 2.63327 10.9105
238 3 -0.798319 8.89552 3.25342 16.7212
300 4 1.23706 10.2922 3.01612 15.8976
302 1 -0.672646 9.82433 1.77732 14.541
305 2 0.187277 10.7538 1.09285 14.5061
306 2 0.151665 9.70925 2.50448 13.6456
307 2 0.208115 8.87942 1.31893 14.9811
338 2 0.21334 9.94311 0.5855 12.4603
340 1 -0.667835 8.84454 6.25099 16.5861
350 2 0.185029 5.58966 6.13578 16.1997
360 2 0.26058 8.79446 5.12694 16.6164
310 2 0.0726389 10.5007 6.00963 12.1544
96 2 -0.00731883 7.5108 3.16251 13.0383
172 2 0.136819 6.65224 5.55854 10.0911
236 3 -0.823717 9.1258 1.0171 8.85023
342 2 0.167842 7.89073 6.7758 16.9854
21 4 1.30994 7.4527 2.16957 11.6068
341 2 0.178792 9.14595 6.64088 15.5538
173 2 0.153422 8.24919 6.63631 10.7484
315 3 -0.761631 10.8645 4.48771 14.7284
193 3 -0.805012 15.8353 1.05358 11.5541
104 2 0.188312 11.466 4.85424 10.622
110 2 -0.0283963 12.1916 3.07941 12.4648
239 3 -0.823442 13.8132 2.24626 10.3754
308 2 0.170304 10.8268 3.89263 12.0486
240 3 -0.842219 11.1378 1.44879 10.5696
279 4 1.10706 14.9659 1.15497 15.3356
40 4 1.50367 12.8759 2.23735 17.5127
281 3 -0.818879 14.1649 2.07836 16.3335
309 2 0.125927 12.6529 4.79926 12.2762
303 1 -0.653222 11.426 4.78446 11.786
301 4 0.994687 11.306 5.65126 13.831
351 2 -0.0718109 12.9626 0.522674 12.3206
316 3 -0.734911 12.9935 6.29579 14.2026
4 4 1.16666 15.062 1.19834 10.1418
44 4 0.915882 12.4965 1.87179 11.2907
314 3 -0.8112 11.4055 2.16283 16.7814
323 2 0.206687 16.9345 0.611409 16.4335
280 2 0.0574081 15.7766 2.08791 14.0095
38 4 1.3023 6.14959 12.7686 1.18737
52 4 1.32296 5.33433 10.5465 3.29639
78 1 -0.718476 5.27523 8.24351 6.54639
82 1 -0.666191 2.81248 10.6954 5.69982
111 2 -0.0104312 4.11232 11.1697 4.25048
113 2 0.0321504 4.89285 11.4897 7.2324
169 2 0.176848 5.3516 8.53583 5.43397
170 2 0.250401 6.24295 8.12879 7.09078
179 2 0.13536 2.57156 10.7124 4.53339
180 2 0.185954 3.15051 9.67908 6.04028
181 2 0.181146 3.4442 11.6011 6.2005
253 3 -0.871271 4.71025 9.30765 2.58428
254 3 -0.824339 5.69395 11.8143 2.47985
168 2 0.202005 4.57037 8.93212 7.12106
264 3 -0.799917 6.55262 10.3206 4.2221
148 2 0.208022 5.89635 6.90375 1.64802
159 2 0.183606 2.10218 10.5393 1.63183
30 4 1.36229 3.56419 8.47445 1.92092
218 3 -0.875967 3.67429 8.14197 0.323099
333 1 -0.639835 4.3206 13.1995 7.0374
261 3 -0.839932 3.06921 9.31788 8.62273
184 2 0.115318 9.55953 11.502 4.79452
177 2 0.207185 9.9618 9.28021 4.08684
183 2 0.191149 8.4716 13.1024 4.27265
112 2 0.0216449 7.01419 12.4628 6.08792
178 2 0.214497 11.1677 9.06151 2.52726
252 3 -0.830467 9.63731 7.58938 1.12497
256 3 -0.801552 7.90562 9.55909 1.20219
259 3 -0.853013 9.9578 8.3181 6.30127
251 3 -0.850462 8.08079 7.83758 3.31894
50 4 1.27979 10.3497 6.91331 5.66965
258 3 -0.84869 7.85887 7.5359 7.99754
265 3 -0.857534 8.04263 10.0133 6.75495
249 3 -0.818482 11.5775 6.97507 4.75861
51 4 1.39555 8.79223 8.58454 2.14688
54 4 1.37741 8.79307 8.8348 7.44598
56 4 1.0107 7.5425 10.8696 5.51062
81 1 -0.658427 10.1823 9.6113 2.98523
83 1 -0.660693 8.70103 12.4307 5.15269
105 2 0.0199579 6.75268 7.43999 5.54246
361 2 0.158371 10.2004 10.8303 2.84256
288 2 0.0777249 11.2285 8.72315 8.44106
46 4 1.28394 7.69485 6.65344 4.30803
43 4 1.2912 5.11319 12.3819 13.4127
55 4 1.46447 3.32671 10.0033 10.0368
57 4 1.30056 3.02196 11.1175 15.2523
72 1 -0.682621 5.65993 7.28503 16.0856
84 1 -0.68954 4.51095 11.0025 16.5045
108 2 0.0869031 4.09531 8.14723 11.5736
153 2 0.157185 6.05995 7.86001 17.072
185 2 0.232239 5.46944 11.0403 15.9102
282 3 -0.844389 6.01266 13.0019 14.5723
189 2 0.173252 6.13793 7.90574 12.837
262 3 -0.807702 3.60153 11.6243 9.62919
267 3 -0.828494 3.73593 11.9081 13.9306
268 3 -0.832268 1.86588 11.8807 15.95
270 3 -0.806817 4.6543 9.36272 10.7536
271 3 -0.818406 5.71071 11.1653 12.561
356 2 0.24778 1.89568 11.8205 12.3556
151 2 0.0736068 4.36316 8.30576 15.2042
186 2 0.21799 4.34199 10.0317 17.0483
235 3 -0.845325 6.09628 13.0853 9.2481
187 2 0.227897 4.39083 11.8648 17.1771
152 2 0.169626 6.43047 7.3806 15.2863
336 1 -0.658874 1.37268 12.6808 12.8839
337 2 0.242037 1.4991 12.6623 13.9952
58 4 1.27407 6.26257 9.98518 11.6855
41 4 1.09252 4.72602 12.341 8.8912
269 3 -0.772054 7.55925 10.2661 10.763
346 2 0.172946 6.82157 8.97278 16.0866
358 2 0.201119 12.4424 7.05527 16.6731
260 3 -0.814566 9.68496 9.40388 9.00226
275 2 -0.0220965 10.4499 9.34932 15.9902
255 3 -0.827377 9.40236 11.6031 17.0792
345 2 0.200313 6.9162 10.5918 15.2121
343 1 -0.686923 7.44275 9.90782 15.8821
85 1 -0.652873 6.94694 8.73908 12.8783
357 2 0.159728 10.9759 7.70532 15.4928
188 2 0.166204 7.8979 8.43209 12.2605
304 1 -0.665124 9.98656 7.28789 13.8396
311 2 0.135637 9.47049 7.84156 14.7153
12 4 1.00844 9.16022 10.4264 10.0071
90 2 0.0236814 9.50473 12.0718 9.3304
133 2 0.0710941 10.1597 10.4829 11.8393
339 1 -0.667771 11.5894 7.79214 16.5883
313 2 0.137235 10.7207 8.01071 13.3792
344 2 0.131589 8.52072 9.70742 15.5509
190 2 0.179466 7.10002 9.17091 14.0221
53 4 1.25854 7.94132 10.906 17.4895
257 3 -0.793986 6.7259 12.1451 17.5782
312 2 0.157759 9.19242 6.98033 13.078
ITEM: TIMESTEP
100
ITEM: NUMBER OF ATOMS
362
ITEM: BOX BOUNDS xy xz yz pp pp pp
-8.3819999999999997e+00 1.7202700000000000e+01 -8.3819999999999997e+00
0.0000000000000000e+00 1.3430600000000000e+01 3.0499999999999999e-02
0.0000000000000000e+00 1.7621873400000002e+01 3.0270000000000002e-01
ITEM: ATOMS id type q x y z
2 4 1.08155 -0.485703 2.80169 5.35828
7 4 0.726758 -1.54196 3.6852 2.44041
60 1 -0.640932 -0.418948 4.60064 6.3218
69 1 -0.642537 -0.00469417 4.06758 1.30767
287 2 -0.00598315 -1.92351 5.38417 7.32162
146 2 0.20379 0.521361 5.37042 4.67266
118 2 0.169272 -1.28337 5.30772 5.77163
119 2 0.173124 0.60071 5.12875 6.49163
70 1 -0.661618 1.057 5.85492 3.74937
142 2 0.123432 -0.445629 3.34502 0.459277
143 2 0.160434 1.03397 3.82191 1.73172
144 2 0.107625 -0.424032 5.2666 1.37037
147 2 0.166446 0.703361 5.24421 2.81661
191 3 -0.751377 0.882207 2.05736 5.58549
194 3 -0.786813 -1.00971 3.29536 3.86185
116 2 0.173232 1.9638 0.924612 2.08681
122 2 0.189497 1.27836 3.96609 7.02465
117 2 0.110072 -0.913409 3.96807 7.25854
283 4 0.9366 -3.16457 5.73258 8.48678
123 2 0.143118 -2.6884 5.32159 4.58537
62 1 -0.697132 -2.73956 6.48768 4.92694
121 2 0.181257 2.38857 2.97221 8.3783
26 4 1.30717 3.93762 6.65888 6.62626
149 2 0.19688 4.5401 5.25166 1.03767
61 1 -0.673118 2.31073 3.47578 7.35789
25 4 1.22827 5.84102 4.26924 7.33178
192 3 -0.827428 3.07604 0.664807 6.94341
93 2 0.105768 3.66176 4.58793 3.01501
201 3 -0.821981 7.6145 1.08324 0.927716
200 3 -0.894262 3.84762 2.53347 5.0723
23 4 1.09232 2.8844 5.99201 3.71381
16 4 1.37011 8.40967 0.341709 7.64015
120 2 0.24093 3.13831 4.19245 7.14862
210 3 -0.858723 5.35491 3.47274 8.58321
199 3 -0.822153 4.5197 0.866134 3.16337
208 3 -0.80594 4.73589 3.51447 2.74638
211 3 -0.800405 3.35923 6.25619 5.14696
203 3 -0.833927 6.52223 2.35301 4.6321
95 2 0.0524659 5.79808 3.18697 6.07864
5 4 1.24695 2.69791 2.04473 6.12931
14 4 1.45536 4.75842 2.30117 3.90904
212 3 -0.875635 4.82481 5.39983 7.09669
3 4 0.930217 3.51107 0.144878 8.34476
6 4 1.16949 0.253628 1.65925 12.0887
9 4 1.04874 1.1181 4.4519 13.3467
28 4 1.23482 1.36855 6.02972 15.9378
63 1 -0.637314 -0.0237659 5.73089 12.4708
68 1 -0.683228 0.974795 1.76799 10.2929
98 2 0.0123017 0.788782 5.4987 17.4579
126 2 0.149226 -0.702397 4.95018 11.9024
127 2 0.12349 0.938026 6.10719 11.8587
139 2 0.134395 0.65346 2.68329 9.70918
140 2 0.147802 0.773367 0.848135 9.63842
195 3 -0.802439 0.325819 3.09323 12.9053
214 3 -0.821167 1.13403 4.88111 14.8547
297 2 0.0092652 -1.58332 5.54128 13.6844
324 2 0.172548 0.034561 2.23048 15.8896
141 2 0.185302 2.10192 1.77312 10.6876
86 2 -0.0273278 -0.817534 1.98372 9.34019
348 2 -0.0396105 -2.35028 5.55551 9.92819
321 1 -0.674164 -0.32146 1.22025 15.5235
322 2 0.261771 0.241642 0.870631 14.605
276 3 -0.783846 1.26744 0.535167 12.9515
216 3 -0.852252 4.63633 6.31191 13.5292
97 2 -0.00948324 5.09351 3.92856 12.3506
326 2 0.155894 4.57469 0.359299 13.1415
325 1 -0.674728 4.02471 0.466312 14.1584
137 2 0.147177 2.8587 3.71898 10.1836
91 2 -0.0141812 3.54007 3.45831 17.0118
138 2 0.123233 4.41778 4.75359 10.9032
99 2 -0.0383762 3.06948 5.84757 11.4166
202 3 -0.819193 3.87714 1.27823 9.39264
215 3 -0.810105 2.93469 6.20847 16.3811
206 3 -0.806325 6.13219 2.38127 10.7687
207 3 -0.780911 7.44013 0.598485 12.0278
328 2 0.136179 3.48609 1.51878 14.3596
213 3 -0.837863 5.1498 3.91261 15.0018
89 2 -0.00602416 2.70932 4.33006 12.7267
17 4 1.25463 4.85391 2.62976 9.78186
20 4 1.03183 4.96195 3.0966 16.2594
27 4 1.01366 5.35406 4.90973 13.7749
205 3 -0.830553 6.17679 3.08782 17.1808
67 1 -0.660483 3.59117 3.93632 11.0797
136 2 0.124135 3.81997 3.02096 11.8357
92 2 0.0253955 4.59804 1.4956 15.7914
128 2 0.162076 -0.56328 6.66043 12.9909
135 2 0.229638 6.55752 0.584301 9.19897
296 4 0.663539 -2.61279 6.78195 14.2107
10 4 1.25887 -2.58726 8.99032 1.92535
196 3 -0.754878 -3.86074 8.04334 2.81594
197 3 -0.831634 -3.11494 9.66771 0.413778
198 3 -0.789914 -4.15171 11.8236 1.58165
285 1 -0.647727 -3.45728 9.393 6.64264
289 2 0.168284 -4.40229 9.0529 5.98148
290 2 0.202663 -2.49532 8.96121 6.34738
291 2 0.124413 -3.43774 10.5717 6.89278
317 1 -0.675117 -4.47977 11.5096 4.4551
318 2 0.16808 -4.19572 12.1773 5.35399
319 2 0.191292 -3.79653 10.5811 4.39458
320 2 0.151009 -5.62476 11.3015 4.34567
347 2 -0.0215024 -3.52567 12.2079 8.06913
100 2 0.0130595 -2.51394 11.984 4.64223
1 4 1.19451 -4.5978 12.6419 2.83485
115 2 0.224144 -6.69618 12.3465 1.31906
284 4 0.798305 -4.26312 8.72516 8.22989
295 3 -0.776968 -3.70527 7.20588 8.33003
11 4 1.46232 -3.88935 10.9779 0.144774
59 1 -0.668323 -6.50005 12.929 2.28597
114 2 0.164241 -7.31074 12.7352 3.06749
125 2 0.177813 -1.83068 7.07017 4.68916
101 2 -0.00280801 1.54991 9.59238 0.146945
182 2 0.188423 -7.84105 12.7295 5.80388
129 2 0.165868 -1.05439 7.68104 0.522565
145 2 0.17068 0.779798 6.9966 3.63621
13 4 1.60298 0.114585 13.0732 1.69977
66 1 -0.667681 -1.70566 13.0141 8.3073
219 3 -0.818412 -1.80058 10.0249 2.99407
134 2 0.190776 -1.68503 11.9428 8.68746
158 2 0.161391 0.883598 9.07057 1.54619
131 2 0.170342 -0.39524 8.07791 2.25518
362 3 -0.821374 0.383854 11.99 0.574793
74 1 -0.670453 1.80848 9.47123 2.08227
223 3 -0.78787 0.795567 9.42906 7.17069
217 3 -0.798526 3.23071 7.25387 2.79301
220 3 -0.867606 -0.71567 12.3555 2.8805
224 3 -0.785893 0.58277 12.078 7.17527
157 2 0.18337 1.71892 9.49374 3.23841
353 2 0.149543 -2.35195 13.2037 7.35048
221 3 -0.788174 2.57208 7.11119 7.57611
222 3 -0.825611 -0.201133 10.6908 4.92588
31 4 1.35564 -1.22776 11.2595 3.75968
33 4 1.18631 1.87692 8.43229 8.20508
34 4 1.33491 0.791098 10.6671 6.21208
64 1 -0.683492 -1.29042 7.65871 1.63421
124 2 0.174977 -3.18787 6.71799 5.97865
8 4 1.23164 -4.21955 6.84504 3.84102
130 2 0.157819 -1.72802 6.71283 1.98498
103 2 -0.0368879 -2.4589 10.0957 14.724
229 3 -0.79245 -2.94867 12.1838 16.282
272 4 0.994461 -5.95318 12.7464 13.5975
273 4 1.24453 -6.59551 10.9722 16.271
274 2 -0.00731541 -5.43763 11.8677 12.207
132 2 0.153163 -5.40033 10.6659 10.3177
277 3 -0.837187 -5.34656 10.9985 17.24
278 3 -0.800669 -6.36747 11.7858 14.8931
286 1 -0.666899 -3.57829 9.93632 9.67677
359 2 0.198264 -5.38178 8.92071 16.9014
294 2 0.152057 -3.91421 9.72712 10.7066
299 2 -0.0187247 -2.23526 8.2136 13.4928
352 2 0.16951 -6.33228 12.2303 10.8397
65 1 -0.647973 -6.42534 11.1748 10.6322
292 2 0.116145 -3.89306 11.0107 9.38103
293 2 0.182854 -2.45438 9.72113 9.62868
327 2 0.274047 -3.76963 13.0822 15.0118
349 2 -0.0240937 -5.98534 12.1968 8.97092
298 2 -0.0189526 -2.14983 7.06366 15.7686
75 1 -0.679562 -0.639471 8.35306 10.5268
266 3 -0.869982 2.5174 9.5779 14.8805
263 3 -0.818841 2.05884 9.74694 10.9597
29 4 0.955125 3.58767 6.96072 12.572
36 4 1.26387 -1.83399 11.3953 15.4875
102 2 -0.00125892 0.98887 7.83024 9.54544
24 4 1.11179 3.89561 7.51604 16.5427
230 3 -0.826259 0.303506 9.00772 13.1042
160 2 0.154972 -0.43283 7.24161 10.6738
162 2 0.162658 -1.67949 8.64189 10.9658
228 3 -0.793522 -1.30934 12.3531 14.2817
226 3 -0.870994 2.33411 7.50137 13.2811
227 3 -0.819467 -0.624081 10.8149 16.4077
231 3 -0.789296 -0.53007 10.9768 11.7312
161 2 0.15956 -0.671936 8.62054 9.4184
225 3 -0.825903 0.764941 7.39354 15.4835
19 4 1.28145 -0.485942 12.3745 12.779
32 4 1.28976 0.769066 11.2595 17.0507
35 4 1.45088 1.46335 8.43533 14.1678
37 4 1.25712 0.308313 9.64301 11.6124
15 4 1.55814 7.55544 2.59092 0.351477
18 4 1.34157 7.95299 2.45024 5.25065
22 4 1.33321 6.45563 4.44659 2.42704
39 4 1.35794 10.2879 1.92887 3.06631
49 4 1.05358 7.89511 6.01681 8.43238
71 1 -0.66904 5.55386 5.6989 1.2436
94 2 0.0777061 8.19155 3.97324 5.92112
150 2 0.173467 6.33098 5.63432 0.376808
209 3 -0.814674 7.55683 3.77511 1.54605
232 3 -0.813777 10.0581 0.559485 2.205
233 3 -0.822422 9.05964 2.19408 4.20405
244 3 -0.877527 6.98166 5.34697 3.60096
248 3 -0.837403 7.55628 4.76602 7.48743
250 3 -0.828069 9.05775 6.00424 5.02388
174 2 0.176662 10.2135 4.04937 6.57117
333 1 -0.654264 12.5773 0.133763 7.01004
331 2 0.148919 16.0265 1.37502 0.98737
204 3 -0.842038 8.14735 1.41354 6.41081
245 3 -0.767778 11.0206 5.27003 0.760318
46 4 1.29583 7.68959 6.53486 4.29646
166 2 0.197145 12.025 0.470539 3.5805
241 3 -0.820728 10.8574 3.29147 2.33907
234 3 -0.843241 13.1524 0.594987 0.796293
242 3 -0.861088 13.0026 3.34516 0.717713
330 2 0.167217 15.8943 1.19314 2.85946
88 2 0.0289181 14.8424 2.34726 1.71018
247 3 -0.832279 12.9436 4.6647 8.31367
334 2 0.0956806 11.9048 0.803406 8.52135
109 2 0.00514677 10.9258 5.71205 6.88547
335 2 0.152916 13.5162 0.786985 6.62082
243 3 -0.737868 12.6937 5.21951 2.70393
354 2 0.1376 14.2858 2.56151 6.3782
45 4 1.54682 11.887 4.18523 1.57507
48 4 1.07376 11.9711 3.53025 7.97406
76 1 -0.688635 15.1589 1.90697 6.07611
77 1 -0.671294 11.7519 1.37488 4.24023
80 1 -0.686458 11.3354 3.87453 6.2285
106 2 -0.0046442 12.7812 2.03715 7.45621
329 1 -0.666509 15.8717 0.671883 1.81799
163 2 0.153856 15.426 1.268 6.94294
164 2 0.157448 14.9759 1.27673 5.16651
165 2 0.15402 12.5675 2.17349 4.36271
167 2 0.161088 11.1737 1.05376 5.23651
175 2 0.171499 11.4861 2.91284 5.51098
176 2 0.180577 11.6904 4.80123 5.68491
355 2 0.174507 11.7811 0.220579 6.22315
87 2 0.079583 14.1627 4.54214 2.58876
183 2 0.188739 16.9847 0.0848246 4.19599
107 2 0.0411762 9.53181 5.72786 8.97715
42 4 1.48065 9.94671 2.19082 9.86844
73 1 -0.685327 7.34573 5.02797 13.6454
79 1 -0.672688 8.15552 5.63867 10.3781
154 2 0.153148 7.71158 5.03435 12.5586
155 2 0.195025 7.87633 4.35073 14.3219
156 2 0.166886 7.35646 6.0952 14.0566
171 2 0.248816 8.38618 4.53447 10.6549
237 3 -0.831861 8.70732 2.75792 11.01
238 3 -0.829565 8.82184 3.27649 16.8175
300 4 1.29331 10.1718 3.08083 15.9092
302 1 -0.677493 9.70284 1.80525 14.5212
305 2 0.222363 10.4413 0.991255 14.9617
306 2 0.15473 10.048 2.40525 13.6203
307 2 0.202309 8.629 1.61453 14.6394
338 2 0.22105 10.0608 0.599662 12.6763
340 1 -0.67935 9.00892 6.22899 16.5383
350 2 0.177009 5.79695 6.25541 16.2109
360 2 0.283238 8.82124 5.10274 16.7015
310 2 0.0870158 10.3116 5.67673 12.0439
96 2 -0.01349 7.35318 3.13596 13.098
172 2 0.119332 6.93826 5.85283 10.4891
236 3 -0.780457 9.27445 1.05487 8.87506
280 2 0.0594437 15.8307 2.354 14.2773
21 4 1.24525 7.43415 2.20769 11.7146
341 2 0.195074 9.33835 6.50853 15.5318
173 2 0.158573 8.84753 6.34487 10.963
315 3 -0.763921 10.782 4.47639 14.8681
193 3 -0.786343 15.7562 1.10461 11.7581
104 2 0.224783 11.457 4.37292 10.7623
110 2 -0.0326784 12.394 3.04875 12.5977
239 3 -0.8093 13.7135 2.34626 10.2137
308 2 0.163967 10.7973 3.55415 12.2866
240 3 -0.819121 11.1226 1.47052 10.7358
279 4 1.09879 14.9462 1.12248 15.2578
40 4 1.51015 12.8265 2.2133 17.4231
281 3 -0.821176 13.9929 1.98075 16.2215
309 2 0.0916729 12.6546 4.70522 12.4443
303 1 -0.63983 11.2917 4.49902 11.8362
301 4 0.938996 11.3529 5.54481 13.8494
351 2 -0.0716658 13.1236 0.545849 12.3824
316 3 -0.746533 13.1915 6.37118 14.1087
4 4 1.07918 15.1419 1.30197 10.2657
44 4 0.904081 12.5968 1.8868 11.3151
314 3 -0.832299 11.481 2.42478 16.6007
323 2 0.194696 16.7628 0.372454 16.4574
246 3 -0.830352 10.646 3.31742 8.95029
312 2 0.150175 9.24438 6.536 13.4326
38 4 1.34999 5.92562 12.7483 1.3141
52 4 1.30912 5.4979 10.5685 3.47617
78 1 -0.709514 5.11528 8.14931 6.31134
82 1 -0.665884 2.58485 10.8349 5.57484
111 2 -0.00626653 4.37772 11.0532 4.6627
113 2 0.0335088 4.89522 11.6735 7.09131
169 2 0.193167 5.16063 8.31413 5.23524
170 2 0.232734 6.09544 7.87042 6.86251
179 2 0.152922 2.58302 11.0744 4.44522
180 2 0.174224 2.99658 9.84193 5.77064
181 2 0.175881 3.21533 11.683 6.20388
253 3 -0.825096 4.69829 9.50154 2.61924
254 3 -0.847304 5.70542 11.8861 2.66883
168 2 0.198445 4.60934 8.99772 6.90299
264 3 -0.83504 6.72586 10.2354 4.35654
148 2 0.215899 5.58061 6.73639 1.69357
159 2 0.143245 2.22254 10.4942 1.6065
30 4 1.26667 3.48665 8.5816 1.89785
218 3 -0.840001 3.60154 8.06167 0.227425
288 2 0.0997851 11.1941 8.85042 8.44422
261 3 -0.834945 3.1417 9.25802 8.70396
184 2 0.127398 9.51578 11.506 4.4377
177 2 0.160686 9.93161 9.76432 4.03701
361 2 0.181175 10.1633 10.9628 2.56546
112 2 0.0137575 7.10779 12.4955 5.91718
178 2 0.23855 11.1151 9.34795 2.60069
252 3 -0.785842 9.6711 7.62319 1.24134
256 3 -0.773966 7.86858 9.57657 0.978901
259 3 -0.868397 9.9055 8.15429 6.41163
251 3 -0.782732 7.94613 7.77965 3.23361
50 4 1.25303 10.2887 6.79102 5.71084
258 3 -0.870618 7.72242 7.48683 7.82134
265 3 -0.865705 7.96296 10.0532 6.87296
249 3 -0.804666 11.597 7.01745 4.74911
51 4 1.33312 8.82723 8.71468 2.14816
54 4 1.385 8.69077 8.71711 7.38992
56 4 1.03296 7.63121 10.8642 5.53829
81 1 -0.684471 10.1379 9.84305 2.89562
83 1 -0.677036 8.7798 12.338 4.90106
105 2 0.00739976 6.53439 7.00165 5.4526
257 3 -0.832597 6.6756 11.8474 0.121642
332 2 0.186491 8.28816 12.9624 1.70624
47 4 1.20588 10.2583 6.60027 0.173176
43 4 1.32446 5.20451 12.3827 13.4376
55 4 1.41944 3.38269 10.0084 10.0669
57 4 1.26736 3.07468 11.0745 15.3082
72 1 -0.687578 5.72874 7.41141 15.9292
84 1 -0.690347 4.28008 10.9371 16.6955
108 2 0.0785596 4.25863 8.10038 11.4684
153 2 0.146384 6.23753 8.00337 16.8459
185 2 0.184593 5.43559 10.6372 16.2748
282 3 -0.858191 6.13955 12.9406 14.5303
189 2 0.187974 5.93826 7.90684 12.9768
262 3 -0.792252 3.82168 11.6564 9.75897
267 3 -0.832172 3.87661 11.8719 14.0846
268 3 -0.814922 1.81945 12.0252 16.0329
270 3 -0.772179 4.99608 9.30776 10.7323
271 3 -0.805745 5.84698 11.2193 12.5516
356 2 0.218131 1.84518 11.8484 12.5142
151 2 0.0743906 4.26979 8.49828 15.1297
186 2 0.218155 3.97434 10.0548 17.2218
235 3 -0.756353 6.33669 13.0458 9.44236
187 2 0.220082 4.17194 11.9188 17.2974
152 2 0.175079 6.11931 7.77877 14.8869
336 1 -0.665778 1.38916 12.6964 13.0743
337 2 0.245354 1.48305 12.4844 14.1982
58 4 1.34603 6.32301 9.99487 11.613
53 4 1.32869 7.77723 11.006 17.4041
269 3 -0.784734 7.6988 10.1421 10.806
346 2 0.148437 6.65681 9.22744 15.8631
358 2 0.194916 12.5043 7.20484 16.6492
260 3 -0.802761 9.67068 9.06217 9.01557
275 2 -0.0237789 10.4275 9.29286 15.8958
255 3 -0.827276 9.32338 11.4358 17.1058
345 2 0.239927 6.80231 11.0776 15.1969
343 1 -0.691768 7.33717 10.1953 15.6702
85 1 -0.667271 6.73491 8.66147 12.9021
357 2 0.158653 11.0435 7.63346 15.473
188 2 0.172865 7.71633 8.27303 12.4055
304 1 -0.673702 10.1339 7.18399 13.7892
311 2 0.141761 9.79367 7.96267 14.4807
12 4 1.02461 9.1184 10.232 9.87754
90 2 0.0045203 9.45765 11.8733 9.34862
133 2 0.101951 10.1211 10.3666 11.7556
339 1 -0.667411 11.5562 7.81092 16.6299
313 2 0.143342 10.7537 7.63003 12.9406
344 2 0.148108 8.27526 9.9145 15.0954
190 2 0.178961 6.98493 9.13915 13.9412
342 2 0.16955 8.19662 6.92123 16.843
41 4 1.0044 4.69398 12.4937 8.80921
ITEM: TIMESTEP
200
ITEM: NUMBER OF ATOMS
362
ITEM: BOX BOUNDS xy xz yz pp pp pp
-8.3819999999999997e+00 1.7202700000000000e+01 -8.3819999999999997e+00
0.0000000000000000e+00 1.3430600000000000e+01 3.0499999999999999e-02
0.0000000000000000e+00 1.7657046800000000e+01 3.0270000000000002e-01
ITEM: ATOMS id type q x y z
2 4 1.00885 -0.558024 2.85104 5.34605
7 4 0.744738 -1.49826 3.66815 2.39692
60 1 -0.658488 -0.417086 4.69531 6.37546
69 1 -0.64758 -0.0397051 4.01506 1.22625
287 2 -0.00656349 -1.67012 5.56414 7.62851
146 2 0.208553 0.484988 5.40103 4.71051
118 2 0.180051 -1.21029 5.33368 5.8567
119 2 0.187158 0.446496 5.25433 6.75171
70 1 -0.649886 0.962666 5.82737 3.67922
142 2 0.127502 -0.469221 3.24728 0.422083
143 2 0.158431 1.07566 3.84364 1.45183
144 2 0.0930299 -0.497956 5.26555 1.23921
147 2 0.167311 0.570967 5.12973 2.72827
191 3 -0.742397 1.04308 1.97843 5.38932
194 3 -0.782332 -1.04607 3.33886 3.87749
116 2 0.183104 1.83169 0.837598 2.33913
122 2 0.166873 1.30506 3.91626 7.08471