ITEM: TIMESTEP
0
ITEM: NUMBER OF ATOMS
362
ITEM: BOX BOUNDS xy xz yz pp pp pp
-8.3819999999999997e+00 1.7202700000000000e+01 -8.3819999999999997e+00
0.0000000000000000e+00 1.3430600000000000e+01 3.0499999999999999e-02
0.0000000000000000e+00 1.7586700000000000e+01 3.0270000000000002e-01
ITEM: ATOMS id type x y z
3 4 3.64502 0.340502 8.25079
2 4 -0.534468 2.91331 5.31093
5 4 2.60344 2.26128 6.09513
7 4 -0.745125 3.96984 2.23126
14 4 4.93713 2.48405 4.09166
23 4 3.29075 6.52991 4.44736
201 3 7.56345 1.21376 1.14503
60 1 -0.721584 4.62103 6.56124
61 1 2.21793 3.56939 7.43747
70 1 1.43562 6.38083 4.89026
69 1 0.361825 5.51005 1.98678
87 2 -1.46272 5.62479 1.98326
91 2 3.90115 1.96573 0.30927
93 2 3.93504 4.93031 4.03692
88 2 -1.34347 2.76411 1.0983
116 2 1.82481 0.950792 2.88633
117 2 -1.52406 5.28347 6.06414
118 2 0.189476 5.22178 6.74921
119 2 -1.05604 4.03057 7.47306
120 2 1.11227 4.15097 7.05181
121 2 3.04698 4.28756 7.39552
122 2 2.17971 3.04265 8.4698
123 2 -2.473 5.36367 4.46098
353 2 6.25386 0.496088 7.63302
142 2 0.805478 6.19949 1.2392
143 2 1.10362 4.0347 1.62922
144 2 0.791415 5.81037 3.07747
147 2 1.53822 5.15763 4.7528
62 1 -2.67299 6.46907 4.7926
191 3 1.06914 2.27534 5.41501
192 3 2.93175 0.944506 6.95841
194 3 -0.89534 3.4322 3.7227
199 3 4.50631 1.08876 3.29583
200 3 3.88269 2.83643 5.2969
149 2 4.64866 5.74615 1.70346
203 3 6.52099 2.46902 4.63367
208 3 4.72929 3.77014 3.13896
210 3 5.30158 3.28912 8.12224
287 2 -1.60357 5.67977 7.93469
95 2 5.55239 4.52294 5.73729
350 2 4.22662 5.28816 0.11272
16 4 8.47129 0.167732 7.46291
124 2 -2.96357 6.55179 5.85396
6 4 0.410014 1.47258 11.9412
9 4 0.747532 4.46767 13.183
17 4 4.94903 2.69574 9.55952
20 4 5.07675 2.49297 16.7692
24 4 3.38303 6.77942 16.8185
27 4 4.82349 3.61084 13.9699
28 4 0.615979 6.22454 15.5573
29 4 3.50821 6.33595 11.9946
63 1 -0.234008 5.52515 11.9705
67 1 3.51798 4.05254 10.0634
68 1 1.59259 1.59978 10.4748
89 2 2.53843 4.49165 13.1815
205 3 6.34702 3.14719 17.2628
92 2 5.44298 0.89555 16.3249
97 2 4.6052 2.13556 13.007
98 2 -0.562726 6.65698 16.7566
99 2 2.6795 5.72845 10.5984
126 2 -0.924902 6.23894 12.5716
127 2 -0.791499 4.80807 11.267
128 2 0.728467 5.99371 11.4853
136 2 3.39208 4.02679 11.1695
137 2 2.51293 3.87256 9.48406
138 2 4.06785 4.94915 9.67221
139 2 2.30123 2.52189 10.3508
140 2 0.788921 1.52162 9.63516
141 2 2.20006 0.603949 10.5265
195 3 0.563482 2.88171 12.605
202 3 4.08816 1.24148 9.45985
348 2 -2.32767 4.82081 10.2532
206 3 6.09966 2.79833 10.6555
207 3 7.49197 1.15226 11.9789
213 3 4.44932 3.33437 15.4315
214 3 0.195956 4.81024 14.7113
215 3 1.97561 6.07651 16.3873
216 3 3.91023 5.12024 12.9524
322 2 0.191532 0.883826 14.4075
326 2 4.40676 0.969501 12.0112
298 2 -2.60371 5.64336 15.7978
325 1 4.14162 0.253728 12.7936
296 4 -3.42325 6.7714 14.8311
324 2 -0.169512 2.44121 15.4777
321 1 -0.42937 1.39858 15.3063
328 2 3.6844 1.02023 14.2421
283 4 -3.0052 5.44676 8.91276
154 2 6.76443 2.65747 13.6659
145 2 0.608203 6.80922 4.35624
59 1 -6.64156 12.9439 2.75666
10 4 -2.27485 8.96763 1.48426
11 4 -3.73863 11.2312 0.289042
159 2 1.64158 10.3259 1.67286
290 2 -3.82273 10.0966 8.5544
362 3 0.600197 12.0878 0.264816
361 2 -5.71866 9.12195 2.61514
31 4 -0.844621 10.9684 3.43051
33 4 1.83527 8.48283 8.27813
34 4 1.04169 10.5388 6.04435
64 1 -1.14183 7.83328 0.361668
66 1 -1.59097 12.7694 8.25776
320 2 -5.11943 11.7946 5.08194
74 1 1.48611 9.18813 1.8145
100 2 -2.18653 11.613 4.32475
114 2 -7.34391 12.4218 3.49937
125 2 -1.84968 7.20339 4.50101
291 2 -5.76958 10.2169 8.30448
130 2 -0.595402 6.9618 1.01881
115 2 -6.78429 12.62 1.72944
134 2 -1.48691 11.6911 7.8292
319 2 -3.9057 10.808 3.96207
347 2 -3.45868 12.3669 7.77751
157 2 1.35119 8.95431 2.93944
158 2 0.619145 8.70786 1.19638
196 3 -3.17386 7.92519 2.54469
197 3 -3.13867 9.79289 0.448003
198 3 -3.98484 12.1488 1.62066
211 3 4.07196 7.03011 5.75022
217 3 3.28019 7.38516 3.05267
218 3 3.31985 7.71443 0.275732
219 3 -1.3262 9.85678 2.39117
220 3 -0.405831 12.1886 2.6498
221 3 2.75913 7.21107 8.05431
222 3 0.240734 10.5326 4.46252
223 3 1.09693 9.14945 6.89385
224 3 0.720906 11.8674 6.86261
285 1 -4.89154 9.55616 8.18412
289 2 -4.80312 9.09342 7.14171
318 2 -3.2282 12.1838 5.15934
1 4 -4.57594 12.8084 2.94797
317 1 -4.10605 11.8101 4.57022
177 2 -6.52375 10.948 2.96776
8 4 -3.95539 6.78039 3.36129
146 2 1.60741 6.76202 5.99996
19 4 -0.592892 12.8466 12.7428
32 4 0.848866 11.4749 16.6528
35 4 1.56881 8.35477 13.6142
36 4 -1.74606 11.8292 15.4105
37 4 0.253473 10.1967 11.5031
75 1 -0.872568 8.95569 10.3982
299 2 -3.63935 8.27649 15.5121
102 2 0.603862 8.03204 9.38071
103 2 -2.69029 10.6953 14.5732
135 2 -1.57957 12.9188 9.33468
160 2 -0.302984 7.99936 10.7381
161 2 -0.726548 9.22873 9.31394
162 2 -2.03075 9.01485 10.7316
225 3 0.570498 7.54577 14.7148
226 3 2.4615 7.34354 12.6984
227 3 -0.531893 10.9848 15.9271
228 3 -1.17454 12.8605 14.255
229 3 -2.67876 12.4027 16.5437
230 3 0.600279 9.23832 12.7678
231 3 -0.904133 11.3356 11.9633
295 3 -3.79395 6.96169 9.3337
359 2 -4.77676 9.0845 16.9077
272 4 -5.914 12.7083 13.6316
273 4 -6.29699 11.0764 16.2748
274 2 -5.13715 12.0553 12.0492
297 2 -2.25754 7.03465 13.7019
277 3 -5.15202 11.393 17.279
278 3 -5.92017 11.5457 14.7158
284 4 -4.57469 8.31551 9.68128
286 1 -3.94863 8.93396 11.3515
292 2 -3.75288 10.0368 11.2861
293 2 -3.06058 8.26857 11.7246
266 3 2.68633 9.28535 14.5244
294 2 -5.02929 8.61699 11.8502
129 2 -1.82436 7.75719 17.147
263 3 1.60453 10.7009 10.8141
133 2 -6.22896 10.5558 10.4497
101 2 1.40659 10.0344 17.5081
358 2 -4.28607 7.23101 16.9643
327 2 -3.34128 12.7165 13.0297
131 2 -0.401544 8.93064 17.5362
151 2 3.89044 6.95354 14.5547
276 3 -7.2568 13.3235 13.1551
349 2 -5.67183 12.3115 8.94691
15 4 7.64571 2.73178 0.61635
18 4 7.98045 2.38054 5.11685
22 4 6.44966 4.73532 2.66939
25 4 5.79864 4.56954 7.40138
39 4 10.4739 2.00064 3.0515
45 4 12.2222 4.32257 1.65577
354 2 15.2065 1.90745 6.84805
48 4 12.2321 3.38118 7.72143
49 4 8.40084 5.798 8.5439
71 1 5.75779 5.82695 1.25084
76 1 15.4105 1.58086 5.71191
77 1 11.6828 1.20214 4.32103
80 1 11.5121 3.97443 6.06817
94 2 8.16132 3.89085 5.71835
212 3 5.21437 5.95554 7.89468
106 2 13.1882 1.9013 7.5352
334 2 12.1223 0.599342 7.56673
109 2 11.3618 5.94003 6.55515
204 3 8.24073 1.25159 6.27106
163 2 15.7814 0.420901 5.61394
164 2 14.5718 1.88819 4.92919
165 2 12.6274 1.77356 4.48367
167 2 11.0961 1.06119 5.22762
174 2 10.4458 4.33719 6.31829
175 2 11.5434 2.93594 5.34454
176 2 12.2551 4.73473 5.73256
335 2 13.9003 0.573038 6.71186
209 3 7.4941 3.82572 1.81223
232 3 10.1159 0.662411 2.02734
233 3 9.14709 2.27337 4.04885
234 3 13.211 0.802451 0.507418
236 3 9.30343 0.816851 8.70471
241 3 11.2772 3.17223 2.36596
242 3 13.3446 3.49042 0.579871
243 3 13.0286 5.33249 2.75418
244 3 7.04622 5.62038 3.84455
245 3 11.2182 5.3783 0.869533
246 3 10.8178 3.00015 8.53123
247 3 13.2161 4.42892 8.31768
248 3 7.54064 4.71598 7.68093
250 3 9.42622 6.17912 4.86249
329 1 15.3212 1.12916 2.04941
330 2 14.5922 2.016 2.08258
331 2 16.2323 1.13845 1.29195
332 2 15.6369 0.854104 3.10727
150 2 5.86303 5.34989 0.225996
166 2 11.8128 0.214654 3.55055
4 4 14.9374 1.39655 10.3888
21 4 7.54632 2.5276 11.2221
40 4 12.9897 2.44104 17.249
42 4 9.93661 2.02542 9.56683
44 4 12.2329 2.26148 11.4158
73 1 6.59678 4.13731 13.9579
79 1 7.69347 6.06248 10.2985
338 2 9.77592 1.06369 12.7863
96 2 7.85324 3.68891 12.5009
104 2 12.3132 3.80321 10.3051
110 2 11.7395 3.04996 12.8554
341 2 9.26328 6.81707 15.6541
280 2 15.7225 2.4919 13.993
155 2 7.36783 4.57874 14.6815
156 2 6.53655 4.81102 12.933
171 2 7.03929 5.16898 10.5734
360 2 8.92973 5.30137 16.8371
193 3 16.2058 1.23036 11.2369
237 3 8.8079 2.92973 10.3009
238 3 8.98239 3.39363 17.1034
239 3 13.7259 1.83112 11.3939
240 3 11.0603 1.3903 10.9179
279 4 14.8387 1.37109 14.972
107 2 9.4192 5.28006 9.82723
281 3 14.0735 2.25903 15.9646
323 2 16.5904 0.717104 16.2523
173 2 8.49155 6.28432 11.0095
300 4 10.1146 3.14597 15.9985
301 4 10.8445 5.59172 13.7587
302 1 9.4254 1.53263 15.2986
303 1 11.7051 4.69406 11.7358
305 2 10.4726 0.994457 15.2759
306 2 9.04428 1.74228 14.2603
307 2 8.6491 1.11613 15.9052
308 2 10.5379 4.27075 12.0154
309 2 12.5732 4.65708 12.6003
310 2 11.641 5.76211 11.3055
314 3 11.538 2.73964 16.6477
315 3 10.19 4.40138 14.7268
316 3 12.384 6.16303 14.2951
340 1 9.07972 6.5236 16.7473
86 2 15.1403 2.49572 9.14745
38 4 5.82168 12.9245 1.26659
30 4 3.31587 8.51276 1.7838
13 4 0.246485 13.1092 1.48254
50 4 10.7231 7.0734 5.4126
51 4 9.20378 8.80986 2.24597
52 4 4.63023 10.7893 3.20467
54 4 8.89956 8.62329 7.14849
56 4 7.04561 10.3477 5.2448
78 1 5.2605 8.83606 8.10052
81 1 10.5857 9.72132 3.12785
82 1 2.92684 10.6751 5.77631
83 1 8.52089 11.4771 4.74473
105 2 7.01779 7.52191 5.53191
111 2 3.07231 11.1821 3.89337
112 2 7.20641 11.7753 6.19352
113 2 5.66274 10.732 8.23691
46 4 8.00365 6.75284 4.38415
333 1 4.65049 13.1021 7.21943
183 2 8.41893 11.0978 3.61003
184 2 9.42125 11.0794 5.3424
169 2 4.76309 9.5782 7.32976
170 2 6.33972 8.60866 7.95887
47 4 10.4828 6.70516 0.208013
178 2 10.3724 9.46235 4.19876
179 2 3.32628 11.7971 5.50771
180 2 3.09489 9.87231 4.93646
181 2 3.33097 10.3184 6.74309
182 2 8.19501 12.6551 4.98213
26 4 4.37412 7.21604 7.44603
257 3 6.76456 11.8701 0.199329
249 3 11.8052 7.26426 4.29628
251 3 8.27881 7.90182 3.38896
252 3 9.90154 7.82351 1.21652
253 3 4.37399 9.69064 2.13946
254 3 5.16085 12.1534 2.57968
256 3 8.46061 9.98023 1.45619
148 2 6.32299 6.79625 1.33348
258 3 8.68564 7.23913 7.94103
259 3 10.2319 8.49771 6.24027
260 3 8.89682 9.84545 8.28304
264 3 5.67901 10.416 4.46319
265 3 7.5189 9.03595 5.94039
355 2 4.22307 12.3623 6.42648
12 4 8.51906 10.036 9.81669
43 4 5.35642 12.152 13.1093
53 4 8.06891 11.1167 17.5379
55 4 3.08429 10.4993 10.2258
57 4 3.27516 10.7616 14.8924
58 4 5.86342 9.5481 11.6524
65 1 9.98299 10.098 10.9898
304 1 9.63701 7.06276 13.63
84 1 4.53542 10.4369 16.2817
85 1 6.14857 7.90307 12.633
90 2 9.11153 11.6925 10.1723
108 2 4.8882 7.09224 11.3204
132 2 9.86741 10.6963 11.9806
352 2 10.0176 8.96765 11.261
235 3 6.10898 13.1542 9.60892
153 2 4.58921 8.53195 15.622
337 2 1.58973 12.7717 13.9638
185 2 5.67224 10.2261 16.1977
186 2 4.06765 9.59585 16.9455
187 2 4.41599 11.4684 16.8116
188 2 6.75091 7.24542 11.8164
189 2 5.28667 7.32858 13.1337
190 2 6.8092 8.41633 13.4689
351 2 4.8843 12.896 11.6406
255 3 9.46347 11.7165 16.9171
262 3 3.74395 11.9269 9.76194
172 2 7.06592 7.06374 9.99768
267 3 3.99497 11.5627 13.698
268 3 1.94341 11.9432 15.5378
269 3 7.01469 9.62592 10.3519
270 3 4.41027 9.4412 11.0809
271 3 6.25799 10.86 12.7368
275 2 10.6752 9.38084 16.2503
72 1 4.54048 7.37408 15.4082
346 2 6.91028 9.10753 16.8854
311 2 10.2979 7.83786 14.1047
356 2 1.87181 12.5528 12.1239
288 2 10.9686 8.42559 9.0654
336 1 1.345 13.1169 12.9111
282 3 5.94817 13.2263 14.1043
357 2 11.3692 7.81339 15.8367
343 1 7.68959 9.72407 16.2908
344 2 8.59759 9.09646 15.9896
345 2 7.24612 10.2755 15.4088
339 1 12.0131 8.02068 16.8161
342 2 8.1836 7.15092 17.2025
41 4 5.04502 12.2505 8.90632
261 3 2.69379 9.56603 8.96571
313 2 9.71712 7.09809 12.4917
168 2 4.94095 8.92981 9.19629
312 2 8.58589 7.16876 13.904
152 2 5.53683 6.87849 15.5978
ITEM: TIMESTEP
100
ITEM: NUMBER OF ATOMS
362
ITEM: BOX BOUNDS xy xz yz pp pp pp
-8.3819999999999997e+00 1.7202700000000000e+01 -8.3819999999999997e+00
0.0000000000000000e+00 1.3437315300000000e+01 3.0499999999999999e-02
0.0000000000000000e+00 1.7586700000000000e+01 3.0285134999999919e-01
ITEM: ATOMS id type x y z
3 4 3.57095 0.24538 8.3651
2 4 -0.48705 2.97228 5.32318
5 4 2.71146 2.26499 6.17708
7 4 -0.644647 4.08549 2.29118
14 4 4.99523 2.58002 4.06585
23 4 3.27029 6.52492 4.41163
201 3 7.68057 1.15541 0.991833
60 1 -0.705394 4.60878 6.56072
61 1 2.25225 3.66871 7.38832
70 1 1.5227 6.50383 4.99228
69 1 0.365816 5.65628 2.1022
87 2 -1.35292 5.84248 2.10051
91 2 3.62183 2.41275 0.273262
93 2 4.02589 5.07087 3.90875
88 2 -1.4657 3.08879 1.14401
116 2 1.95224 0.911998 2.79675
117 2 -1.29977 5.33542 5.81886
118 2 -0.023713 5.1715 7.29502
119 2 -1.42472 3.83512 7.20047
120 2 1.12806 4.06902 7.10282
121 2 3.04141 4.39706 7.11211
122 2 2.39285 3.18795 8.45349
123 2 -2.34113 5.3756 4.30228
353 2 6.06631 0.71566 7.99398
142 2 0.804959 6.37261 1.35284
143 2 1.11257 4.07572 1.56791
144 2 0.771172 5.9483 3.2036
147 2 1.34187 5.33317 4.7863
62 1 -2.62362 6.48381 4.70118
191 3 0.938512 2.32722 5.38136
192 3 2.87191 0.857411 7.06523
194 3 -0.835094 3.61776 3.8314
199 3 4.44205 1.1629 3.33486
200 3 3.89412 2.78159 5.30185
350 2 4.4062 5.01303 0.0924485
203 3 6.61913 2.57504 4.51605
208 3 4.76224 3.8112 3.02127
210 3 5.45716 3.27446 7.98024
287 2 -1.67706 5.72299 7.87549
16 4 8.47173 0.192372 7.35171
124 2 -2.99845 6.58127 5.72345
6 4 0.416228 1.49906 11.9007
9 4 0.66436 4.54909 13.2167
17 4 4.89564 2.72245 9.45791
20 4 4.92742 2.57435 16.7742
24 4 3.52328 6.57561 16.86
27 4 4.83099 3.45256 13.8672
28 4 0.55661 6.26487 15.6408
29 4 3.45579 6.3501 12.0403
63 1 -0.1635 5.83271 12.1159
67 1 3.53801 4.07263 9.98877
68 1 1.63679 1.59116 10.4967
89 2 2.39132 4.6987 13.2935
205 3 6.20206 3.30733 17.3266
92 2 5.21309 0.89505 16.7384
97 2 4.55525 1.94848 13.0345
98 2 -0.63648 6.50187 16.8842
99 2 3.02439 5.89083 10.4635
126 2 -0.267765 6.77577 12.7165
127 2 -1.13053 5.35684 11.7064
128 2 0.868007 5.90202 11.4033
136 2 3.49541 4.11357 11.1464
137 2 2.46631 4.07533 9.50162
138 2 4.10467 4.952 9.63581
139 2 2.35262 2.51961 10.4398
140 2 0.888236 1.51276 9.58629
141 2 2.20438 0.617127 10.7249
195 3 0.430643 2.99805 12.6137
202 3 4.07228 1.28378 9.4431
348 2 -2.21079 4.98007 10.1773
206 3 6.02438 2.86245 10.5949
207 3 7.62627 1.19879 11.8443
213 3 4.38551 3.16703 15.3843
214 3 0.0782537 4.92957 14.7227
215 3 2.05479 6.22417 16.2536
216 3 3.95248 4.95604 12.9355
322 2 0.122058 0.913655 14.436
326 2 4.29743 0.855978 11.9259
298 2 -2.38218 5.79626 15.6869
283 4 -3.04145 5.50192 8.87996
296 4 -3.58745 6.81589 14.9842
324 2 -0.0685523 2.40595 15.6377
321 1 -0.530815 1.42407 15.2949
328 2 3.46543 0.851096 14.3202
145 2 0.964132 7.20902 4.30377
59 1 -6.4424 12.8868 2.89161
10 4 -2.32295 8.99998 1.4406
11 4 -3.66842 11.3228 0.203297
159 2 1.36131 10.2353 1.58151
290 2 -3.88549 10.0503 8.58589
362 3 0.595008 12.1046 0.167173
361 2 -5.49908 9.18937 2.61489
31 4 -0.82848 11.0432 3.49451
33 4 1.83492 8.56048 8.26593
34 4 1.09969 10.3796 5.95814
64 1 -1.18987 7.82073 0.289898
66 1 -1.60823 12.9668 8.21348
320 2 -5.29904 11.6688 4.91601
74 1 1.36158 9.12291 1.78491
100 2 -2.22951 11.4749 4.45507
114 2 -7.23696 12.45 3.67997
125 2 -1.88563 7.26878 4.43224
291 2 -5.77199 9.75659 8.13883
130 2 -0.659625 6.98238 1.02732
115 2 -6.48729 12.3537 1.90995
134 2 -1.84918 11.9923 7.58893
319 2 -3.81763 10.5655 4.52055
347 2 -3.4832 12.3906 7.94191
157 2 1.25186 8.94343 2.87191
158 2 0.415416 8.65074 1.23648
196 3 -3.29626 7.94886 2.17578
197 3 -3.01516 9.84562 0.259582
198 3 -3.92265 12.0243 1.72475
211 3 4.12289 7.03233 5.77191
217 3 3.21387 7.57589 3.03977
218 3 3.31465 7.77718 0.366421
219 3 -1.36757 9.91929 2.48447
220 3 -0.2477 12.2849 2.71497
221 3 2.80064 7.11004 8.18019
222 3 0.234374 10.3316 4.63166
223 3 0.914042 8.99656 6.93403
224 3 0.553409 11.8487 6.67657
285 1 -4.71999 9.25874 8.13478
289 2 -4.47974 8.73455 7.17169
318 2 -3.60247 12.1318 5.52501
1 4 -4.51332 12.7388 3.05955
317 1 -4.15682 11.6301 4.71092
177 2 -6.41631 10.8681 3.04739
8 4 -3.94232 6.76684 3.34585
146 2 1.40835 6.80177 6.11037
19 4 -0.582134 12.9717 12.6805
32 4 0.870067 11.3107 16.6701
35 4 1.55167 8.38426 13.6252
36 4 -1.70273 11.7446 15.2148
37 4 0.161593 10.1689 11.5319
75 1 -0.901111 8.96233 10.5023
299 2 -3.7233 8.47835 15.5309
102 2 0.555468 8.22448 9.42218
103 2 -2.57632 10.5452 14.4419
135 2 -1.49537 12.7306 9.32574
160 2 -0.457563 7.8413 10.5374
161 2 -0.833029 9.53378 9.4763
162 2 -2.03994 9.01872 10.8512
225 3 0.554982 7.54938 14.6657
226 3 2.34667 7.3019 12.6838
227 3 -0.446036 10.8939 15.7724
228 3 -1.37368 12.8661 14.1362
229 3 -2.764 12.4403 16.5166
230 3 0.496072 9.29645 12.7902
231 3 -0.812857 11.6682 11.6502
295 3 -3.72741 6.8683 9.29616
359 2 -4.88791 9.06162 16.7822
272 4 -5.87036 12.6858 13.6928
273 4 -6.39851 11.1025 16.3251
274 2 -4.53614 11.8982 12.1845
297 2 -2.44276 7.37935 13.8506
277 3 -5.20901 11.416 17.323
278 3 -5.92495 11.5464 14.8167
284 4 -4.47928 8.20652 9.72711
286 1 -3.97913 9.11269 11.3976
292 2 -3.74221 10.1383 11.1395
293 2 -3.17926 8.56066 12.0244
266 3 2.65247 9.40749 14.4333
294 2 -5.1061 8.90215 11.8163
129 2 -1.99978 7.71278 17.2186
263 3 1.58868 10.7007 10.9327
133 2 -6.35034 10.3828 10.4451
101 2 1.38608 9.85844 17.4743
358 2 -4.06004 6.94738 17.0166
327 2 -3.19303 13.0186 13.2599
131 2 -0.417766 8.81836 17.3449
151 2 3.71825 6.8788 14.5749
276 3 -7.23161 13.3049 13.1078
349 2 -5.81329 12.1744 8.95681
325 1 -4.19474 13.1762 12.7449
15 4 7.57517 2.74223 0.606881
18 4 8.0316 2.56619 5.12935
22 4 6.43836 4.7426 2.56519
25 4 5.93389 4.61979 7.34245
39 4 10.3439 1.95096 3.04115
45 4 12.1791 4.36012 1.55119
354 2 15.1672 1.88922 6.72831
48 4 12.2613 3.36513 7.72467
49 4 8.50062 5.86171 8.34839
71 1 5.67681 5.94825 1.21328
76 1 15.4316 1.61565 5.68272
77 1 11.7812 1.40351 4.16793
80 1 11.8158 4.10767 6.01914
94 2 8.16353 4.03176 5.92129
212 3 5.28402 5.95126 7.92226
106 2 13.0962 1.89285 7.33155
334 2 12.1008 0.523271 7.578
109 2 11.5798 5.99849 6.65181
204 3 8.17958 1.3583 6.28753
163 2 15.9883 0.576935 5.61586
164 2 14.5494 1.59721 4.95922
165 2 12.7016 2.10562 3.98441
167 2 11.3426 1.46335 5.23679
174 2 10.7081 4.36573 6.26632
175 2 11.8538 3.20009 5.27196
176 2 12.4492 4.98476 5.5316
335 2 13.8506 0.584224 6.6471
209 3 7.46481 3.73635 1.89306
232 3 10.0663 0.669065 2.09726
233 3 9.17017 2.49341 4.11135
234 3 12.9985 0.692515 0.367716
236 3 9.39461 0.733918 8.60243
241 3 11.2627 3.17737 2.26403
242 3 13.2647 3.44447 0.599387
243 3 12.8959 5.34822 2.56312
244 3 7.09856 5.61457 3.79416
245 3 11.2602 5.29331 0.652376
246 3 10.9828 2.95815 8.58694
247 3 13.221 4.38651 8.40708
248 3 7.57561 4.55537 7.48103
250 3 9.53502 6.12449 5.08508
329 1 15.3812 1.18285 1.74169
330 2 14.6005 2.00237 1.90892
331 2 16.056 1.36042 0.863776
332 2 16.0165 0.908466 2.65771
150 2 5.87557 5.7313 0.0715097
166 2 12.0262 0.384212 3.86714
149 2 4.66779 6.25368 1.52073
95 2 5.70052 4.63812 5.66893
4 4 14.9286 1.34751 10.3726
21 4 7.48627 2.59099 11.1595
40 4 12.8893 2.47667 17.1857
42 4 9.92335 1.98184 9.50084
44 4 12.2088 2.3148 11.4264
73 1 6.48954 4.32043 13.9677
79 1 7.99224 5.92557 10.1941
338 2 9.93281 1.11959 12.9806
96 2 7.52058 3.80665 12.3258
104 2 12.2237 3.82698 10.3143
110 2 11.7544 3.01946 12.9857
154 2 6.95483 3.02125 13.7683
152 2 5.4149 6.75048 15.5873
155 2 6.85568 4.80999 14.8277
156 2 6.31563 5.02627 13.0687
171 2 7.25499 5.05695 10.2598
360 2 8.91503 5.70172 16.9628
193 3 16.1929 1.06439 11.1909
237 3 8.77731 2.87878 10.1963
238 3 8.93506 3.43492 17.1781
239 3 13.7697 1.81789 11.4133
240 3 11.017 1.48119 10.8977
279 4 14.7433 1.48027 14.9199
107 2 9.70538 5.31178 9.52648
281 3 13.9155 2.33699 15.9254
323 2 16.474 0.710286 16.2567
173 2 8.60208 5.92169 11.1567
300 4 10.053 3.17252 16.1165
301 4 10.8958 5.57125 13.7893
302 1 9.38189 1.66058 15.1008
303 1 11.7227 4.64346 11.8581
305 2 10.3304 1.17848 14.6522
306 2 8.67069 2.09948 14.3274
307 2 8.88819 0.898161 15.7936
308 2 10.3599 4.11524 12.2961
309 2 12.5984 4.60964 12.6508
310 2 11.6673 5.67009 11.2578
314 3 11.4345 2.60693 16.5999
315 3 10.3328 4.32383 14.9152
316 3 12.3223 6.21057 14.2635
340 1 9.07599 6.79042 16.5914
86 2 15.2579 2.64036 9.39574
280 2 15.6713 2.54443 13.969
38 4 5.78207 12.9432 1.2094
30 4 3.27811 8.53445 1.74203
355 2 4.30534 12.2559 6.4295
50 4 10.8189 7.02915 5.50084
51 4 9.26722 8.78591 2.28249
52 4 4.66167 10.7444 3.06456
54 4 8.89623 8.69853 7.15084
56 4 6.97881 10.3639 5.23222
78 1 5.34145 8.74669 7.90317
81 1 10.7313 9.71591 3.07504
82 1 2.9973 10.6422 5.73717
83 1 8.42487 11.5393 4.81417
105 2 7.19557 7.41378 5.68037
111 2 3.17193 11.0607 3.83427
112 2 7.10319 11.6782 6.29632
113 2 5.71339 10.6343 8.08838
46 4 8.09994 6.72267 4.45281
333 1 4.61422 13.0765 7.1687
183 2 8.4609 11.1055 3.67411
184 2 9.36742 11.1048 5.31734
169 2 5.16125 9.21826 6.84297
170 2 6.41524 8.40446 7.97473
47 4 10.5574 6.7767 0.17416
178 2 10.5259 9.2809 4.15292
179 2 2.94424 11.7863 5.40049
180 2 3.47534 9.94166 5.03245
181 2 3.45689 10.5353 6.73136
182 2 8.27746 12.688 4.87779
26 4 4.29522 7.14463 7.46561
257 3 6.80427 11.8768 0.245547
249 3 11.876 7.32854 4.28508
251 3 8.27241 7.86986 3.40261
252 3 9.92123 7.77925 1.27085
253 3 4.35838 9.76981 1.85134
254 3 5.1797 12.2122 2.56552
256 3 8.40329 10.0596 1.54171
148 2 6.45877 6.83875 1.59138
258 3 8.73431 7.25917 7.79337
259 3 10.3396 8.43774 6.3631
260 3 8.80882 9.82058 8.27036
264 3 5.73237 10.4645 4.28095
265 3 7.40645 9.04115 5.99351
53 4 8.01637 10.8721 0.10687
13 4 0.271452 13.0894 1.43023
41 4 5.11423 12.1793 8.7438
12 4 8.43249 10.0343 9.77461
43 4 5.29494 12.1533 13.0461
312 2 8.75321 6.97972 14.099
55 4 3.06973 10.4756 10.2627
57 4 3.26903 10.8443 14.8504
58 4 5.91889 9.60922 11.5579
65 1 9.89403 10.0925 10.9762
304 1 9.78004 7.06241 13.5382
84 1 4.44189 10.3599 16.3543
85 1 6.28441 8.015 12.5528
90 2 8.83807 11.6737 10.4991
108 2 4.82956 7.24966 11.5162
132 2 9.69352 10.646 11.9425
352 2 9.91984 8.99351 11.2421
235 3 6.10531 13.1924 9.5629
153 2 4.44643 8.52214 15.5685
337 2 1.47774 12.5997 13.9426
185 2 5.56158 10.1629 16.1064
186 2 3.95297 9.39158 16.9668
187 2 4.33714 11.3054 16.9846
188 2 6.89873 7.24266 11.9445
189 2 5.39829 7.56022 13.104
190 2 7.02068 8.42686 13.3656
351 2 4.91261 13.0626 11.6814
255 3 9.41123 11.7859 16.8151
262 3 3.87708 11.8838 9.77351
172 2 7.35663 6.92637 10.0217
267 3 3.8426 11.7229 13.6377
268 3 2.14189 11.7346 15.751
269 3 7.12437 9.65932 10.5456
270 3 4.21443 9.60641 11.0608
271 3 6.18176 10.7759 12.7043
275 2 10.5243 9.38433 16.2631
72 1 4.42181 7.29471 15.4311
346 2 6.98081 9.11215 17.1239
311 2 10.2389 8.06375 13.7692
356 2 1.86136 12.708 12.0884
288 2 11.0576 8.3948 9.17997
336 1 1.3576 13.1703 12.9526
282 3 5.95198 13.2775 14.1056
357 2 11.2927 7.78235 15.7374
343 1 7.59148 9.82502 16.4458
344 2 8.48539 9.35217 16.0224
345 2 6.98815 10.3148 15.5839
339 1 11.9405 8.00195 16.7062
342 2 8.20013 7.43309 16.9431
341 2 9.30107 6.85677 15.4226
261 3 2.74119 9.66433 8.85857
313 2 9.70154 6.89518 12.3385
168 2 4.93195 9.29493 8.82341
ITEM: TIMESTEP
200
ITEM: NUMBER OF ATOMS
362
ITEM: BOX BOUNDS xy xz yz pp pp pp
-8.3819999999999997e+00 1.7202700000000000e+01 -8.3819999999999997e+00
0.0000000000000000e+00 1.3444030600000001e+01 3.0499999999999999e-02
0.0000000000000000e+00 1.7586700000000000e+01 3.0300270000000040e-01
ITEM: ATOMS id type x y z
3 4 3.65491 0.279022 8.30816
2 4 -0.489544 2.92598 5.26399
5 4 2.63789 2.3318 6.19517
7 4 -0.582684 4.14133 2.30727
14 4 4.98396 2.53401 4.05522
23 4 3.34962 6.48199 4.41896
201 3 7.64953 1.15305 0.889639
60 1 -0.710244 4.5638 6.53646
61 1 2.25799 3.74782 7.43004
70 1 1.58972 6.40744 4.94885
69 1 0.591241 5.7058 1.99606
87 2 -1.2338 5.83918 2.22223
91 2 3.5609 2.24782 0.286669
93 2 4.21152 5.05467 3.82497
88 2 -1.46108 3.08863 1.25866
116 2 1.9164 0.817757 2.75426
117 2 -1.29779 5.21558 5.81611
118 2 -0.0583495 5.25303 7.12647
119 2 -1.40552 3.93889 7.13541
120 2 1.15251 4.14143 7.15934
121 2 3.09499 4.49793 7.22016
122 2 2.20431 3.42735 8.48578
123 2 -2.52749 5.14363 4.34909
353 2 6.28971 0.727785 7.78958
142 2 1.05706 6.49939 1.32447
143 2 1.07408 4.36051 1.39322
144 2 0.961865 5.88212 3.14224
147 2 1.55992 5.153 4.81625
62 1 -2.4734 6.3196 4.49881
191 3 1.22184 2.26279 5.51095
192 3 2.84411 1.03748 7.09953
194 3 -0.490103 3.5594 3.76784
199 3 4.47073 1.20986 3.39251
200 3 3.8448 2.76176 5.26813
124 2 -2.9364 6.65286 5.53295
203 3 6.49906 2.47956 4.59726
208 3 4.85257 3.85972 3.07487
210 3 5.24463 3.32459 7.87568
287 2 -1.5908 5.73939 7.93519
16 4 8.48905 0.133902 7.37767
149 2 4.7746 5.88803 1.61459
95 2 5.5444 4.87685 5.61322
6 4 0.425782 1.38136 11.9158
9 4 0.57324 4.53673 13.2153
17 4 4.86936 2.81081 9.40486
20 4 4.80437 2.55785 16.7119
24 4 3.53626 6.68546 16.8718
27 4 4.62032 3.49288 13.8433
28 4 0.600085 6.23063 15.7027
29 4 3.31658 6.30311 12.2248
63 1 -0.374334 5.65689 11.979
67 1 3.44298 4.03936 10.1325
68 1 1.68614 1.40345 10.5458
89 2 2.30289 4.56826 13.5676
205 3 6.00349 3.40126 17.1855
92 2 5.29848 0.93469 16.6959
97 2 4.41219 2.08942 12.823
98 2 -0.54854 6.39582 16.9588
99 2 2.64223 5.79763 10.7033
328 2 3.50926 1.02899 14.3486
127 2 -1.15907 4.96252 11.5755
128 2 0.482322 5.87337 11.2505
136 2 3.52156 3.77669 11.2324
137 2 2.33686 4.07478 9.7142
138 2 3.97636 4.99588 9.80377
139 2 2.38742 2.35831 10.4377
140 2 0.975092 1.33647 9.61817
141 2 2.23966 0.414701 10.7714
195 3 0.403659 3.04995 12.6824
202 3 4.1923 1.29617 9.43026
348 2 -2.20143 4.66677 10.2568
206 3 6.13702 2.94318 10.4053
207 3 7.52928 1.27325 11.8829
213 3 4.24849 3.04967 15.3583
214 3 0.0224245 5.08807 14.6704
215 3 2.08552 6.05234 16.3034
216 3 3.85094 5.04256 13.1315
322 2 0.14068 1.01548 14.4402
326 2 4.27615 0.944907 11.9971
298 2 -2.3869 5.60021 15.5346
283 4 -2.92103 5.40638 8.95151
296 4 -3.55835 6.78843 15.0267
324 2 -0.0950463 2.30391 15.7589
321 1 -0.531866 1.38196 15.2652
276 3 1.21659 0.401426 13.0075
126 2 -0.78057 6.51002 12.5423
280 2 -1.26481 2.41681 13.8019
154 2 6.76277 2.8496 13.4353
350 2 4.7113 5.6087 17.5559
145 2 0.796164 6.93721 4.40409
59 1 -6.34274 12.8066 2.92315
10 4 -2.32811 8.89022 1.48525
11 4 -3.63136 11.3418 0.303656
159 2 1.41176 10.1099 1.72344
290 2 -3.66125 9.9338 8.46145
362 3 0.693086 12.1138 0.307244
361 2 -5.65345 9.06207 2.64053
31 4 -0.806752 10.827 3.34146
33 4 1.76145 8.58664 8.23716
34 4 1.0086 10.5304 5.78361
64 1 -1.19184 7.78059 0.223392
66 1 -1.58031 12.8873 8.19164
320 2 -5.06979 11.892 5.11605
74 1 1.32124 8.94994 1.77993
100 2 -2.08582 11.3816 4.26673
114 2 -6.98868 12.4241 3.75117
125 2 -1.58344 6.86082 4.09186
291 2 -5.52972 9.98776 7.71862
130 2 -0.468669 7.02709 0.9837
115 2 -6.45011 12.1856 1.93729
134 2 -1.74723 11.8619 7.54988
319 2 -3.83148 10.6539 4.46109
347 2 -3.42432 12.6167 7.53208
157 2 1.22464 8.56819 2.99306
158 2 0.432591 8.56018 1.17268
196 3 -3.31156 7.85726 2.32008
197 3 -3.16232 9.80884 0.501541
198 3 -3.67971 12.1064 1.67467
211 3 4.18793 6.86752 5.73479
217 3 3.37946 7.50182 3.06274
218 3 3.3682 7.76896 0.153918
219 3 -1.39222 9.6939 2.40561
220 3 -0.298476 12.1964 2.55978
221 3 2.82963 7.36934 8.14015
222 3 0.432894 10.3538 4.37032
223 3 0.981313 9.03885 6.89012
224 3 0.522489 11.8414 6.60701
285 1 -4.74546 9.27447 7.99372
289 2 -4.47599 8.59046 7.13939
318 2 -3.1341 12.2272 5.22006
1 4 -4.40396 12.7935 3.07771
317 1 -3.97773 11.6915 4.70478
177 2 -6.4908 10.8095 3.12846
8 4 -3.94274 6.72527 3.28106
146 2 1.69526 6.74871 6.06401
19 4 -0.526809 13.0157 12.7028
32 4 0.892017 11.3267 16.7023
35 4 1.5088 8.38064 13.7168
36 4 -1.8114 11.8644 15.2665
37 4 0.268187 10.1956 11.5373
75 1 -0.835319 9.13381 10.3889
299 2 -3.53395 8.43764 15.6639
102 2 0.559845 8.11484 9.38663
103 2 -2.71825 10.5942 14.6305
135 2 -1.69457 12.7402 9.35143
160 2 -0.534265 8.01411 10.4177
161 2 -0.663744 9.57708 9.38351
162 2 -2.0598 9.26873 10.7093
225 3 0.575375 7.5969 14.863
226 3 2.34076 7.19567 12.9052
227 3 -0.413886 11.2879 15.8334
228 3 -1.43782 12.844 13.9681
229 3 -2.68569 12.4435 16.3682
230 3 0.370964 9.28909 12.786
231 3 -0.73072 11.5762 11.623
295 3 -3.62239 6.79311 9.37839
359 2 -5.15673 9.02709 17.2854
272 4 -5.95188 12.8973 13.7805
273 4 -6.37852 11.2886 16.4366
274 2 -4.70628 12.0901 12.4009
297 2 -2.72128 7.64018 13.8463
277 3 -5.12533 11.5867 17.3402
278 3 -6.10594 11.8943 14.9543
284 4 -4.48982 8.23565 9.62569
286 1 -3.99639 9.10126 11.2584
292 2 -3.85858 10.2255 11.0354
293 2 -3.20164 8.59366 11.87
266 3 2.61335 9.33501 14.4892
294 2 -5.20063 8.79144 11.6791
129 2 -1.94804 7.57676 17.2497
263 3 1.74333 10.4743 10.925
133 2 -6.21015 10.3668 10.5281
101 2 1.17961 9.82427 17.4716
358 2 -3.91981 7.14029 17.0396
327 2 -3.16535 13.0288 13.2833
131 2 -0.610802 8.83284 17.211
151 2 3.79642 7.09781 14.5192
325 1 -4.15911 13.2768 12.8354
349 2 -5.56724 12.1862 9.03859
15 4 7.36051 2.75595 0.436774
18 4 7.95824 2.48467 5.11099
22 4 6.57831 4.79886 2.57624
25 4 5.92854 4.66039 7.24464
39 4 10.4222 2.08827 3.00245
45 4 12.1097 4.27773 1.40631
354 2 14.7347 2.1732 6.23144
48 4 12.2461 3.23389 7.71601
49 4 8.49091 5.82784 8.37454
71 1 5.95247 6.0819 1.31472
76 1 15.432 1.57932 5.48499
77 1 11.8709 1.37887 4.07234
80 1 11.9029 3.95866 5.99037
94 2 8.18916 3.96076 5.9103
212 3 5.29504 5.93805 8.01237
106 2 13.1608 1.71997 7.59473
334 2 11.9982 0.323101 7.35559
109 2 11.5934 5.91648 6.59057
204 3 8.16949 1.31329 6.13019
163 2 15.7824 0.530658 5.82185
164 2 14.9762 1.57928 4.42828
165 2 12.851 1.89464 4.26875
167 2 11.2974 1.3781 5.11562
174 2 10.8469 4.34137 6.2424
175 2 11.859 2.95829 5.30187
176 2 12.6253 4.6866 5.57266
335 2 13.8544 0.514781 6.56559
209 3 7.36597 3.77492 1.71505
232 3 9.98744 0.776467 2.03613
233 3 9.09604 2.44057 4.11892
234 3 13.1111 0.72503 0.407967
236 3 9.43117 0.642017 8.57424
241 3 11.1789 3.23386 2.21233
242 3 13.3162 3.39426 0.562524
243 3 12.9487 5.12118 2.60296
244 3 7.3197 5.58217 3.73078
245 3 11.31 5.46307 0.588385
246 3 10.8506 3.04445 8.40486
247 3 13.2883 4.24875 8.33938
248 3 7.65431 4.58538 7.38407
250 3 9.56201 6.17364 5.07723
329 1 15.5186 1.20303 1.7818
330 2 14.6905 1.94646 2.0282
331 2 16.1563 1.49259 0.910655
332 2 16.0721 0.784811 2.71366
150 2 6.37122 5.62343 0.34085
166 2 11.9859 0.380838 3.65968
4 4 14.9395 1.16092 10.3417
21 4 7.49017 2.67714 11.0904
40 4 12.9382 2.41164 17.2124
42 4 9.92021 1.95615 9.37754
44 4 12.2333 2.35078 11.238
73 1 6.4113 3.96516 13.8465
79 1 8.06187 5.86502 10.2457
338 2 10.0812 0.845106 12.9416
96 2 7.67432 3.8163 12.3214
104 2 12.0995 3.95614 10.3464
110 2 11.9537 2.96815 12.8161
312 2 8.44564 6.61956 13.9681
152 2 5.37667 6.50492 15.4187
155 2 7.05167 4.19193 14.7147
156 2 6.52177 4.83871 13.0459
171 2 6.90052 5.54867 10.0437
360 2 8.74039 5.70231 16.9114
193 3 16.1874 1.03968 11.2921
237 3 8.69525 2.74438 10.1074
238 3 8.74072 3.47777 17.0526