ITEM: TIMESTEP
0
ITEM: NUMBER OF ATOMS
362
ITEM: BOX BOUNDS xy xz yz pp pp pp
-8.3819999999999997e+00 1.7202700000000000e+01 -8.3819999999999997e+00
0.0000000000000000e+00 1.3430600000000000e+01 3.0499999999999999e-02
0.0000000000000000e+00 1.7586700000000000e+01 3.0270000000000002e-01
ITEM: ATOMS id type q x y z
146 2 0.194516 0.796045 6.54971 5.73438
2 4 1.07444 -0.699353 2.78738 5.14023
5 4 1.22379 2.49782 2.11686 6.20908
7 4 0.720002 -0.777338 3.64808 2.00573
14 4 1.38141 5.10431 2.67148 4.37181
23 4 1.03541 2.74013 6.09139 4.38177
59 1 -0.674881 2.64653 1.35061 2.31579
60 1 -0.654873 -1.41195 4.17958 6.28408
61 1 -0.66063 2.5081 3.54733 7.4351
95 2 0.084708 6.0521 3.6916 6.69179
69 1 -0.647008 0.170126 5.30707 1.57524
87 2 0.0517205 -1.41932 5.32633 1.26104
353 2 0.185635 6.10062 0.516588 8.26461
93 2 0.106898 3.55519 4.58434 4.05829
211 3 -0.797611 3.46117 6.57298 5.76902
116 2 0.178712 2.89389 2.44271 2.33745
25 4 1.28788 5.6852 4.62802 8.06659
118 2 0.179864 -1.71615 5.04977 5.43786
119 2 0.141617 -0.406077 4.41989 6.8048
120 2 0.146318 1.39726 3.90953 7.31961
121 2 0.227382 3.28857 4.26886 7.04825
114 2 0.178139 1.80882 1.12558 3.02365
123 2 0.197568 -2.26087 5.30099 3.81188
70 1 -0.677272 0.847704 6.19399 4.60981
62 1 -0.667979 -2.34899 6.42503 4.10319
143 2 0.0141074 0.924255 3.63319 1.26582
144 2 0.165087 0.383321 5.68282 2.72004
147 2 0.164481 0.637282 5.09897 4.39903
115 2 0.172783 2.40555 1.09411 1.26581
191 3 -0.766166 0.682592 2.1923 5.57021
192 3 -0.800801 2.85699 0.747589 7.01055
194 3 -0.767761 -0.78144 3.36981 3.51865
199 3 -0.771991 5.23625 1.30271 3.39903
200 3 -0.84282 3.79705 2.5162 5.31348
122 2 0.218539 2.71688 3.17328 8.46315
287 2 -0.0189032 -1.7476 5.18315 8.04426
208 3 -0.806843 4.83643 3.95923 3.34771
201 3 -0.847838 7.39697 1.29799 1.08632
350 2 0.0190883 4.48822 5.19714 0.580284
142 2 0.163417 0.655779 6.03084 0.894532
3 4 0.932388 3.57563 0.144026 8.26721
13 4 1.58224 8.30499 0.0629808 1.63617
1 4 1.16238 4.18764 0.27751 2.75456
203 3 -0.786031 6.69273 2.85338 5.45047
212 3 -0.842976 4.83774 5.91123 7.75176
283 4 0.934706 -3.32974 5.41856 8.55409
117 2 0.16218 -2.26799 3.86988 7.04782
6 4 1.21289 0.0633409 1.33914 11.7744
9 4 1.00634 0.806497 4.26899 13.0777
17 4 1.36072 4.77481 2.43509 9.97065
20 4 0.953028 5.1192 3.11538 16.4488
24 4 1.03416 3.53746 6.50207 17.2092
27 4 1.02972 5.30909 4.7383 13.6879
28 4 1.18412 1.01842 5.7513 15.8834
322 2 0.242238 0.0552953 1.3169 14.3628
63 1 -0.668329 0.0850361 5.6477 12.1241
67 1 -0.692271 3.67357 3.15467 11.5907
68 1 -0.688291 1.1011 1.41583 10.0975
89 2 0.00488847 2.5015 4.26344 12.642
91 2 -0.0276401 3.6056 3.0518 17.095
92 2 0.0409791 5.36335 1.52091 16.2621
97 2 -0.0135584 5.42324 3.47322 12.4871
98 2 -0.0266568 -0.0497238 5.44883 17.1723
99 2 -0.0436222 2.86839 6.12425 10.9775
126 2 0.151288 -0.682296 5.15657 11.4636
127 2 0.138929 0.922637 6.24335 11.5873
297 2 -0.0402467 -2.08006 6.46555 14.4703
136 2 0.134602 3.82911 2.52477 12.5531
137 2 0.161176 2.6952 2.93656 11.1206
138 2 0.150213 3.9202 4.26101 11.7413
139 2 0.146748 1.15786 2.5171 9.89864
140 2 0.14142 1.07761 0.85504 9.08044
141 2 0.184368 2.09446 1.08991 10.5815
195 3 -0.798138 0.101562 2.87861 12.3342
202 3 -0.853078 3.9978 1.30019 9.30383
86 2 -0.0230548 -0.521936 1.59414 8.97866
206 3 -0.831618 6.17298 2.00577 10.5324
296 4 0.589607 -3.30002 5.83152 15.4277
213 3 -0.812054 5.16937 3.98559 15.1105
214 3 -0.794249 0.642554 4.59903 14.6447
215 3 -0.831487 2.49711 5.61297 16.4189
216 3 -0.863206 4.47979 5.94725 13.1167
276 3 -0.806629 1.04903 0.405148 12.6924
328 2 0.00794603 3.53857 0.833415 13.9726
128 2 0.1754 -0.379935 6.18588 13.0853
321 1 -0.660643 -0.638607 1.66409 15.1557
298 2 -0.0287045 -2.23511 4.74265 16.1613
324 2 0.169379 -0.278695 2.6371 15.7164
205 3 -0.846878 6.10247 3.62366 17.5541
210 3 -0.850998 4.88666 3.68986 9.01016
327 2 0.184603 3.89978 0.57521 11.5675
280 2 0.0477898 -1.6433 2.85861 13.9887
358 2 0.0482055 -3.88331 6.58213 17.0378
320 2 0.166312 -5.56268 12.8921 4.53017
347 2 -0.0171911 -3.45342 12.2668 7.86859
10 4 1.2364 -2.60108 9.03412 1.44795
26 4 1.33553 3.84925 7.03005 7.22873
101 2 0.00938639 1.02941 9.67719 0.417814
16 4 1.33492 0.0732844 13.083 7.7607
159 2 0.176021 1.0186 9.92866 2.18369
362 3 -0.851398 0.582282 12.2453 0.54853
31 4 1.27168 -1.4259 10.826 3.56431
33 4 1.21943 1.58344 8.46443 8.53944
34 4 1.2412 0.636741 10.3345 6.25998
64 1 -0.675288 -1.53043 7.81126 0.406362
66 1 -0.659377 -1.65821 12.6772 8.60647
291 2 0.110733 -3.99098 9.38953 6.24045
74 1 -0.669244 0.953232 8.79896 2.16527
100 2 0.0109218 -3.02141 11.2988 4.05155
319 2 0.170717 -5.43781 11.1801 3.60559
30 4 1.29209 2.81821 8.21961 2.06404
318 2 0.168547 -4.19971 11.7929 5.0093
130 2 0.152453 -0.820037 6.91955 0.928127
221 3 -0.785781 2.43038 7.07055 8.12876
134 2 0.155656 -1.87238 11.5872 8.22964
284 4 0.782487 -4.08027 8.50575 8.21673
317 1 -0.662289 -4.77786 12.0927 4.14092
157 2 0.18969 0.714976 8.48326 3.24339
158 2 0.206471 0.158266 8.39548 1.43107
196 3 -0.761332 -3.94509 8.13075 2.31883
197 3 -0.852653 -3.13804 10.1879 0.509426
198 3 -0.774297 -3.89741 12.6434 1.31921
178 2 0.277757 -5.36745 9.04581 2.57965
217 3 -0.809585 3.07474 7.16523 3.27666
218 3 -0.806194 2.95233 7.52918 0.604862
219 3 -0.789692 -1.55106 9.48176 2.7157
220 3 -0.795898 -0.800116 12.0741 2.74206
295 3 -0.797031 -3.74681 6.88391 8.30142
222 3 -0.753933 -0.517019 10.4244 4.82836
223 3 -0.793027 0.506225 8.99615 7.45463
224 3 -0.797395 0.497816 11.7412 6.92113
285 1 -0.639348 -2.88491 9.3745 7.18436
289 2 0.208857 -2.04687 8.71938 6.75774
8 4 1.30994 -4.1025 6.69936 3.4291
290 2 0.15604 -2.51044 10.3662 7.57699
361 2 0.173858 -6.53809 10.5809 2.07279
125 2 0.188421 -1.77429 7.09374 3.36071
145 2 0.167907 0.369402 6.90608 3.8466
180 2 0.151501 2.23542 9.99697 4.55429
124 2 0.175208 -2.15469 6.73836 5.17873
19 4 1.27715 0.0703657 12.9115 12.8172
32 4 1.26956 0.811506 11.4065 17.042
35 4 1.48743 1.46571 8.2899 14.2875
36 4 1.2322 -1.64622 11.7274 15.4108
37 4 1.28445 0.563426 10.1364 12.0728
75 1 -0.652982 -0.612096 9.20905 10.7837
131 2 0.206444 -0.945068 8.79347 17.2584
102 2 -0.0116812 0.767143 8.02928 10.0453
103 2 -0.0241929 -2.43724 10.4906 14.5861
286 1 -0.657718 -4.25538 9.50969 10.1216
160 2 0.143343 -0.416909 8.15556 11.2888
161 2 0.177711 -0.540309 9.14483 9.663
162 2 0.198719 -1.58914 9.665 11.0464
225 3 -0.819849 0.742168 7.27788 15.3924
226 3 -0.861602 2.32835 7.3428 13.2334
227 3 -0.824799 -0.646201 10.9479 16.3593
228 3 -0.767565 -0.729339 12.6652 14.3348
229 3 -0.790284 -2.60416 12.7049 16.2845
230 3 -0.83256 0.437589 9.31633 13.46
231 3 -0.778747 -0.265684 11.4763 11.9
135 2 0.241074 -1.34179 12.755 9.67799
299 2 -0.00237485 -3.50733 7.59827 15.5059
272 4 1.02633 -6.0688 12.7906 13.37
273 4 1.22552 -6.33863 11.2479 16.105
274 2 0.180452 -3.54684 12.9415 13.0351
11 4 1.43076 -3.69733 11.9655 17.5486
277 3 -0.840258 -5.07778 11.9441 16.8083
278 3 -0.798868 -6.27526 11.6474 14.5454
326 2 0.12458 -4.73286 11.6925 11.9546
293 2 0.143627 -3.33829 8.8335 10.357
292 2 0.136783 -4.00961 10.573 9.85815
294 2 0.153707 -4.70106 9.43208 11.1456
349 2 -0.0226506 -5.73651 12.1036 9.01492
359 2 0.171953 -4.93177 8.7124 17.1126
352 2 0.171318 -7.00662 12.4981 10.3239
325 1 -0.675902 -4.44567 12.905 12.4404
266 3 -0.845334 2.60716 9.25754 15.0483
132 2 0.173723 -5.94985 10.756 10.2705
129 2 0.123081 -2.41516 7.65048 17.452
29 4 0.975171 3.47255 6.82808 12.3632
65 1 -0.669706 -6.92694 11.3785 10.4914
151 2 0.254122 4.04074 7.11709 15.0228
288 2 0.0616915 -5.66038 9.08157 9.00751
261 3 -0.86131 2.6559 9.4625 9.03484
15 4 1.50548 7.42596 2.84846 0.668079
18 4 1.31201 8.33718 2.37459 5.80144
22 4 1.32976 6.56704 4.81155 2.88586
330 2 0.175897 14.9765 1.52775 2.55226
39 4 1.34864 10.4264 1.9309 3.24474
45 4 1.50864 11.9921 4.2812 1.63956
354 2 0.159909 14.0208 2.13166 5.54757
48 4 1.03228 12.0445 3.11199 7.55836
329 1 -0.658847 15.5774 0.610809 2.17008
71 1 -0.677759 5.9803 6.09955 1.58146
76 1 -0.664607 14.988 1.54923 5.30169
77 1 -0.682142 11.8387 0.745995 3.75085
80 1 -0.657634 12.2925 3.27239 5.67114
94 2 0.089346 9.0005 3.40551 6.9512
88 2 0.00793786 15.5049 2.4135 1.19409
106 2 0.0404352 12.8036 1.52611 7.7971
109 2 -0.000308977 11.2484 6.17227 7.12858
335 2 0.152634 13.6922 0.454996 6.36972
150 2 0.194035 6.25008 5.59767 0.583222
163 2 0.142009 15.3937 1.08694 6.27548
164 2 0.160038 14.9153 0.809153 4.39033
165 2 0.185863 12.7171 1.36056 3.36457
167 2 0.158765 11.7564 0.610256 4.85871
174 2 0.207508 11.2804 3.87134 5.51729
175 2 0.166845 12.2533 2.27997 5.12746
176 2 0.195261 13.2373 3.85748 5.37824
149 2 0.188084 4.88102 6.27777 1.881
209 3 -0.771549 7.55052 3.89781 2.11944
232 3 -0.793966 9.58334 0.879171 2.34385
233 3 -0.791609 9.40945 2.26976 4.69935
234 3 -0.804079 13.2207 0.664589 0.739248
248 3 -0.835011 7.15599 5.04752 8.67313
241 3 -0.795573 11.1048 3.29884 2.61144
242 3 -0.836557 13.1409 3.36159 0.780585
243 3 -0.793156 12.7744 5.24113 2.76928
244 3 -0.823685 7.17347 5.77667 3.96797
245 3 -0.807495 11.2321 5.29655 0.567446
246 3 -0.80798 10.4296 3.02457 7.85102
247 3 -0.835316 12.9102 4.3664 7.94436
331 2 0.145716 16.3507 0.877072 1.30164
250 3 -0.808348 9.55541 6.42667 4.99873
334 2 0.172439 11.9229 0.211878 7.37213
204 3 -0.813569 8.11097 1.08916 6.58919
4 4 1.20816 15.2132 0.992919 9.66454
21 4 1.25073 7.58757 2.40386 11.1847
312 2 0.181689 9.1482 5.75681 13.3899
42 4 1.42072 9.93631 2.02824 9.4658
44 4 1.02731 12.8031 2.37288 10.6509
73 1 -0.656157 7.20417 5.17773 13.5667
236 3 -0.804538 9.53235 0.559122 8.87162
338 2 0.191083 10.5248 0.680479 12.2977
96 2 -0.0330093 7.45715 3.73402 12.2166
104 2 0.0389511 12.4304 4.22399 10.5568
110 2 0.0382861 13.2249 2.14144 12.4076
341 2 0.17543 9.58271 6.3476 15.1403
154 2 0.153317 7.54515 5.79486 12.4825
155 2 0.167743 7.8212 4.28084 13.8092
156 2 0.174657 7.13667 5.92735 14.4725
171 2 0.145891 8.67847 5.6539 11.3369
360 2 0.282051 8.9186 5.2854 16.6544
193 3 -0.772757 15.6522 0.698799 11.1185
237 3 -0.837442 8.73675 2.8496 10.0987
238 3 -0.798593 8.75968 3.6357 17.2029
239 3 -0.859633 13.9486 2.058 9.58422
240 3 -0.859046 11.2772 1.94325 10.4721
279 4 1.06055 14.661 1.65037 14.9554
340 1 -0.646747 9.11829 6.39971 16.2328
281 3 -0.80781 13.7515 2.27355 16.1961
348 2 -0.016227 13.8967 5.11269 10.2752
304 1 -0.667614 10.2699 6.09938 13.1909
300 4 1.3063 9.91112 2.86212 16.1858
301 4 1.02675 11.2214 4.63023 13.8296
302 1 -0.658764 8.81677 1.45804 15.4662
303 1 -0.680455 13.504 3.8789 11.8161
305 2 0.231016 9.53733 0.548454 15.2747
306 2 0.186479 8.39037 1.78734 14.4706
307 2 0.217364 8.04461 1.32421 16.2719
308 2 0.183228 13.4569 4.51963 12.6917
207 3 -0.833118 8.05907 1.11687 11.9698
310 2 -0.00495773 11.6303 3.7665 12.3611
314 3 -0.83443 11.147 2.25793 17.0035
315 3 -0.803658 10.2426 3.77604 14.7604
316 3 -0.760502 12.5187 5.15472 14.5829
107 2 0.00434863 9.62138 5.66329 9.71815
313 2 0.126747 10.5597 5.97689 12.082
282 3 -0.814713 14.0123 0.453899 14.0555
40 4 1.50005 12.7149 2.3428 17.4691
323 2 0.172623 16.2615 0.641568 16.0954
79 1 -0.662943 8.31027 6.63101 10.7805
49 4 1.08608 8.22005 6.17896 8.85017
309 2 0.156385 14.5481 3.92159 11.4415
337 2 0.187479 10.4518 0.433515 14.2273
38 4 1.33036 5.86925 12.6997 1.21472
41 4 1.05603 5.10246 11.8766 8.67938
260 3 -0.858537 9.3284 9.59799 8.61952
50 4 1.26067 10.8228 7.05819 5.66368
51 4 1.34516 9.25118 8.62867 1.91311
52 4 1.23165 4.49737 10.5218 3.15296
54 4 1.37922 9.11277 8.6489 7.35137
56 4 0.956105 6.75722 10.5576 5.21976
78 1 -0.69867 4.80553 8.79605 7.25214
81 1 -0.683167 10.7488 9.63141 2.69367
82 1 -0.677016 2.43249 10.3769 5.59493
83 1 -0.678608 8.06634 11.5008 4.30641
105 2 0.0948081 7.39744 8.09005 5.41902
111 2 -0.0170447 3.22028 11.2525 3.97873
112 2 -0.0170332 5.98086 11.8443 6.14595
113 2 0.00295603 5.57152 10.2456 8.32961
148 2 0.23248 6.62857 7.0158 1.82051
166 2 0.199445 3.20195 12.9462 3.14933
265 3 -0.757955 7.74369 9.45028 6.19206
332 2 0.182858 7.60067 13.014 2.9597
169 2 0.173955 4.12211 9.68302 7.52206
170 2 0.195183 5.0652 8.7924 6.13046
177 2 0.182355 10.386 9.70668 3.78606
168 2 0.193582 5.6607 8.55214 7.94727
179 2 0.171714 2.58332 11.5545 5.70658
46 4 1.30782 8.14979 7.04528 4.323
181 2 0.17357 3.20986 9.71183 6.15836
182 2 0.209873 7.68414 11.1739 3.21644
183 2 0.173843 9.10628 11.0427 4.60696
333 1 -0.648947 4.54108 12.8484 7.06708
249 3 -0.806177 12.05 7.07287 4.56569
251 3 -0.853653 8.47366 7.76409 3.01061
252 3 -0.799969 9.81351 7.73782 0.667994
253 3 -0.82213 3.88358 9.40315 2.25514
254 3 -0.824392 5.23139 11.677 2.27835
256 3 -0.771875 8.31446 9.83345 1.19815
355 2 0.110292 4.30078 11.7899 6.56968
258 3 -0.896322 8.49198 7.35337 7.86284
259 3 -0.852303 10.4534 8.47478 6.2164
184 2 0.156399 7.94215 12.5923 4.5471
264 3 -0.801227 5.56094 9.97059 4.26483
257 3 -0.766954 6.79307 11.9112 0.00166571
187 2 0.228922 4.30135 11.0076 0.0173591
12 4 1.09045 8.71601 10.5825 9.65199
43 4 1.35261 4.92871 12.3578 13.3814
53 4 1.26585 8.11095 11.0478 17.3688
55 4 1.45613 3.37988 10.1718 10.3256
57 4 1.36228 3.20258 10.6764 15.4485
58 4 1.18481 6.31151 10.0658 11.8598
357 2 0.134371 11.5314 7.76115 15.518
72 1 -0.661886 4.65479 7.34914 15.9718
84 1 -0.66382 4.41239 10.3745 16.9744
85 1 -0.662942 6.7829 8.74366 13.0429
345 2 0.201744 6.89504 10.7722 15.334
108 2 0.0948398 4.26938 8.16985 11.7394
346 2 0.148209 6.70624 9.03863 16.2821
172 2 0.161693 7.16332 6.77901 10.8537
342 2 0.168791 8.19104 7.12282 16.3678
153 2 0.19171 4.55428 8.52693 16.3348
351 2 0.0194927 3.70957 12.9397 12.3002
185 2 0.196889 5.5392 10.1809 16.6294
186 2 0.234326 3.93888 9.46278 17.5347
275 2 -0.0103912 10.9764 9.49085 16.3351
188 2 0.17418 7.81436 8.38789 12.5917
189 2 0.161166 5.81509 8.09446 12.9356
190 2 0.188169 6.91112 9.12927 14.1683
235 3 -0.830664 6.44212 12.753 8.89861
255 3 -0.826919 9.48555 11.6393 16.8092
262 3 -0.787135 3.97139 11.7668 9.75891
356 2 0.203507 2.35203 12.015 13.1084
267 3 -0.840161 4.1026 11.4572 14.4173
268 3 -0.821737 2.05599 11.7319 16.048
269 3 -0.792661 7.58452 10.2012 10.6676
270 3 -0.822059 4.67414 9.37002 10.8513
271 3 -0.80354 5.90964 11.4632 12.6985
344 2 0.148414 8.41694 9.51667 15.5119
133 2 0.174248 9.78323 11.0872 11.5862
173 2 0.179862 8.80406 7.59106 11.1244
311 2 0.154655 10.608 7.09252 13.6173
263 3 -0.831155 2.24437 10.2442 11.4242
343 1 -0.6637 7.41381 9.94142 15.9679
336 1 -0.697123 1.90157 13.0663 13.2055
339 1 -0.644242 11.9561 7.77085 16.5643
90 2 0.0197778 8.33454 12.0169 8.79753
47 4 1.17156 10.6007 6.87771 17.3952
152 2 0.158328 5.66861 6.92034 15.9728
ITEM: TIMESTEP
100
ITEM: NUMBER OF ATOMS
362
ITEM: BOX BOUNDS xy xz yz pp pp pp
-8.3819999999999997e+00 1.7202700000000000e+01 -8.3819999999999997e+00
0.0000000000000000e+00 1.3430600000000000e+01 3.0499999999999999e-02
0.0000000000000000e+00 1.7592562233333332e+01 3.0270000000000002e-01
ITEM: ATOMS id type q x y z
146 2 0.20877 0.800228 6.20757 5.80155
2 4 1.01431 -0.771145 2.82993 5.12287
5 4 1.17658 2.43072 2.25275 6.20819
7 4 0.707398 -0.865405 3.77301 1.99836
14 4 1.41743 5.22556 2.68319 4.39806
23 4 1.08548 2.793 6.07908 4.39704
59 1 -0.664962 2.51692 1.44272 2.35664
60 1 -0.637963 -1.33158 4.29306 6.20146
61 1 -0.670693 2.19128 3.52832 7.51116
95 2 0.0971413 6.05672 3.70865 6.47827
69 1 -0.636478 0.242783 5.36839 1.61835
87 2 0.0435608 -1.48922 5.49718 1.50918
353 2 0.187067 6.05289 0.289482 8.08524
93 2 0.0955994 3.39243 4.566 3.96759
211 3 -0.806403 3.30483 6.5646 5.77547
116 2 0.171126 2.80297 2.49275 2.11582
205 3 -0.823755 5.97776 3.47176 0.0416442
118 2 0.180518 -1.74658 5.21223 5.46559
119 2 0.15153 -0.599367 4.63288 6.95371
120 2 0.171702 1.1773 4.01544 7.30573
121 2 0.21576 3.06236 4.243 7.31734
114 2 0.194134 1.86431 1.36545 3.2304
123 2 0.171847 -1.88679 5.78248 3.69616
70 1 -0.658593 0.887078 5.98687 4.69956
124 2 0.177261 -2.62092 6.52727 5.32425
143 2 0.0405074 0.905684 3.77959 1.4795
144 2 0.178959 0.465986 5.63539 2.77272
147 2 0.16643 0.94773 4.78768 4.50277
115 2 0.165746 2.08633 0.827028 1.46341
191 3 -0.749926 0.901264 2.40464 5.51412
192 3 -0.751506 2.73081 0.558411 6.9559
194 3 -0.74772 -0.882047 3.4504 3.533
199 3 -0.800788 5.23707 1.32647 3.46032
200 3 -0.817601 3.90204 2.67168 5.28675
122 2 0.174037 2.26803 3.04322 8.55417
287 2 -0.0163147 -1.71017 5.11123 7.95812
208 3 -0.793785 5.00778 4.04416 3.49419
201 3 -0.845008 7.25363 1.22429 1.08928
350 2 0.0394589 4.58503 5.27396 0.626785
142 2 0.172376 0.754534 6.14525 0.92888
145 2 0.178205 0.166762 6.57776 4.09436
13 4 1.60861 8.23968 0.0558845 1.61163
1 4 1.16437 4.16538 0.344563 2.76853
88 2 -0.0187966 -1.40329 2.43921 1.09457
212 3 -0.855464 4.89948 5.88622 7.63835
283 4 0.910387 -3.28049 5.40244 8.59633
6 4 1.22026 0.218426 1.40106 11.7242
9 4 1.06377 0.847135 4.20555 13.1024
17 4 1.32432 4.77696 2.37717 9.85496
20 4 0.965579 5.18418 3.16994 16.4692
24 4 1.09114 3.51394 6.48554 17.1763
27 4 1.00949 5.43603 4.70096 13.6871
28 4 1.18622 0.901688 5.79749 15.9197
322 2 0.222291 0.0654187 1.17556 14.5076
63 1 -0.677663 0.07566 5.55642 12.0555
67 1 -0.682752 3.67424 3.09231 11.3908
68 1 -0.690868 0.85576 1.59349 9.87523
89 2 0.00409425 2.53618 4.22676 12.517
91 2 -0.0270069 3.56934 2.98918 16.9163
92 2 0.0836799 5.67678 1.64361 16.2874
97 2 0.00220434 5.28738 3.50988 12.4359
98 2 -0.0226573 -0.105259 5.52093 17.2453
99 2 -0.0505006 2.89499 6.02355 11.0213
126 2 0.155234 -0.864154 5.35574 11.5582
127 2 0.115725 0.94101 5.71182 11.2969
297 2 -0.022134 -1.97739 6.14846 14.7247
136 2 0.145259 3.68935 2.31689 12.2045
137 2 0.131202 2.71788 3.0133 10.6746
138 2 0.146925 3.88229 4.19295 11.6153
139 2 0.139393 0.784559 2.655 9.42991
140 2 0.126704 0.476455 0.726526 9.2397
141 2 0.16099 1.98374 1.3401 10.2612
195 3 -0.81656 0.310416 2.86623 12.6148
202 3 -0.841165 4.01187 1.0763 9.18125
358 2 0.0548817 -3.86465 6.84806 17.0577
206 3 -0.847497 6.1249 2.05538 10.6025
296 4 0.672233 -3.41015 5.91297 15.5103
213 3 -0.820351 5.33048 3.9473 15.1024
214 3 -0.751465 0.540521 4.53474 14.6752
215 3 -0.825791 2.40263 5.5757 16.4619
216 3 -0.850443 4.42089 5.84015 13.1923
207 3 -0.850973 7.92965 1.14152 12.3076
328 2 -0.00424301 3.30444 1.16536 13.6475
128 2 0.201348 0.0123986 6.491 12.6689
321 1 -0.665552 -0.727562 1.45534 15.2519
298 2 -0.0170297 -2.42306 5.0073 16.5635
324 2 0.174695 -0.446391 2.41713 15.7509
327 2 0.193567 3.93125 0.394985 11.7046
210 3 -0.856563 5.01874 3.59732 8.84968
348 2 -0.013227 -2.96175 5.16945 10.2342
307 2 0.225077 8.1055 1.07393 16.5038
86 2 -0.0111583 -0.834564 1.72587 8.821
320 2 0.146611 -5.76086 12.6423 4.23192
347 2 -0.0236795 -3.48661 12.15 7.71705
10 4 1.30784 -2.58365 9.0947 1.51976
26 4 1.32971 3.8023 6.94249 7.27794
101 2 -0.0133051 1.09933 9.88176 0.694621
16 4 1.35652 0.078595 13.0947 7.71709
159 2 0.169747 1.27698 10.0416 2.43702
362 3 -0.899635 0.527307 12.3701 0.487089
31 4 1.34053 -1.35246 10.957 3.61309
33 4 1.22054 1.53446 8.49703 8.49498
34 4 1.29827 0.560027 10.2747 6.27612
64 1 -0.655748 -1.33459 8.03269 0.511798
66 1 -0.655138 -1.70341 12.5879 8.53344
291 2 0.14979 -3.67843 9.4636 6.328
74 1 -0.654841 1.16132 8.90399 2.42276
100 2 0.00806574 -2.92338 11.4633 4.2178
319 2 0.176771 -5.26751 11.0023 3.40436
30 4 1.23995 2.93574 8.33945 2.09176
318 2 0.15525 -4.2379 11.7908 4.84439
130 2 0.151884 -0.700937 7.03657 0.93822
221 3 -0.806516 2.36127 7.1139 8.13511
134 2 0.155425 -1.86579 11.5412 8.06909
284 4 0.803177 -3.98051 8.55163 8.35951
317 1 -0.660282 -4.78458 11.9825 3.89054
157 2 0.192676 0.975619 8.38545 3.44306
158 2 0.19155 0.216125 8.57356 1.694
196 3 -0.810773 -3.65142 8.13368 2.08724
197 3 -0.835238 -3.1364 10.3755 0.483963
198 3 -0.790276 -3.87256 12.7729 1.34174
178 2 0.272553 -5.19105 8.86193 2.30091
217 3 -0.808722 2.96481 7.03745 3.13469
218 3 -0.793054 3.0422 7.349 0.48364
219 3 -0.831388 -1.59263 9.7176 2.67565
220 3 -0.826386 -0.691303 12.1175 2.88245
295 3 -0.794403 -3.6543 6.943 8.43841
222 3 -0.793285 -0.552916 10.5092 4.88691
223 3 -0.803175 0.433562 9.01087 7.31267
224 3 -0.790431 0.590864 11.6464 7.10979
285 1 -0.657388 -2.85827 9.37396 7.14209
289 2 0.216861 -1.9572 8.70192 6.92023
8 4 1.25486 -3.97024 6.72109 3.32897
290 2 0.14031 -2.54588 10.4393 7.55129
361 2 0.161138 -6.33745 10.4556 1.95976
125 2 0.207481 -1.85837 7.75645 4.00722
131 2 0.182702 -0.591454 8.78842 0.0629687
180 2 0.163256 2.16676 9.89443 4.44733
11 4 1.42329 -3.72861 11.8047 0.0267822
3 4 0.934146 -4.85854 13.1192 8.19456
62 1 -0.673644 -2.35157 6.7329 4.25878
19 4 1.37074 -0.0317398 12.8818 12.8797
32 4 1.30435 0.779175 11.4543 17.1363
35 4 1.46788 1.55911 8.19329 14.2106
36 4 1.23387 -1.66162 11.9421 15.5481
37 4 1.3195 0.53356 9.90637 11.9209
75 1 -0.683228 -0.833244 9.04384 10.885
261 3 -0.839734 2.59016 9.55743 8.95549
102 2 -0.0116958 0.425481 8.06383 9.73384
103 2 -0.0170482 -2.74606 10.8173 15.0691
286 1 -0.64772 -4.11898 9.69793 9.99692
160 2 0.147876 -0.684951 7.93927 11.0104
161 2 0.176463 -0.801702 9.37273 9.81229
162 2 0.182308 -1.74289 9.35837 11.4222
225 3 -0.800799 0.514081 7.15556 15.3673
226 3 -0.880388 2.36605 7.2766 13.2481
227 3 -0.849702 -0.538036 11.0732 16.3336
228 3 -0.795916 -1.01611 12.6171 14.1585
229 3 -0.813029 -2.62735 13.0127 16.3156
230 3 -0.833591 0.529415 9.09853 13.2524
231 3 -0.770503 -0.0507215 11.5063 11.9432
135 2 0.21857 -1.59826 12.6257 9.66038
299 2 0.00468503 -3.64088 7.66447 15.4537
272 4 1.0692 -6.1012 12.8781 13.3925
273 4 1.25746 -6.29003 11.3132 16.1084
274 2 0.193096 -3.35875 12.9019 13.0897
263 3 -0.850323 2.05111 10.1025 11.1745
277 3 -0.850151 -5.16689 11.8631 16.976
278 3 -0.821711 -6.12574 11.8845 14.6157
326 2 0.148017 -4.56676 11.6994 12.1544
293 2 0.126555 -3.06012 8.84 10.3482
292 2 0.144562 -3.81142 10.7796 9.81184
294 2 0.150008 -5.01595 9.63033 10.7003
349 2 -0.0173955 -5.78336 11.9085 8.89889
359 2 0.175554 -5.13465 8.86885 17.0183
352 2 0.15534 -7.01545 12.3997 10.136
325 1 -0.677879 -4.39945 12.8601 12.5172
266 3 -0.83204 2.62917 9.17162 15.0426
132 2 0.154233 -5.77707 10.8284 10.2515
129 2 0.141905 -2.04042 7.96709 17.3073
29 4 0.962369 3.51819 6.808 12.3766
65 1 -0.645541 -6.88177 11.3355 10.468
288 2 0.0568921 -5.59378 8.94824 9.11992
276 3 -0.796262 -7.29851 13.2444 12.4838
15 4 1.48282 7.37339 2.89289 0.896136
18 4 1.32628 8.35293 2.4349 5.80859
22 4 1.31592 6.58912 4.93554 2.9632
330 2 0.17122 15.1739 1.54084 2.49625
39 4 1.3699 10.2799 1.88984 3.1838
45 4 1.53526 11.9273 4.23634 1.6129
354 2 0.15016 13.9062 2.26016 5.36267
48 4 1.03306 11.9754 3.14482 7.46935
329 1 -0.670985 15.7115 0.655007 2.08326
71 1 -0.693117 5.93324 6.25969 1.60471
76 1 -0.685882 14.9152 1.54464 5.18048
77 1 -0.673151 11.7974 0.800158 3.60561
80 1 -0.680064 12.2214 3.32105 5.56848
94 2 0.0555862 9.03237 3.58064 6.80226
25 4 1.31019 5.77918 4.57422 7.90755
106 2 0.0128881 12.7256 1.58135 7.32829
109 2 0.00120892 11.2607 5.91174 6.84374
335 2 0.162546 13.5865 0.408864 6.23547
150 2 0.177838 6.28358 5.8732 0.591274
163 2 0.132088 15.3467 1.03184 6.0705
164 2 0.177536 14.9374 0.927266 4.28547
165 2 0.185241 12.717 1.3638 3.52138
167 2 0.149803 11.58 0.414413 4.70968
174 2 0.191103 11.322 4.03138 5.41117
175 2 0.171048 12.1296 2.33777 4.91773
176 2 0.167129 13.2462 3.91423 5.51648
149 2 0.207034 4.87444 6.43214 1.88592
209 3 -0.807734 7.58487 3.78535 2.20411
232 3 -0.818011 9.47762 0.807812 2.33723
233 3 -0.805916 9.33913 2.21208 4.68362
234 3 -0.875893 13.1784 0.619454 0.588416
248 3 -0.840327 7.20897 4.97077 8.39263
241 3 -0.813538 10.9804 3.17555 2.39394
242 3 -0.827556 12.9637 3.34356 0.757312
243 3 -0.788588 12.8805 5.31894 2.58522
244 3 -0.867984 7.08293 5.87871 4.0791
245 3 -0.770333 11.2105 5.30134 0.551328
246 3 -0.821933 10.5017 3.01062 8.02587
247 3 -0.829011 12.9 4.30901 8.09925
331 2 0.168558 16.42 0.772244 1.23738
250 3 -0.800189 9.56026 6.35152 5.05719
204 3 -0.832108 8.03648 1.03665 6.63189
203 3 -0.812482 6.90153 2.95536 5.34865
117 2 0.118576 14.913 3.50022 6.61549
4 4 1.20173 15.1527 0.943656 9.75817
21 4 1.28631 7.52349 2.27968 11.2467
312 2 0.177865 9.26911 5.66835 13.2892
42 4 1.42236 9.88861 1.96753 9.50185
44 4 1.0401 12.7593 2.40245 10.6473
73 1 -0.649982 7.27899 5.23873 13.4505
236 3 -0.795177 9.49916 0.50348 8.89705
338 2 0.19774 10.6581 0.888352 12.6431
96 2 -0.0146491 7.60622 3.74959 12.1849
104 2 0.0622999 12.4116 4.20152 10.3691
110 2 0.0354253 13.3131 2.39478 12.4293
341 2 0.197268 9.6643 6.10779 15.0911
154 2 0.153674 7.74299 5.73054 12.4218
155 2 0.160853 7.86742 4.26355 13.8592
156 2 0.15817 7.12847 6.06329 14.4158
171 2 0.155897 8.77355 5.61307 11.3557
360 2 0.289507 8.94825 5.18049 16.6015
193 3 -0.759989 15.8582 0.995215 11.3785
237 3 -0.864067 8.67228 2.63684 10.1618
238 3 -0.781267 8.70009 3.47109 17.2972
239 3 -0.864816 13.9172 1.88858 9.68411
240 3 -0.828279 11.3218 1.81878 10.5707
279 4 1.11205 14.5434 1.54177 14.9785
340 1 -0.666354 9.23083 6.19927 16.1591
281 3 -0.824852 13.7609 2.46054 16.0584
280 2 0.07572 15.5392 2.62193 13.9552
304 1 -0.641939 10.48 5.84185 13.1942
300 4 1.3154 9.83597 2.67887 16.255
301 4 1.05722 11.3626 4.42421 13.996
302 1 -0.695989 8.8498 1.24699 15.6137
303 1 -0.67321 13.4126 4.06049 11.6883
305 2 0.233303 9.43776 0.27037 15.4618
306 2 0.195996 8.35845 1.6943 14.7002
49 4 1.06424 8.28722 6.12287 8.87153
308 2 0.165891 13.4703 4.96621 12.3925
309 2 0.151077 14.4496 3.79907 11.341
310 2 -0.00585181 11.9103 3.36311 12.6802
314 3 -0.821259 11.2374 2.25961 16.7561
315 3 -0.780296 10.2762 3.75592 14.8542
316 3 -0.769892 12.6239 5.15804 14.7706
107 2 0.0191525 9.77132 5.46111 9.4939
313 2 0.115094 10.8865 5.53292 12.0733
282 3 -0.850624 13.9293 0.433997 14.123
40 4 1.52488 12.7765 2.26307 17.3867
323 2 0.175619 16.1658 0.487411 16.0963
79 1 -0.679427 8.61218 6.51917 10.7553
152 2 0.144755 5.63034 6.79638 16.3437
38 4 1.3291 5.82397 12.811 1.25292
41 4 1.02184 5.11174 11.8905 8.51772
260 3 -0.84148 9.29682 9.6814 8.48981
50 4 1.18204 10.8085 7.05693 5.73535
51 4 1.33441 9.26326 8.7257 1.91184
52 4 1.22494 4.59151 10.5977 3.25953
54 4 1.42118 9.01655 8.67939 7.29664
56 4 1.02342 6.76871 10.5142 5.30864
78 1 -0.698878 4.72252 8.71152 7.101
81 1 -0.669282 10.9242 9.42489 2.52517
82 1 -0.67139 2.33134 10.1718 5.53811
83 1 -0.680955 8.05534 11.6019 4.39386
105 2 0.113713 7.30162 7.96137 5.5838
111 2 -0.0112491 3.22802 11.2272 4.14212
112 2 -0.0211052 6.16119 11.9729 6.14467
113 2 -0.0198547 5.57107 10.3765 7.76603
148 2 0.207878 6.58222 7.1613 1.86404
166 2 0.220151 3.34496 13.1071 2.79026
265 3 -0.815186 7.47568 9.36959 6.22343
332 2 0.183139 7.6784 13.005 2.91201
169 2 0.185777 4.13772 9.5731 7.50799
170 2 0.213189 4.9836 8.72896 6.01161
177 2 0.181175 10.7943 9.48712 3.67508
168 2 0.185387 5.64921 8.56329 7.74261
179 2 0.163287 2.54423 11.3127 5.67851
46 4 1.30538 8.12787 7.01296 4.38317
181 2 0.190162 3.13595 9.55145 6.05386
182 2 0.205408 7.76268 11.305 3.31365
183 2 0.161492 9.12784 11.2146 4.67531
333 1 -0.680542 4.50055 12.7638 6.86437
249 3 -0.762991 12.1669 7.08398 4.57994
251 3 -0.832947 8.53375 7.93235 3.19566
252 3 -0.780617 9.81953 7.59327 0.881396
253 3 -0.859445 3.86427 9.57043 2.30198
254 3 -0.823179 5.25577 11.8648 2.45843
256 3 -0.806402 8.37581 9.85113 1.08245
355 2 0.122582 4.28371 11.7897 6.35929
258 3 -0.878382 8.658 7.31717 7.93497
259 3 -0.844466 10.3599 8.50302 6.38548
184 2 0.149034 7.85757 12.6903 4.72449
264 3 -0.824601 5.67602 9.98913 4.2956
257 3 -0.804369 6.8058 11.8841 0.17839
187 2 0.222592 4.13134 10.9035 0.0913289
334 2 0.185911 3.54591 13.2145 7.3185
90 2 0.0182509 8.23726 12.094 8.66117
12 4 1.06864 8.74388 10.69 9.53259
43 4 1.32262 4.98899 12.3 13.3518
53 4 1.31511 7.99458 11.1051 17.4162
55 4 1.45878 3.24369 10.315 10.2174
57 4 1.33383 3.14216 10.6788 15.4375
58 4 1.20658 6.35772 10.0568 11.7147
357 2 0.128366 11.5459 7.81912 15.4444
72 1 -0.660651 4.70059 7.32053 15.9686
84 1 -0.661677 4.26654 10.3305 16.9624
85 1 -0.647064 6.79387 8.88391 13.0514
345 2 0.185357 6.50153 10.4148 15.5314
108 2 0.0866162 4.32492 8.14644 11.7119
346 2 0.165535 6.8609 8.94819 16.6792
337 2 0.189974 2.17703 12.9875 14.2125
342 2 0.160333 8.52936 7.06439 16.3428
153 2 0.205173 4.58781 8.49202 16.1872
351 2 0.0125449 3.74893 12.8983 12.3146
185 2 0.190932 5.39868 10.1705 16.7377
186 2 0.224551 3.79678 9.3697 17.4048
47 4 1.13268 10.5986 6.89492 17.377
188 2 0.172808 7.72667 8.39893 12.5898
189 2 0.13992 5.95446 8.06688 12.8833
190 2 0.187616 6.90413 9.21338 14.2258
235 3 -0.84991 6.51722 12.7246 8.99523
255 3 -0.810192 9.41684 11.565 16.7016
262 3 -0.799583 3.91709 11.7276 9.55389
356 2 0.193066 2.21021 12.1817 12.4415
267 3 -0.828092 4.23402 11.3898 14.3969
268 3 -0.860101 2.02163 11.6266 16.1123
269 3 -0.781102 7.68442 10.151 10.6081
270 3 -0.784603 4.65372 9.40267 10.864
271 3 -0.798364 5.97699 11.4158 12.5055
344 2 0.160864 8.19813 9.62195 15.4612
133 2 0.202871 9.95561 11.0218 11.5374
173 2 0.183167 9.35698 7.3247 10.9657
311 2 0.155334 10.8672 6.83123 13.6027
151 2 0.249831 4.35589 7.01021 14.9162
343 1 -0.670778 7.29849 9.83117 16.1294
336 1 -0.692647 1.88629 13.0758 13.0963
339 1 -0.647051 11.993 7.91652 16.4896
172 2 0.131246 7.43398 6.85738 10.8407
275 2 -0.0180695 10.9649 9.59659 15.9798
ITEM: TIMESTEP
200
ITEM: NUMBER OF ATOMS
362
ITEM: BOX BOUNDS xy xz yz pp pp pp
-8.3819999999999997e+00 1.7202700000000000e+01 -8.3819999999999997e+00
0.0000000000000000e+00 1.3430600000000000e+01 3.0499999999999999e-02
0.0000000000000000e+00 1.7598424466666668e+01 3.0270000000000002e-01
ITEM: ATOMS id type q x y z
146 2 0.202775 0.765 5.97954 5.6257
2 4 1.02684 -0.718296 2.9766 5.07169
5 4 1.24607 2.44609 2.17747 6.27258
7 4 0.713561 -0.97056 3.63429 1.8751
14 4 1.40362 5.13089 2.65214 4.40788
23 4 1.08631 2.83061 6.10527 4.33376
59 1 -0.677105 2.53308 1.6104 2.41309
60 1 -0.656789 -1.06282 4.42403 6.25388
61 1 -0.669467 2.26373 3.38431 7.68565
212 3 -0.85027 4.83843 5.76686 7.7445
69 1 -0.631982 -0.097461 5.40466 1.47948
87 2 0.0536186 -1.81442 5.201 1.42549
353 2 0.185206 6.02456 0.384888 8.15761
93 2 0.0860824 3.7086 4.69355 3.82711
211 3 -0.83492 3.35578 6.4474 5.76401
116 2 0.174128 3.03936 2.51328 1.96694
205 3 -0.850368 5.96971 3.38564 0.0310784