ITEM: TIMESTEP
0
ITEM: NUMBER OF ATOMS
362
ITEM: BOX BOUNDS xy xz yz pp pp pp
-8.3819999999999997e+00 1.7202700000000000e+01 -8.3819999999999997e+00
0.0000000000000000e+00 1.3430600000000000e+01 3.0499999999999999e-02
0.0000000000000000e+00 1.7586700000000000e+01 3.0270000000000002e-01
ITEM: ATOMS id type q x y z
13 4 1.61606 8.2712 0.19202 1.88771
2 4 1.00561 -0.718481 2.84143 5.18303
5 4 1.24999 2.34591 2.21189 6.26712
7 4 0.701888 -0.979418 3.58833 1.89015
14 4 1.45032 5.08449 2.60093 4.27172
23 4 1.05902 2.7361 6.07842 4.25897
59 1 -0.655631 2.33047 0.775972 2.31837
60 1 -0.659811 -1.0628 4.29588 6.37875
61 1 -0.668494 2.16161 3.6405 7.4818
203 3 -0.82584 6.76596 2.69293 5.17201
69 1 -0.64729 -0.0320903 5.23091 1.54608
87 2 0.0634041 -1.75714 5.28722 1.36216
353 2 0.176175 6.06163 0.462464 8.07912
93 2 0.0982878 3.67766 4.63941 3.98308
62 1 -0.663717 -2.25006 6.49531 4.29391
116 2 0.177456 2.7182 1.6908 1.75852
205 3 -0.822777 5.77016 3.26286 0.217016
118 2 0.187264 -1.51003 5.11289 5.69635
119 2 0.150886 -0.123942 4.61601 6.98009
120 2 0.159986 1.22852 4.35649 7.31115
121 2 0.223258 3.10974 4.14544 7.30139
210 3 -0.847622 5.14512 3.70342 8.65662
123 2 0.200074 -1.84927 5.61705 3.64886
70 1 -0.64536 0.823819 6.11659 4.52648
3 4 0.919338 3.57731 0.163203 8.46379
143 2 0.024421 0.671583 3.67568 1.04813
144 2 0.177301 0.286658 5.48442 2.67177
147 2 0.157094 0.719618 4.93966 4.40109
124 2 0.167033 -2.50781 6.25169 5.40361
191 3 -0.747901 0.926599 2.22165 5.54334
192 3 -0.748975 2.59452 0.823644 7.33836
194 3 -0.739965 -0.851283 3.30052 3.47589
199 3 -0.785583 4.88067 1.32777 3.41251
200 3 -0.79938 3.75384 2.52468 5.31109
122 2 0.183147 2.15981 3.07229 8.46362
287 2 -0.0130715 -1.53689 5.05692 8.12881
208 3 -0.814207 4.8629 3.82225 3.31991
201 3 -0.821077 7.37848 1.43347 1.11695
350 2 0.036706 4.60699 5.29752 0.407891
142 2 0.169012 0.522076 5.88508 0.884789
117 2 0.128798 -1.92102 3.59256 6.89506
114 2 0.20787 1.62059 0.967792 3.12134
283 4 0.88463 -3.13104 5.55332 8.59305
146 2 0.208555 0.741493 6.45673 5.62817
6 4 1.26832 0.487266 1.11515 12.011
9 4 1.00909 0.866049 4.14278 13.1745
17 4 1.33828 4.90392 2.66835 9.88012
20 4 0.953156 5.11197 2.92644 16.5386
24 4 1.1031 3.50366 6.55044 17.0732
27 4 1.03183 5.39806 4.53512 13.7713
28 4 1.21656 0.856611 5.65285 15.862
276 3 -0.821965 1.50384 0.31462 12.9624
63 1 -0.701933 0.525145 5.44986 11.8292
67 1 -0.683089 3.69436 3.31959 11.2842
68 1 -0.690951 1.2819 1.46691 10.297
89 2 0.0080118 2.5477 4.08689 12.7347
91 2 -0.0338515 3.47757 2.49122 16.7218
92 2 0.0924702 5.69442 1.32805 16.4251
97 2 -0.00528164 5.29312 3.36505 12.484
98 2 -0.0316681 -0.182304 5.30967 17.1602
99 2 -0.0367979 2.44966 5.75154 11.4986
126 2 0.139834 -0.65333 5.39692 11.9921
127 2 0.132721 0.867912 4.96983 10.919
348 2 -0.0166345 -3.12031 5.42217 10.3379
136 2 0.147659 3.83154 2.6428 12.1249
137 2 0.140998 2.58252 3.32088 10.9177
138 2 0.133128 4.21834 4.4021 11.3426
139 2 0.150583 1.51729 2.55671 10.5201
140 2 0.177698 1.09942 1.32632 9.20088
141 2 0.181863 2.20484 0.824353 10.5953
195 3 -0.813744 0.364616 2.61806 12.6787
202 3 -0.810872 4.13464 1.30948 9.36857
297 2 -0.0219933 -2.25862 6.18492 14.5351
206 3 -0.857662 6.24714 2.35543 10.6429
328 2 0.00804675 3.82703 0.780656 14.5123
213 3 -0.826269 5.26576 3.7491 15.1956
214 3 -0.825451 0.627175 4.58472 14.6974
215 3 -0.817751 2.34994 5.62201 16.4639
216 3 -0.86448 4.54994 5.68231 13.2192
29 4 0.969633 3.40745 6.59971 12.5541
207 3 -0.850122 7.95558 0.863739 12.0285
128 2 0.184824 0.896613 6.50404 11.9649
86 2 -0.0192117 -0.49263 1.65843 9.45784
324 2 0.208497 0.0547973 2.01727 14.8868
327 2 0.172967 4.18484 0.593766 12.0488
320 2 0.166148 -5.69059 11.9136 4.68193
347 2 -0.0306757 -3.54245 12.3198 7.90384
10 4 1.2628 -2.52924 9.06931 1.53585
26 4 1.30993 3.97834 7.01954 6.93267
101 2 -0.00586738 1.15201 9.7333 0.431807
8 4 1.32969 -3.8836 6.72778 3.31409
159 2 0.169708 1.25616 10.0801 2.12081
362 3 -0.853919 0.135228 12.1732 0.813076
31 4 1.31371 -1.20531 11.0119 3.67187
33 4 1.21432 1.64207 8.42294 8.23908
34 4 1.34585 0.667836 10.3831 6.10715
64 1 -0.669884 -1.44033 7.8865 0.495527
66 1 -0.66601 -1.6311 12.7803 8.42307
291 2 0.160283 -4.11127 9.76404 5.63741
74 1 -0.657379 1.08815 8.94539 2.24808
100 2 -0.000853407 -2.66245 11.3095 4.47563
319 2 0.162937 -4.29413 10.8767 4.08408
30 4 1.23961 2.83784 8.27858 1.99391
318 2 0.166952 -3.98747 12.2829 5.27958
130 2 0.169419 -0.872498 6.93295 0.811709
221 3 -0.78048 2.50625 7.07324 7.94266
134 2 0.154268 -1.80785 11.7535 7.98518
284 4 0.780274 -3.90332 8.58693 7.6585
317 1 -0.682004 -4.56223 11.9174 4.43288
157 2 0.21595 0.845566 8.68507 3.34705
158 2 0.180415 0.242197 8.49022 1.52818
196 3 -0.805565 -3.54541 7.89304 2.37742
197 3 -0.855207 -3.40763 10.0525 0.485346
198 3 -0.81476 -3.73198 12.4223 1.62684
16 4 1.3198 0.128266 13.2441 7.70921
217 3 -0.825913 2.88616 7.13117 3.07617
218 3 -0.81411 2.98557 7.42366 0.267035
219 3 -0.823334 -1.53387 9.90207 2.57696
220 3 -0.836263 -0.7071 12.4118 3.13293
145 2 0.17692 0.250559 6.71559 3.73597
222 3 -0.836756 -0.193108 10.3665 4.75056
223 3 -0.813959 0.692793 9.06457 7.04599
224 3 -0.788281 0.43857 11.7738 6.90543
285 1 -0.659921 -3.19603 9.08557 6.03434
289 2 0.199163 -2.90327 8.18768 5.30963
11 4 1.40202 -3.85662 11.5912 0.224086
290 2 0.148905 -2.27 9.69321 6.43653
178 2 0.2108 -5.76921 9.3991 2.26976
125 2 0.180791 -1.70969 7.52702 4.12851
295 3 -0.772142 -3.45401 6.99183 8.14536
288 2 0.0402912 -5.57529 9.26696 8.35672
361 2 0.169488 -6.78552 10.9708 1.92431
211 3 -0.820298 3.32143 6.74893 5.54102
293 2 0.123681 -3.25778 10.6045 8.63416
1 4 1.17932 -4.35159 13.1489 2.86909
131 2 0.176926 -0.652703 8.66371 0.102752
115 2 0.172765 -6.38686 12.9883 1.56628
19 4 1.32831 -0.0537421 12.7304 12.8593
32 4 1.28724 0.462343 11.4668 17.2342
35 4 1.48851 1.44842 8.15374 14.302
36 4 1.23855 -1.81394 11.92 15.4853
37 4 1.30616 0.484648 9.74897 11.8555
75 1 -0.666462 -0.746625 9.07637 10.5764
65 1 -0.659874 -6.61808 11.092 10.8421
102 2 -0.0120836 0.589784 8.03517 9.61414
103 2 -0.00990458 -2.74984 10.7494 14.6081
286 1 -0.680566 -4.06501 9.91527 9.13312
160 2 0.155243 -0.860124 7.94931 10.8381
161 2 0.164993 -0.518289 9.32001 9.47984
162 2 0.173236 -1.70522 9.65757 10.9196
225 3 -0.785747 0.450571 7.15704 15.3329
226 3 -0.873149 2.53629 7.2554 13.573
227 3 -0.835651 -0.714832 10.9954 16.3693
228 3 -0.782009 -0.990413 12.7856 14.4584
229 3 -0.819561 -2.81472 12.7978 16.4028
230 3 -0.812779 0.496308 8.70813 12.9759
231 3 -0.780676 -0.285902 11.2521 12.4118
129 2 0.159385 -2.10776 7.88509 17.2738
299 2 -0.0026886 -3.41141 7.3625 16.0847
272 4 1.07452 -5.71369 12.788 13.7734
273 4 1.20371 -6.27618 11.1422 16.2793
274 2 0.197777 -2.9897 13.1457 13.2406
132 2 0.151597 -5.5335 11.2508 10.7725
277 3 -0.844274 -5.39237 11.931 17.3015
278 3 -0.810361 -5.91861 11.5212 14.6769
326 2 0.135111 -4.11388 11.8168 12.4717
266 3 -0.825286 2.1522 9.51157 14.9652
292 2 0.150022 -5.02205 10.4637 9.4471
294 2 0.15801 -3.62096 9.35442 10.0399
135 2 0.206555 -1.51519 12.7759 9.59133
263 3 -0.826768 1.96239 10.1994 11.1777
352 2 0.208543 -6.87141 11.2475 11.8875
325 1 -0.694354 -4.03904 12.9905 12.9082
90 2 0.116692 -7.31076 12.0927 10.0141
359 2 0.219314 -4.6687 8.76098 17.5719
349 2 -0.00903115 -5.67008 12.0864 9.39676
15 4 1.48871 7.31003 2.98866 0.755744
18 4 1.32952 8.26251 2.50525 5.75714
22 4 1.27786 6.44535 4.90828 2.88085
330 2 0.168539 14.9969 1.46061 2.43537
39 4 1.36396 10.3413 1.96282 3.22097
45 4 1.53476 12.1109 4.303 1.59821
354 2 0.142906 13.9904 2.18203 5.55238
48 4 1.01149 12.243 3.13397 7.62684
329 1 -0.678871 15.4546 0.536485 2.03148
71 1 -0.688475 5.82693 6.26471 1.64982
76 1 -0.68192 15.0508 1.58444 5.48286
77 1 -0.666386 11.6621 0.769751 3.83585
80 1 -0.682581 12.2004 3.10872 5.74697
94 2 -0.00367905 8.50109 3.7744 6.77629
331 2 0.138409 16.2894 0.687181 1.22079
106 2 -0.00669317 13.2153 1.69286 7.63511
109 2 -0.0149639 11.3269 6.64457 7.0079
335 2 0.1504 13.7958 0.434799 6.53543
150 2 0.156739 6.00505 6.15706 0.528331
163 2 0.144881 15.2042 0.840992 6.34562
164 2 0.153489 15.1351 1.08134 4.45228
165 2 0.158943 12.7494 1.23317 3.67747
167 2 0.157456 11.4622 0.527862 4.91489
174 2 0.196975 11.04 3.38091 5.67114
175 2 0.164612 12.484 2.14282 5.18137
176 2 0.188543 12.8951 3.95902 5.45729
204 3 -0.87251 8.39978 1.31863 6.71505
209 3 -0.758953 7.53125 3.89007 2.08425
232 3 -0.83983 9.62678 0.940654 2.24882
233 3 -0.790875 9.34399 2.40986 4.62025
234 3 -0.837028 13.1637 0.727513 0.245171
248 3 -0.842826 7.28087 5.25682 8.23637
241 3 -0.770836 11.1978 3.27128 2.45663
242 3 -0.872631 13.0566 3.37743 0.616931
243 3 -0.811976 13.1178 5.31223 2.57312
244 3 -0.846324 7.17031 5.73527 4.00408
245 3 -0.785337 11.1723 5.26654 0.67518
246 3 -0.830147 10.9352 2.7679 8.50783
247 3 -0.810704 13.0065 4.48467 7.98898
250 3 -0.79164 9.40571 6.64179 5.07865
149 2 0.187034 4.76576 6.42905 1.90229
49 4 1.05207 8.49404 6.24313 8.7146
25 4 1.29806 5.92032 4.68089 7.70863
212 3 -0.857828 5.04002 5.91629 7.32413
88 2 -0.0207626 15.6412 2.20243 0.983053
334 2 0.174302 12.2282 0.264941 7.80032
95 2 0.0577721 6.28675 3.75916 6.32064
4 4 1.24425 15.3703 0.759098 10.1996
21 4 1.28031 7.62549 2.30909 11.3516
323 2 0.166133 16.3572 1.03029 16.3056
42 4 1.4411 10.0519 1.86528 9.66562
44 4 1.03814 12.8018 2.31062 11.1158
73 1 -0.669318 7.25078 5.02565 13.6753
79 1 -0.659623 8.67636 6.44428 10.6191
338 2 0.235665 10.5962 0.539096 12.373
96 2 -0.0101693 7.66071 3.41934 12.7158
104 2 0.0857398 12.4161 4.08289 10.2863
110 2 0.0265459 13.0749 2.77786 12.8601
341 2 0.168323 9.48208 6.77508 15.2127
154 2 0.136818 7.3399 5.16588 12.5311
155 2 0.256203 8.21069 4.61499 14.1125
156 2 0.164366 7.08311 6.06405 14.2729
171 2 0.166632 9.0182 5.60189 11.2827
360 2 0.283777 8.91447 5.56909 16.6433
193 3 -0.767211 16.2287 0.315478 11.5329
237 3 -0.812355 8.82496 2.78745 10.421
238 3 -0.799219 8.70441 3.79233 17.1004
239 3 -0.861495 14.1043 1.63087 10.5481
240 3 -0.800633 11.3445 1.68767 10.9686
279 4 1.09076 14.5912 1.49873 14.9076
340 1 -0.671966 9.09337 6.62958 16.3262
281 3 -0.83145 13.908 2.63576 15.7615
40 4 1.49891 12.775 2.41653 17.2508
304 1 -0.672887 10.2338 6.73982 13.2702
300 4 1.30053 9.78423 3.0942 16.246
301 4 1.01831 10.9108 5.09054 13.8773
302 1 -0.660884 8.83602 1.55218 15.7931
303 1 -0.659201 13.1926 4.23512 11.629
172 2 0.136359 7.36889 6.60534 10.6002
306 2 0.172516 8.66949 1.79863 14.6896
280 2 0.0548793 15.6761 2.4323 13.8743
308 2 0.151045 12.8272 5.21561 12.0731
313 2 0.126167 10.6614 6.57809 12.1757
310 2 0.00511352 11.3933 4.27621 12.4495
314 3 -0.813379 11.2171 2.55571 16.8059
315 3 -0.790908 9.89368 4.18239 14.5555
316 3 -0.774831 12.3031 5.46576 14.7368
107 2 0.0155965 9.91019 5.50151 9.48872
358 2 0.0615487 13.1729 6.32325 17.2424
305 2 0.280934 9.45986 0.480899 15.953
309 2 0.125961 14.373 4.25602 11.4846
321 1 -0.679624 16.4572 1.18801 15.1574
236 3 -0.795759 9.48496 0.509683 9.13718
298 2 0.0699292 14.333 4.23369 16.1224
296 4 0.652062 13.6139 5.6873 15.5565
307 2 0.209324 7.86159 1.50444 16.3391
282 3 -0.808052 13.8543 0.263745 14.1939
38 4 1.2972 5.77021 12.7351 0.928973
181 2 0.169769 3.31307 10.4784 6.39133
260 3 -0.824206 9.10152 10.1315 8.34025
50 4 1.24369 10.801 7.31248 5.5951
51 4 1.2935 9.19772 8.8925 1.84251
52 4 1.25523 4.63787 10.588 3.00904
54 4 1.35483 8.95132 9.00941 7.14703
56 4 0.922706 6.83403 10.7817 5.0124
78 1 -0.684942 4.89845 8.77317 6.94962
81 1 -0.681139 10.5046 10.0133 2.57563
82 1 -0.650629 2.54954 10.8446 5.60408
83 1 -0.661133 8.247 11.5831 4.11475
105 2 0.092689 7.07129 7.97419 5.51801
111 2 -0.0108619 3.53164 11.3926 4.03071
112 2 -0.0213022 5.94483 11.8059 6.08937
113 2 0.00446551 5.60379 10.3658 7.96395
148 2 0.205499 6.50716 7.15538 2.12129
166 2 0.197398 3.03285 12.9796 3.11951
265 3 -0.764301 7.57761 9.35275 6.18902
332 2 0.176791 7.49489 12.9366 2.84343
169 2 0.184231 4.20161 9.58931 7.21636
170 2 0.189331 5.17805 8.75276 5.78921
177 2 0.202664 10.4028 10.1573 3.70155
168 2 0.197998 5.78639 8.66326 7.66488
179 2 0.1657 2.58126 11.9745 5.39374
46 4 1.27046 7.9909 7.07803 4.45106
180 2 0.142613 2.43808 10.2164 4.60204
182 2 0.200482 7.91677 11.3416 2.97823
183 2 0.180932 9.33491 11.3167 4.31083
333 1 -0.661599 4.64866 12.8223 7.13245
249 3 -0.768236 11.9929 7.10774 4.56422
251 3 -0.745429 8.4306 8.06339 3.16517
252 3 -0.818635 9.95414 7.76158 1.04043
253 3 -0.842991 3.85827 9.49457 2.19258
254 3 -0.82662 5.0447 11.7636 2.07477
256 3 -0.76876 8.06346 9.89106 0.934121
355 2 0.152845 3.97001 12.1595 6.43899
258 3 -0.865987 8.77491 7.56565 7.97106
259 3 -0.797741 10.4346 8.83895 6.01584
184 2 0.128672 7.94474 12.724 4.46712
264 3 -0.803673 5.83119 10.0631 3.94114
47 4 1.1595 10.597 6.68839 0.0434474
261 3 -0.85094 2.60329 9.586 8.75571
187 2 0.226898 4.0076 10.6331 0.0741939
12 4 1.06072 9.0246 10.1511 9.91624
43 4 1.28581 4.80101 12.0698 13.4563
53 4 1.24396 7.77535 11.0235 17.0653
55 4 1.43036 3.22572 10.2082 10.075
57 4 1.30037 2.9882 10.8065 15.5506
58 4 1.21569 6.11304 9.68918 11.7228
357 2 0.112381 11.7799 7.86746 15.8742
72 1 -0.69306 4.6168 7.4328 15.7897
84 1 -0.683097 4.13167 10.1518 16.8717
85 1 -0.663146 6.51643 8.17177 12.6883
345 2 0.222127 6.40155 10.4063 15.0004
108 2 0.0822055 3.99948 7.8692 11.5028
346 2 0.147797 6.73748 8.97392 16.3123
336 1 -0.681106 1.84803 12.8258 13.0967
342 2 0.174152 8.32117 7.35035 16.6509
153 2 0.216551 4.2582 8.45993 15.5509
351 2 0.0401143 3.63586 12.5221 12.3133
185 2 0.195648 5.29778 9.97566 16.4941
186 2 0.263159 3.74448 9.18608 17.2867
337 2 0.1978 1.82979 13.1047 14.222
188 2 0.169501 7.70384 8.32249 12.6877
189 2 0.178967 6.19946 7.2065 12.2546
190 2 0.167601 5.96313 8.45358 13.7343
235 3 -0.832455 6.52772 12.751 9.23658
255 3 -0.782734 9.36572 11.4793 16.4698
262 3 -0.827654 4.02137 11.5801 9.67856
356 2 0.217563 2.16581 11.6944 12.9185
267 3 -0.858634 3.9376 11.3727 14.4935
268 3 -0.783414 1.75142 12.0765 16.2976
269 3 -0.758877 7.67566 9.92831 10.7228
270 3 -0.781767 4.61137 9.18048 10.7745
271 3 -0.8007 5.74485 10.8861 12.7046
344 2 0.16261 8.13554 9.56719 15.1378
133 2 0.0133193 10.3257 9.2023 10.6823
311 2 0.157675 10.749 7.55546 13.8109
339 1 -0.628612 12.1603 7.81536 17.0331
275 2 -0.0222461 11.1828 9.43987 16.4225
343 1 -0.665919 7.13362 9.85327 15.7029
322 2 0.237194 8.24034 13.3332 14.6402
152 2 0.13199 5.59218 7.42482 16.3352
173 2 0.156887 9.14143 7.45952 10.8107
257 3 -0.787503 6.60957 12.1444 17.3036
312 2 0.172337 9.09776 6.812 13.302
151 2 0.246051 4.64069 6.83292 14.8475
41 4 1.08652 5.27938 11.8606 8.79775
ITEM: TIMESTEP
100
ITEM: NUMBER OF ATOMS
362
ITEM: BOX BOUNDS xy xz yz pp pp pp
-8.3819999999999997e+00 1.7228955800000001e+01 -8.3819999999999997e+00
0.0000000000000000e+00 1.3430600000000000e+01 5.6755800000001244e-02
0.0000000000000000e+00 1.7586700000000000e+01 3.0270000000000002e-01
ITEM: ATOMS id type q x y z
13 4 1.65087 8.18601 0.135837 1.78884
2 4 1.03425 -0.722822 2.73837 5.14182
5 4 1.20209 2.46543 2.3898 6.27688
7 4 0.704142 -0.981381 3.76889 1.91655
14 4 1.49051 4.97235 2.68875 4.35273
23 4 1.0963 2.84369 6.02261 4.18021
59 1 -0.672694 2.38729 0.81019 2.55211
60 1 -0.63264 -1.00448 4.27187 6.33911
61 1 -0.6609 2.25165 3.78021 7.49108
203 3 -0.767617 6.6972 2.71608 5.19219
69 1 -0.640949 0.124731 5.34432 1.47318
87 2 0.0452023 -1.7277 5.36677 1.52286
353 2 0.181688 6.02753 0.670599 7.66876
93 2 0.0893278 3.38884 4.51706 3.56183
62 1 -0.680894 -2.37109 6.36374 4.34726
116 2 0.165374 2.5016 1.90625 2.46434
145 2 0.170812 0.369813 6.58169 4.03265
118 2 0.192352 -1.52214 5.06334 5.61655
119 2 0.155714 0.0160698 4.60069 6.80146
120 2 0.149663 1.1918 4.27906 7.54913
121 2 0.217095 3.15995 4.47264 7.15072
16 4 1.34585 8.48696 0.15732 7.83142
123 2 0.1989 -2.22655 5.34271 3.86757
70 1 -0.68923 0.974521 5.77534 4.53414
3 4 0.930921 3.46279 0.34256 8.41786
143 2 0.0226836 0.740113 3.75865 1.09987
144 2 0.178719 0.485652 5.54811 2.58517
147 2 0.198749 0.796298 4.73899 4.18188
124 2 0.155763 -2.80842 6.28958 5.41205
191 3 -0.731235 0.81029 2.33236 5.44501
192 3 -0.749418 2.68325 0.824728 7.09417
194 3 -0.743083 -0.87664 3.39452 3.48211
199 3 -0.784449 5.04247 1.20353 3.76497
200 3 -0.860131 3.84106 2.76415 5.41812
122 2 0.180713 2.47638 3.10685 8.48971
287 2 0.00170932 -1.51975 5.20766 8.00043
208 3 -0.858572 4.87695 3.88421 3.40228
201 3 -0.848465 7.24743 1.3017 1.24606
350 2 0.00643063 4.40056 5.3109 0.534082
142 2 0.177509 0.628702 6.06096 0.74638
117 2 0.139683 -1.67184 3.48246 7.03431
114 2 0.191748 1.59928 0.53526 3.28775
283 4 0.911692 -3.14039 5.44867 8.54789
146 2 0.191085 0.942918 5.91373 5.63761
95 2 0.0809367 6.05574 3.69665 6.31497
115 2 0.188476 2.18431 0.286886 1.51996
211 3 -0.833366 3.56053 6.6064 5.44533
6 4 1.17864 0.373389 1.09833 11.9522
9 4 1.01415 0.794229 4.13779 13.01
17 4 1.3799 4.9865 2.62087 9.85521
20 4 0.975208 5.18278 2.85464 16.385
24 4 1.07229 3.38873 6.5414 17.1287
27 4 1.04274 5.46503 4.37548 13.6283
28 4 1.21275 0.89739 5.72251 15.7152
205 3 -0.863433 6.06566 3.51081 17.4404
63 1 -0.685321 0.42 5.45 11.702
67 1 -0.668991 3.80472 3.47552 11.1637
68 1 -0.687506 1.07885 1.41571 10.2598
89 2 0.0112866 2.48043 4.09693 12.4957
91 2 -0.0418559 3.66733 2.77667 16.982
92 2 0.08951 5.44648 1.1335 16.3571
97 2 0.0248319 5.41134 3.21719 12.3316
98 2 -0.0194323 -0.0504099 5.24632 17.1303
99 2 -0.0271445 2.28196 6.06295 11.5597
126 2 0.124227 -0.747083 5.04288 11.6098
127 2 0.121444 0.940962 5.34901 10.6177
348 2 -0.0138019 -3.0147 5.32311 10.2831
136 2 0.124746 3.75387 2.90595 12.2246
137 2 0.151569 2.77596 3.42565 10.7608
138 2 0.165845 4.04707 4.57929 11.1924
139 2 0.140831 0.824326 2.53527 10.1971
140 2 0.143734 0.767274 0.708563 9.41575
141 2 0.177074 2.19708 1.17111 10.595
195 3 -0.810827 0.204776 2.60808 12.6459
202 3 -0.868803 4.07032 1.48737 9.2805
297 2 -0.0401086 -2.33099 5.76395 14.7055
206 3 -0.842103 6.35864 2.32411 10.6396
328 2 -0.00480568 3.81141 0.954592 14.1419
213 3 -0.820104 5.32766 3.46367 14.9357
214 3 -0.812362 0.588096 4.64151 14.4853
215 3 -0.803005 2.37637 5.55813 16.2572
216 3 -0.842171 4.40776 5.45729 13.2437
29 4 0.945472 3.41454 6.68065 12.6874
207 3 -0.827954 7.82255 0.930242 12.1536
128 2 0.190468 0.481359 6.50724 12.1476
86 2 -0.0202969 -0.70277 1.71634 9.47411
324 2 0.181416 -0.0882504 1.97954 15.2661
327 2 0.180213 4.28 0.232808 11.7202
151 2 0.265049 4.55052 6.4925 14.9125
135 2 0.211952 6.7439 0.361766 9.38669
210 3 -0.839666 5.30109 3.75212 8.8345
320 2 0.167481 -5.79493 11.8359 4.44551
347 2 -0.0190398 -3.60366 12.4708 8.06487
10 4 1.31269 -2.58568 9.01325 1.53398
26 4 1.32563 4.05494 6.96781 6.94363
101 2 -0.00335677 1.04158 9.61983 0.406948
8 4 1.32853 -4.07397 6.67887 3.37068
159 2 0.162907 1.21523 10.2038 2.1073
362 3 -0.880187 0.181945 12.2062 0.705923
31 4 1.33767 -1.24529 11.0271 3.62882
33 4 1.2399 1.73972 8.49643 8.26189
34 4 1.21523 0.848921 10.4371 6.1074
64 1 -0.662106 -1.30975 7.99484 0.438375
66 1 -0.684182 -1.70584 13.1048 8.34422
291 2 0.177979 -3.97186 9.66419 5.48416
74 1 -0.677461 1.09258 9.0666 2.32553
100 2 0.0176356 -2.68135 11.4237 4.48051
319 2 0.168093 -4.30785 10.7 3.88952
30 4 1.22574 2.74588 8.24813 2.0536
318 2 0.1565 -4.15919 11.8727 5.39347
130 2 0.175455 -0.805951 7.01464 0.84129
221 3 -0.776763 2.6874 7.21849 8.05267
134 2 0.151652 -1.95426 12.0094 8.28632
284 4 0.78649 -3.99087 8.4706 7.67613
317 1 -0.645842 -4.63229 11.7378 4.32687
157 2 0.199994 0.828122 8.82924 3.42566
158 2 0.185719 0.221381 8.62254 1.64896
196 3 -0.799566 -3.45528 7.96695 2.33324
197 3 -0.872229 -3.50466 9.93001 0.445001
198 3 -0.841508 -3.77535 12.3447 1.78955
293 2 0.108138 -3.15761 10.2631 8.76479
217 3 -0.851345 2.90336 6.99421 2.98004
218 3 -0.792278 2.79542 7.46243 0.312813
219 3 -0.839372 -1.64813 9.97641 2.51084
220 3 -0.825309 -0.749398 12.397 3.09713
131 2 0.188077 -0.513069 8.7308 0.023208
222 3 -0.802394 -0.248985 10.457 4.74112
223 3 -0.808921 0.797925 9.01909 7.1334
224 3 -0.75501 0.529683 11.9217 7.03653
285 1 -0.66972 -3.3122 9.0197 6.0747
289 2 0.182001 -2.89867 8.005 5.41134
11 4 1.43104 -3.7997 11.5079 0.402278
290 2 0.148106 -2.43623 9.62608 6.54597
1 4 1.18861 -4.26895 13.1518 2.99742
125 2 0.183211 -1.58071 7.1099 4.15603
295 3 -0.796912 -3.62411 6.89517 8.0955
288 2 0.052673 -5.56292 9.15651 8.48534
19 4 1.30982 -0.139746 12.7065 13.0296
32 4 1.26048 0.506454 11.3796 17.2308
35 4 1.47449 1.42929 8.25953 14.2519
36 4 1.26898 -1.8315 11.9053 15.4779
37 4 1.3111 0.555266 9.89872 11.7212
75 1 -0.659484 -0.705748 9.23769 10.4345
65 1 -0.640405 -6.59754 11.139 10.7013
102 2 -0.00510878 0.581261 8.08666 9.53444
103 2 -0.0125761 -2.83251 10.9244 14.4461
286 1 -0.656505 -4.04282 9.62361 9.33408
160 2 0.143948 -0.795776 8.05584 10.5955
161 2 0.169908 -0.342535 9.48384 9.41179
162 2 0.177505 -1.70766 9.79888 10.6598
225 3 -0.769343 0.457028 7.25244 15.4471
226 3 -0.87036 2.64241 7.40673 13.7509
227 3 -0.810134 -0.810726 10.9657 16.2994
228 3 -0.807948 -1.00863 12.8575 14.6002
229 3 -0.809557 -2.76187 12.6533 16.5817
230 3 -0.827473 0.583259 8.73933 12.881
231 3 -0.815277 -0.237571 11.3673 12.2884
129 2 0.171152 -2.00936 8.1209 17.1671
299 2 0.00787119 -3.3872 7.2717 15.8834
272 4 1.02965 -5.62315 12.6819 13.7379
273 4 1.22913 -6.19347 11.2959 16.3706
274 2 0.176759 -3.13328 13.0896 13.3659
132 2 0.137948 -5.53549 11.3026 10.3158
277 3 -0.825692 -5.36599 12.0014 17.4985
278 3 -0.845104 -5.6352 11.5951 14.8888
326 2 0.123531 -4.11738 11.5509 12.5018
266 3 -0.817596 2.09024 9.45337 15.1675
292 2 0.147949 -4.53834 10.3645 10.0856
294 2 0.156653 -3.60241 8.75805 9.95258
352 2 0.221362 -6.74755 11.3515 11.7849
263 3 -0.858963 1.98527 10.1134 11.099
349 2 0.00441708 -6.04947 12.4751 9.34278
325 1 -0.670615 -4.04173 12.8484 12.7293
276 3 -0.774456 -6.87529 13.1429 12.8207
359 2 0.233513 -4.54198 8.84116 17.2704
275 2 0.00869482 -5.89217 9.6337 16.7846
15 4 1.5088 7.30794 2.88629 0.739236
18 4 1.26509 8.33228 2.71904 5.7316
22 4 1.28815 6.51041 4.90514 2.95155
330 2 0.165113 14.8708 1.66921 2.40185
39 4 1.43193 10.2889 2.0228 3.19272
45 4 1.51056 12.0253 4.26438 1.67733
354 2 0.153617 14.0035 2.22559 5.64427
48 4 1.03804 12.2977 3.06515 7.62607
329 1 -0.660163 15.5044 0.75541 1.95083
71 1 -0.678169 5.8702 6.14118 1.62586
76 1 -0.690821 15.0051 1.52868 5.55796
77 1 -0.675019 11.7838 0.956516 3.80468
80 1 -0.653534 12.4162 3.43115 5.76478
94 2 0.0311025 8.63376 4.1816 6.38578
331 2 0.149544 16.368 0.964253 1.23953
106 2 0.000904442 13.1915 1.56929 7.65191
212 3 -0.859232 4.98677 5.88222 7.52244
335 2 0.152991 13.6004 0.395606 6.45517
150 2 0.178344 6.04345 5.72745 0.588095
163 2 0.144047 15.2593 0.86015 6.45197
164 2 0.149712 15.0717 1.00315 4.55308
165 2 0.182469 12.6629 1.6051 3.68281
167 2 0.157738 11.4095 0.752887 4.88188
174 2 0.165088 11.3967 4.14045 5.82933
175 2 0.171579 12.2001 2.47702 5.09839
176 2 0.182921 13.3189 4.06942 5.42844
204 3 -0.784578 8.41858 1.49887 6.75313
209 3 -0.771998 7.53497 4.02632 2.03956
232 3 -0.82351 9.48896 0.983076 2.28894
233 3 -0.7949 9.40934 2.53466 4.53325
234 3 -0.816728 12.8823 0.912415 0.527519
248 3 -0.855805 7.3942 5.03592 8.052
241 3 -0.821324 11.1493 3.20567 2.48895
242 3 -0.856414 13.2345 3.43465 0.707188
243 3 -0.831639 12.815 5.28728 2.68536
244 3 -0.858689 6.97171 5.79551 4.20716
245 3 -0.788429 11.1187 5.33094 0.682614
246 3 -0.833363 10.957 2.77347 8.37224
247 3 -0.846525 13.3664 4.14944 8.1068
334 2 0.183912 12.0772 0.234154 7.75512
149 2 0.182971 4.75433 6.15201 2.00022
49 4 1.03134 8.32692 6.27771 8.67169
25 4 1.33386 5.94328 4.65771 7.73087
250 3 -0.797599 9.42427 6.5021 5.104
88 2 -0.00567637 15.6018 2.45392 0.938394
109 2 -0.0205971 11.394 6.43655 6.76632
4 4 1.23652 15.2392 0.669466 10.1626
21 4 1.28715 7.79976 2.27813 11.3329
323 2 0.183177 16.0758 0.860697 16.4878
42 4 1.41666 10.1527 1.84356 9.64909
44 4 1.04372 12.7665 2.3692 11.0636
73 1 -0.671429 7.25188 5.11876 13.5754
79 1 -0.670169 8.72224 6.33 10.5387
338 2 0.230144 10.4633 0.675224 12.4041
96 2 -0.00108264 7.76318 3.58171 12.4711
104 2 0.0688098 12.5182 4.29311 10.3827
110 2 0.0240434 13.0189 2.88172 12.8551
341 2 0.172509 9.51491 6.60777 15.2834
154 2 0.127826 7.27168 5.31479 12.3851
155 2 0.258194 8.27387 4.6569 13.9975
156 2 0.175582 6.98083 6.09982 14.0601
171 2 0.173825 8.88472 5.31317 11.0013
360 2 0.270534 8.96039 5.49432 16.8356
193 3 -0.745744 16.0729 0.255785 11.5098
237 3 -0.843225 8.99328 2.76261 10.4393
238 3 -0.811372 8.67407 3.54729 17.2625
239 3 -0.861021 14.0043 1.60589 10.5388
240 3 -0.821194 11.3627 1.65791 10.9598
279 4 1.10826 14.5687 1.49174 14.8565
340 1 -0.644367 9.20609 6.54564 16.4393
281 3 -0.831626 13.8732 2.49688 15.8429
40 4 1.46509 12.714 2.50794 17.3449
304 1 -0.662118 10.124 6.64244 13.3343
300 4 1.29379 9.6922 3.04209 16.1809
301 4 1.03892 10.8841 4.97866 13.8281
302 1 -0.645122 9.02571 1.44411 15.5419
303 1 -0.667792 13.3284 4.32198 11.7347
358 2 0.0426261 13.2006 6.40026 17.2118
306 2 0.188385 9.00302 1.64281 14.3887
280 2 0.0679791 15.682 2.19118 13.7436
308 2 0.157705 13.1911 5.21865 12.4387
313 2 0.116838 10.7386 6.68515 12.286
310 2 -0.00575325 11.4047 4.18027 12.3661
314 3 -0.808446 11.2118 2.7409 16.6662
315 3 -0.793166 9.81996 4.11502 14.4917
316 3 -0.799347 12.1817 5.30963 14.7441
107 2 0.0108977 9.89387 5.66385 9.11234
312 2 0.184376 9.03073 6.7083 13.1834
305 2 0.285192 9.49647 0.344187 15.8947
309 2 0.143933 14.3879 4.23245 11.5367
321 1 -0.67225 16.377 1.13809 15.2954
236 3 -0.816232 9.51681 0.473551 9.01997
298 2 0.0689402 14.2661 4.11873 16.0852
296 4 0.684411 13.4207 5.54828 15.6011
307 2 0.189589 7.93268 1.60885 16.0968
337 2 0.202048 10.4127 0.310429 14.2895
282 3 -0.845621 13.9394 0.246936 14.1994
38 4 1.3069 5.78799 12.8828 0.957202
181 2 0.164235 3.36299 10.1727 6.33009
260 3 -0.818998 9.18062 10.1826 8.27101
50 4 1.22877 10.793 7.33685 5.51943
51 4 1.37253 8.87724 8.73209 1.87274
52 4 1.26129 4.69369 10.6449 2.92324
54 4 1.409 8.91079 9.06689 7.05747
56 4 0.95004 6.74809 10.7781 5.04701
78 1 -0.673527 5.07572 8.65937 7.05222
81 1 -0.6545 10.1934 9.94171 2.56309
82 1 -0.688076 2.64508 10.5376 5.50068
83 1 -0.675695 8.22277 11.5499 4.31155
105 2 0.0928651 7.16643 7.98157 5.48924
111 2 -0.0109212 3.45395 11.3451 3.88698
112 2 -0.0286972 5.84547 11.9994 5.98656
113 2 0.0185398 5.63286 10.2698 7.921
148 2 0.216183 6.38535 7.1703 1.67747
187 2 0.216463 3.8225 10.7703 0.229472
265 3 -0.802774 7.60431 9.4137 6.21162
332 2 0.177608 7.3589 13.058 2.72729
169 2 0.167819 4.29874 9.53632 7.17937
170 2 0.174474 5.40282 8.58437 5.94029
177 2 0.202152 10.4763 9.78952 3.66948
168 2 0.228879 5.91272 8.67893 7.73005
179 2 0.149393 2.61058 11.7266 5.31774
46 4 1.26677 7.98749 7.02014 4.40516
180 2 0.165242 2.70154 9.84671 4.61776
182 2 0.18813 8.12117 11.2217 3.1299
183 2 0.183233 9.10963 11.047 4.8367
333 1 -0.701002 4.45251 12.8166 7.09405
249 3 -0.821286 11.921 7.12978 4.36978
251 3 -0.845445 8.23969 7.93394 3.02424
252 3 -0.786201 9.84197 7.76561 0.833277
253 3 -0.821624 3.93121 9.44433 2.26994
254 3 -0.835489 5.16789 11.8934 1.98866
256 3 -0.816875 7.99872 9.68697 0.904248
355 2 0.160677 3.954 12.0392 6.4689
258 3 -0.834742 8.56233 7.67291 7.89233
259 3 -0.844612 10.3601 8.76537 6.03352
184 2 0.151748 8.10239 12.633 4.56367
264 3 -0.830851 5.843 10.2679 3.88814
361 2 0.171501 9.76072 11.0077 2.33803
41 4 1.07291 5.22253 11.9064 8.65573
166 2 0.196765 3.55611 13.1507 3.16899
261 3 -0.802408 2.81005 9.61328 8.77395
178 2 0.195175 11.0279 9.56831 1.82038
12 4 1.02779 9.00647 10.326 9.82184
43 4 1.34132 4.85018 12.1408 13.5054
53 4 1.29855 7.93013 11.0368 17.2504
55 4 1.40576 3.41241 10.1796 10.2174
57 4 1.30777 3.01144 10.7751 15.5566
58 4 1.21267 6.18751 9.69271 11.6877
357 2 0.113473 11.6948 8.06676 15.7083
72 1 -0.664717 4.68352 7.0858 15.8767
84 1 -0.676934 4.05531 10.2533 17.0595
85 1 -0.676563 6.49535 8.33704 12.9461
345 2 0.196466 6.21328 10.6021 15.3535
108 2 0.0804381 4.12652 7.89759 11.673
346 2 0.163651 6.71301 9.15258 16.4664
336 1 -0.676141 1.77108 13.0406 13.2373
342 2 0.189699 8.4049 7.28564 16.7741
153 2 0.177737 4.59111 8.23078 15.6884
351 2 0.0471524 3.62973 12.7933 12.5745
185 2 0.183257 5.18846 10.1453 16.705
186 2 0.260663 3.58323 9.24423 17.3847
90 2 0.084886 9.4016 12.1808 9.97781
188 2 0.164794 7.66571 8.36944 12.9832
189 2 0.158948 6.03416 7.38861 12.5699
190 2 0.171714 5.99115 8.74649 13.9179
235 3 -0.840717 6.52217 12.5916 9.17076
255 3 -0.821017 9.36351 11.433 16.5978
262 3 -0.795536 4.14811 11.6151 9.8293
356 2 0.185979 2.03481 11.9028 12.9623
267 3 -0.885268 3.92346 11.4582 14.5345
268 3 -0.792038 1.76821 11.9088 16.2822
269 3 -0.748578 7.53128 9.88868 10.6845
270 3 -0.780831 4.73078 9.06078 10.7481
271 3 -0.788736 5.64489 11.055 12.6671
344 2 0.168551 7.97893 9.75206 15.1181
133 2 0.0431943 10.4984 9.39963 10.599
311 2 0.143861 10.5432 7.38258 14.1308
339 1 -0.649461 12.2637 7.89599 16.7793
47 4 1.15832 10.7406 7.00943 17.5545
343 1 -0.654821 7.08272 10.0118 15.8582
322 2 0.2273 8.40394 13.3746 14.7553
172 2 0.129966 7.45821 6.78902 10.678
173 2 0.158357 9.50847 7.00499 10.8988
257 3 -0.79821 6.82228 12.3642 17.5774
152 2 0.135138 5.66275 6.86474 16.4637
ITEM: TIMESTEP
200
ITEM: NUMBER OF ATOMS
362
ITEM: BOX BOUNDS xy xz yz pp pp pp
-8.3819999999999997e+00 1.7255211599999999e+01 -8.3819999999999997e+00
0.0000000000000000e+00 1.3430600000000000e+01 8.3011599999998964e-02
0.0000000000000000e+00 1.7586700000000000e+01 3.0270000000000002e-01
ITEM: ATOMS id type q x y z
13 4 1.62285 8.14422 0.135867 1.86974
2 4 1.02606 -0.674373 2.78187 5.14455
5 4 1.18688 2.48114 2.34264 6.26791
7 4 0.701672 -1.02716 3.74117 1.94608
14 4 1.49554 5.02102 2.56662 4.41474
23 4 1.05859 2.87522 6.03756 4.23793
59 1 -0.665508 2.43281 0.822104 2.6992
60 1 -0.645282 -0.9758 4.26799 6.33364
61 1 -0.662359 2.13344 3.62245 7.59154
211 3 -0.790021 3.61571 6.35736 5.60798
69 1 -0.628288 0.0255101 5.31827 1.44523
87 2 0.0527933 -1.81628 5.36572 1.48284
353 2 0.176436 6.0177 0.590474 7.69235
93 2 0.0946649 3.81598 4.67144 3.69775
62 1 -0.675861 -2.76585 6.42672 4.7039
116 2 0.180502 2.32907 1.94558 3.11891
145 2 0.175032 0.19955 6.28208 3.88939