ITEM: TIMESTEP
0
ITEM: NUMBER OF ATOMS
271
ITEM: BOX BOUNDS xy xz yz pp pp pp
-7.2018999999999993e+00 1.4748699999999999e+01 -6.1971999999999996e+00
-1.8419940000000001e+00 1.3297482000000000e+01 -1.0046999999999999e+00
0.0000000000000000e+00 1.6609600000000000e+01 -1.8419940000000001e+00
ITEM: ATOMS id type x y z
3 4 1.0968 1.1334 5.27303
4 4 0.355197 3.40453 7.34377
125 1 3.16843 3.88825 0.182045
21 4 3.10061 5.74583 4.99939
41 2 2.6579 1.00176 4.64074
50 2 3.80822 2.68165 1.41461
52 2 3.05492 4.08141 5.4056
246 2 2.79129 0.0256009 3.18949
69 2 -0.965068 5.49409 7.24335
68 2 0.0619096 5.47087 5.66455
227 4 1.36534 2.39302 0.516178
231 3 -0.121815 2.67372 0.232218
83 2 0.465827 4.53987 2.54999
84 2 -0.138688 5.57897 0.991871
120 1 -0.635034 4.92923 6.32568
126 1 -0.0121619 5.57031 2.14352
138 3 0.105318 1.37475 4.01972
139 3 0.881637 -0.126433 6.1125
140 3 1.0408 2.37863 6.25533
229 2 1.85119 3.55969 1.65928
204 2 4.52779 3.34268 4.65667
155 3 2.25549 5.83741 3.63431
201 2 5.2238 0.224342 3.17891
202 2 3.88966 1.56364 3.66047
203 2 3.93602 -0.18929 4.48871
206 2 3.53739 2.71278 6.11224
213 1 4.49928 0.625678 3.96848
218 3 5.74843 0.616456 6.87489
67 2 -1.5058 4.46617 5.81626
193 4 5.68509 1.38955 5.44915
230 3 1.76633 0.961916 1.02395
255 2 -1.92357 4.2238 2.23269
80 2 2.83199 5.0158 0.490896
18 4 5.17819 3.90938 1.15868
65 2 -1.76127 3.05871 8.13779
214 1 4.59888 2.92569 5.73668
82 2 -0.942165 5.8854 2.68814
14 4 6.27071 -0.675646 7.68226
74 2 3.09618 2.90157 8.12832
149 3 2.54464 -0.183441 8.3004
15 4 3.0767 0.84269 9.5001
17 4 5.14293 0.71124 11.7994
151 3 5.19808 -0.274209 13.1107
42 2 -0.427106 3.55297 12.095
48 2 1.98768 2.20282 9.79488
266 2 3.7302 3.21178 16.5742
119 1 -0.831603 2.50336 8.4838
66 2 -0.443938 2.87586 9.49222
153 3 1.32398 4.23901 8.40746
141 3 -2.2241 4.81597 10.559
76 2 3.9874 3.33927 9.68621
75 2 4.73626 2.04668 8.52003
81 2 2.65446 1.97665 15.7388
270 2 -0.786621 -0.00976425 9.289
91 2 1.74055 4.32686 15.1561
123 1 3.73892 2.52433 9.01121
228 2 1.3348 0.861677 15.5995
150 3 3.8747 0.358919 10.7887
64 2 -1.00319 1.33876 8.3882
6 4 -0.828491 5.15186 11.3853
19 4 1.46797 6.62448 2.48125
2 4 -4.06344 12.1334 7.08815
8 4 -1.9272 8.3283 6.5552
9 4 -2.55739 10.4563 4.59108
253 2 -2.0123 12.372 1.37198
61 2 -4.86224 9.74515 7.16564
239 2 -3.46748 9.18042 0.562742
25 4 -0.0246406 11.0819 2.99406
27 4 1.83469 7.6892 6.99093
29 4 1.55936 10.6498 5.76581
44 2 -1.02309 6.87289 6.30418
45 2 -3.3708 7.64246 7.03032
51 2 0.638112 8.01512 3.17272
60 2 -3.05272 11.0724 0.0839046
171 3 0.95359 11.6621 6.76982
170 3 1.27843 9.02732 6.28828
93 2 -0.56868 8.61917 2.25415
94 2 1.15988 9.17638 1.89761
95 2 -0.208092 9.81307 0.956142
117 1 -2.85287 12.172 0.41836
118 1 -5.18333 10.7238 7.62754
130 1 0.105113 9.44358 1.92925
142 3 -5.06935 11.6411 2.02971
143 3 -3.93151 10.0529 3.85182
144 3 -2.02989 9.03621 5.16613
145 3 -3.02341 11.5425 5.91946
159 3 2.41928 6.94201 1.08898
160 3 0.370383 12.4136 2.11766
161 3 -1.58919 11.1823 3.51178
166 3 -1.40554 9.24045 7.70449
24 4 3.45385 7.81446 0.114997
260 2 -5.98016 11.8455 5.22285
169 3 1.05181 10.8629 4.19409
165 3 2.34355 6.57889 6.08401
1 4 -4.17004 12.8708 1.65287
238 2 -5.35153 9.94218 15.7865
167 3 -0.979763 11.7468 8.44581
10 4 -2.28218 7.15701 13.2196
11 4 -3.11252 9.60635 11.2979
16 4 -0.326979 11.6432 13.6345
28 4 -1.08732 10.1977 8.99046
30 4 -1.18158 9.22488 15.1138
43 2 -2.02058 6.79414 8.76734
46 2 -3.71666 6.3226 13.5203
47 2 -4.87232 9.84286 11.1954
31 4 1.14388 10.0713 11.2562
129 1 2.48882 5.21354 14.995
240 1 -4.59966 7.42253 16.0506
63 2 -5.09998 10.7969 8.73562
72 2 -3.51856 10.8649 13.1864
267 2 2.23586 5.98246 14.2096
99 2 1.6921 7.59768 11.3951
100 2 0.146578 8.18302 12.4205
121 1 -3.81676 11.1556 12.098
175 3 0.139607 9.88873 9.94676
132 1 1.24724 8.38619 12.1174
262 2 -3.76363 8.01267 15.5541
146 3 -1.2758 6.13852 12.5501
147 3 -2.69607 8.4261 12.2426
176 3 0.539075 10.9655 12.4225
70 2 -4.9588 11.4949 12.1347
157 3 2.84991 6.06733 9.91386
168 3 -2.44636 10.0427 9.96577
172 3 -1.74103 7.78102 14.5206
173 3 0.161766 9.10912 15.7974
174 3 -1.34557 10.5326 14.2682
252 2 -3.86064 11.0948 16.2248
20 4 1.32897 5.7696 9.27589
5 4 -3.05799 5.67605 9.40188
101 2 1.92779 8.50552 13.0583
154 3 0.299754 5.55926 10.4611
164 3 0.858059 6.9609 8.32105
55 2 -2.23592 9.43154 16.5066
71 2 -3.0931 11.9959 11.6835
268 2 13.7112 -0.325122 7.37231
226 3 11.0921 4.77616 8.2178
256 2 11.0615 4.40572 1.69356
73 2 9.13279 3.04838 0.405685
105 2 7.31991 3.87007 4.38122
257 1 12.0975 3.89338 1.49846
224 3 11.1736 0.27619 7.1867
111 2 8.57676 5.69319 1.7722
33 4 5.88861 5.74204 3.78305
106 2 7.07253 4.83322 5.88777
222 3 12.4333 1.1574 5.00876
152 3 6.35469 3.11856 0.528433
177 3 5.4772 4.68583 2.54747
192 4 13.3008 1.29926 3.67974
223 3 9.82241 0.799401 4.82493
194 4 8.62148 1.38811 4.0185
196 4 11.0855 1.20386 5.78135
197 4 10.2593 3.81082 7.27655
212 2 7.81754 4.35109 7.99662
199 2 8.92926 2.96294 3.86378
200 2 8.89323 4.54588 6.42839
205 2 5.27473 3.46949 6.46646
217 1 8.45149 3.39978 7.90661
225 3 10.8949 2.78534 6.27144
247 2 11.933 2.25688 1.39825
198 2 12.7892 2.76734 2.90737
219 3 12.8507 0.0739894 2.69533
220 3 8.58388 0.907873 2.47505
221 3 7.17473 1.39593 4.77438
134 1 7.2207 4.87354 4.76814
107 2 8.10998 5.55701 4.46717
211 2 7.97539 2.57106 7.34258
113 2 8.16715 6.51503 0.0441233
22 4 5.82944 3.96164 11.9337
148 3 6.60434 -1.11977 16.4302
57 2 8.64694 5.12655 11.2564
77 2 6.42963 1.11719 9.68937
49 2 7.0568 -1.34693 14.8352
79 2 7.58606 0.910086 11.2488
53 2 6.05493 4.41453 13.7631
86 2 8.23707 3.97603 13.4447
122 1 7.66881 1.36075 15.1935
124 1 6.6863 0.516791 10.6021
127 1 7.55662 4.50531 12.7651
158 3 5.06064 5.0357 11.0992
195 4 11.4171 -0.389565 8.59098
207 2 11.5282 0.390773 10.8945
208 2 9.80292 0.526128 10.1547
209 2 11.2056 1.74546 9.57526
210 2 9.02941 2.91495 8.93339
254 2 11.4427 2.90837 16.5585
215 1 10.9298 0.73865 9.99395
249 2 7.37635 -0.0900264 8.83146
92 2 3.63826 4.89498 15.0715
233 4 11.3437 -0.726773 14.0201
234 2 10.1289 -0.244188 12.9322
235 3 11.4202 0.410482 15.1946
85 2 7.59475 3.69623 11.2549
265 2 8.58308 0.834665 14.9854
248 2 6.67819 1.07601 14.3782
264 2 7.7784 2.46881 15.3847
216 1 13.4638 -0.62738 8.50512
236 3 12.6429 -0.939609 13.1477
156 3 5.23298 2.31153 11.9839
13 4 6.55924 0.467311 16.5259
78 2 6.55212 -0.649747 10.424
232 4 11.9607 1.15761 16.5671
112 2 9.66391 7.11943 1.09731
12 4 1.7735 13.0627 1.48078
32 4 5.71965 12.2407 2.11632
36 4 7.55256 7.84214 1.96461
7 4 9.36748 10.2977 3.22705
110 2 7.79284 9.73093 8.07577
96 2 3.46177 12.1837 5.41876
97 2 3.87555 10.29 5.33062
98 2 3.86564 11.1449 7.04695
102 2 5.72557 10.2794 3.49392
103 2 4.1501 11.4331 3.58525
104 2 5.68633 11.7883 4.74952
259 2 7.27033 10.9088 4.32733
109 2 5.95539 9.61471 7.83055
261 1 8.41252 10.8443 4.71528
114 2 4.22018 7.7328 7.11914
178 3 4.60467 6.22528 4.81247
116 2 3.59343 9.53349 7.22598
131 1 3.41563 11.1133 5.96224
133 1 5.35689 11.3253 3.73327
136 1 8.62919 6.62754 1.09166
137 1 3.49187 8.41617 7.64602
163 3 2.99028 11.9589 1.11777
250 2 4.39753 12.9005 1.29374
182 3 6.79503 7.14516 3.16166
183 3 8.61709 9.07241 2.63815
184 3 6.35255 8.5139 0.688538
185 3 6.41876 11.2212 1.12029
62 2 8.56741 11.1962 7.18417
258 2 8.56788 10.0025 5.44424
56 2 6.50355 8.00487 6.90849
54 2 5.01466 7.54621 0.877991
37 4 6.75238 10.0751 0.0564527
23 4 4.36564 6.26 10.3479
26 4 1.63391 9.02933 16.212
263 2 9.95608 6.46837 15.5056
34 4 6.63059 7.32188 8.51173
35 4 8.99199 6.58494 10.3414
38 4 4.1075 10.4914 10.244
39 4 7.79085 8.52062 12.3501
40 4 6.51171 11.2938 11.8063
58 2 4.60032 8.88089 10.0108
59 2 6.32857 7.64132 12.3728
269 2 7.42223 11.5988 8.80727
88 2 3.25276 8.0569 11.8395
89 2 5.14227 8.71704 11.6148
90 2 4.82835 6.97872 12.4858
237 4 8.63865 8.45473 15.3655
271 3 7.27029 8.22292 16.186
128 1 4.46589 7.81428 11.6747
108 2 6.6553 9.32753 9.6247
245 3 2.62593 9.66457 15.0698
179 3 5.29948 6.83421 9.23349
87 2 7.79381 5.59175 12.5744
181 3 7.94271 6.53971 8.97189
186 3 4.4618 11.3159 8.88417
187 3 2.54392 10.3934 10.6062
188 3 8.80672 7.87642 11.2821
189 3 8.46757 8.41504 13.8175
190 3 5.03618 11.1506 11.3865
191 3 7.27873 9.94715 11.981
241 4 4.13739 9.72987 14.6774
242 2 4.22941 9.19716 13.06
243 3 4.92716 8.61892 15.3605
244 3 4.72632 11.181 14.6959
180 3 10.4441 6.4683 9.92091
115 2 3.42794 8.30894 8.7824
162 3 2.05036 7.51274 16.4764
135 1 6.82307 9.22702 8.39919
251 2 7.18533 12.1156 10.3703
ITEM: TIMESTEP
100
ITEM: NUMBER OF ATOMS
271
ITEM: BOX BOUNDS xy xz yz pp pp pp
-7.2018999999999993e+00 1.4748699999999999e+01 -6.1971999999999996e+00
-1.8419940000000001e+00 1.3297482000000000e+01 -1.0046999999999999e+00
0.0000000000000000e+00 1.6609600000000000e+01 -1.8419940000000001e+00
ITEM: ATOMS id type x y z
3 4 1.04861 1.28122 5.27708
4 4 0.33105 3.56815 7.35561
125 1 3.24575 3.61995 0.10805
21 4 3.02911 5.73326 4.93125
41 2 2.7209 1.2148 4.86477
50 2 3.88558 2.57604 1.49415
52 2 2.98026 4.16599 5.62666
246 2 3.0159 -0.230688 3.30643
69 2 -1.63594 5.30537 6.83585
68 2 0.0658686 5.72514 6.13772
227 4 1.45843 2.30167 0.496984
231 3 0.038812 2.79924 0.179225
83 2 -0.0748206 5.02292 3.12154
84 2 0.0549422 5.18744 1.22289
120 1 -0.712208 4.92329 6.33406
126 1 -0.114403 5.75202 2.17462
138 3 0.142189 1.43738 3.97375
139 3 0.778241 -0.108084 5.89867
140 3 0.890568 2.54992 6.24942
229 2 2.02748 3.44275 1.66863
204 2 4.51675 3.35929 4.51681
155 3 2.37264 5.76362 3.47668
201 2 5.18799 0.107805 3.44293
202 2 3.9366 1.56387 3.91335
203 2 3.926 -0.0986594 4.97592
206 2 3.72004 2.61384 6.14597
213 1 4.49658 0.634466 4.2292
218 3 5.76037 0.698342 6.97142
67 2 -0.934682 4.43931 5.36865
193 4 5.80301 1.48413 5.59383
230 3 1.84282 0.875216 1.18622
255 2 -2.16139 4.19984 2.21051
80 2 2.95078 4.62057 0.268373
18 4 5.15279 3.87756 1.25024
65 2 -1.85872 3.00437 7.94956
214 1 4.67825 3.02599 5.60205
266 2 4.56649 5.05951 0.133161
14 4 6.36034 -0.591158 7.76764
74 2 3.11944 2.78282 7.79592
82 2 -1.01548 6.38315 2.17532
149 3 2.63495 -0.24804 8.18824
254 2 -2.20712 4.83081 0.127239
15 4 3.16855 0.83389 9.43415
17 4 5.22144 0.780507 11.7614
151 3 5.45357 -0.227896 13.1441
42 2 -0.199199 3.73637 12.2881
48 2 1.99648 2.07883 9.81353
5 4 -2.8788 5.56491 9.30493
119 1 -0.888203 2.5631 8.49535
66 2 -0.681283 2.95384 9.51629
153 3 1.40485 4.4638 8.34297
141 3 -2.11389 4.61475 10.4494
76 2 3.5441 3.36634 9.55833
75 2 4.79855 2.16151 8.54706
81 2 2.63299 1.67379 15.6492
270 2 -0.657687 -0.240472 9.53376
91 2 1.68685 4.4159 14.9889
123 1 3.60661 2.51305 8.73161
228 2 1.29837 0.62348 15.5389
150 3 3.78587 0.405104 10.8813
64 2 -0.879785 1.45193 8.4015
6 4 -0.891542 5.07841 11.442
19 4 1.47209 6.71136 2.49744
2 4 -4.09165 12.147 6.96536
8 4 -1.86336 8.28606 6.54799
9 4 -2.55921 10.4397 4.69177
253 2 -1.98665 12.0468 1.31152
61 2 -4.15759 9.77375 7.11144
239 2 -3.71706 9.18641 0.491053
25 4 0.0885425 11.1008 3.11738
27 4 1.6651 7.67665 7.011
29 4 1.63484 10.672 5.81326
44 2 -0.819698 6.91821 6.39566
45 2 -3.26683 7.45422 6.73065
51 2 0.916691 8.20568 3.22646
1 4 -4.05964 12.7547 1.83493
171 3 1.03918 11.8759 6.79199
170 3 1.37673 9.19477 6.35519
93 2 -0.386623 8.69137 2.22114
94 2 1.31755 9.30097 1.7118
95 2 -0.161719 10.0194 1.00244
117 1 -2.95706 11.943 0.458611
118 1 -4.88018 10.5407 7.55486
130 1 0.253872 9.56426 1.91694
142 3 -5.20376 11.728 2.17078
143 3 -4.01999 10.1606 3.98095
144 3 -1.89856 9.04381 5.21914
145 3 -2.91773 11.6493 5.88966
159 3 2.31377 6.89009 1.0607
160 3 0.314817 12.4212 2.05027
161 3 -1.43801 11.1461 3.60564
166 3 -1.56308 9.11414 7.78986
24 4 3.41422 7.86326 0.173047
164 3 0.867067 6.97265 8.20183
169 3 1.25821 10.9311 4.23162
165 3 2.14998 6.63147 5.88291
60 2 -3.28533 10.8504 0.129918
238 2 -5.46023 9.95024 15.756
167 3 -0.797225 11.7207 8.50911
10 4 -2.3408 7.17879 13.1096
11 4 -3.24643 9.51585 11.2054
16 4 -0.261366 11.582 13.5704
28 4 -1.2449 10.1412 9.01193
30 4 -1.19834 9.23486 15.1044
43 2 -1.70999 6.60916 8.73793
46 2 -3.63188 6.21872 13.5567
47 2 -4.98463 9.94502 11.2266
31 4 0.977035 9.92518 11.2306
129 1 2.30708 5.34798 15.0543
240 1 -4.82367 7.22784 15.9608
63 2 -4.93559 10.5919 8.68387
72 2 -2.91726 10.8788 13.1247
267 2 1.78951 6.30878 14.5417
99 2 1.5365 7.45538 11.3687
100 2 0.179226 7.99557 12.5178
121 1 -3.79772 11.0069 12.2753
175 3 0.0580681 9.67672 9.80848
132 1 1.23062 8.25551 12.1271
262 2 -3.93929 7.69243 15.3587
146 3 -1.21629 6.14346 12.6301
147 3 -2.91147 8.29805 12.0879
176 3 0.457375 11.0574 12.2
70 2 -4.80485 10.9493 12.6727
157 3 2.90614 5.98765 9.87588
168 3 -2.46893 10.0522 9.99949
172 3 -1.96597 7.93009 14.498
173 3 0.256848 9.05802 15.7111
174 3 -1.40279 10.4953 14.1814
252 2 -4.02728 10.9701 16.2758
20 4 1.40879 5.72918 9.33945
55 2 -2.1606 9.66683 16.5113
154 3 0.265637 5.5837 10.5013
180 3 -4.02871 6.47 9.8865
101 2 1.93147 8.41107 12.9595
71 2 -3.70576 11.9113 11.6102
211 2 7.87724 3.11606 7.00373
226 3 11.3733 4.69998 8.12127
256 2 10.9888 3.97661 1.43789
73 2 9.28711 3.05387 0.437571
105 2 7.05554 3.82277 4.19541
257 1 12.0434 3.71152 1.37831
224 3 11.0404 0.298795 7.26438
111 2 8.52464 5.6254 2.08377
33 4 5.80401 5.82322 3.78995
106 2 7.07485 4.82101 5.84293
222 3 12.4836 1.1496 5.01455
152 3 6.4828 3.19461 0.613709
177 3 5.26037 4.69198 2.61432
192 4 13.3165 1.32164 3.69002
223 3 9.70056 0.68629 4.78162
194 4 8.61692 1.56403 3.99875
196 4 11.0475 1.16061 5.76492
197 4 10.2882 3.77144 7.22573
113 2 8.56584 6.36259 0.310384
199 2 9.23104 3.087 3.84325
200 2 8.9939 4.84102 6.72146
205 2 5.10802 3.88447 6.16239
217 1 8.49545 3.40445 7.95664
225 3 10.6912 2.80774 6.08726
247 2 12.166 1.87826 1.17766
198 2 12.8909 2.82019 2.88416
219 3 12.7123 0.189825 2.68623
220 3 8.44414 0.929106 2.5332
221 3 7.1555 1.71142 4.80989
134 1 7.11174 4.84607 4.70479
107 2 8.06174 5.37445 4.40396
268 2 13.9094 -0.208845 7.72535
22 4 6.00829 3.93434 11.9165
148 3 6.78565 -1.08044 16.4505
57 2 8.68725 5.34072 11.2743
77 2 6.59712 1.34781 9.84157
49 2 7.04059 -1.48054 14.892
79 2 7.79996 0.916996 11.2839
53 2 6.1915 4.63087 13.7498
86 2 8.47127 4.15892 13.4048
122 1 7.69456 1.51219 15.1952
124 1 6.86704 0.615983 10.7324
127 1 7.61677 4.59686 12.7722
158 3 5.24797 5.02475 11.0877
195 4 11.4062 -0.3709 8.63529
207 2 12.2085 0.97898 10.2564
208 2 10.3626 0.0567161 10.7032
209 2 10.3771 1.63204 9.6036
210 2 9.04554 2.45502 8.58797
78 2 6.8808 -0.505519 10.5628
215 1 10.9815 0.716866 9.96084
249 2 7.41234 0.0363996 8.96529
232 4 12.0145 1.13503 16.5297
233 4 11.1785 -0.725205 14.0741
234 2 9.83226 -0.247713 13.1722
235 3 11.2918 0.5056 15.0135
85 2 7.76301 3.66819 11.2599
265 2 8.84877 1.24863 15.0323
248 2 7.00633 1.02854 14.3553
264 2 7.52213 2.60802 15.2395
216 1 13.5429 -0.668394 8.64554
236 3 12.5804 -0.776451 13.0322
156 3 5.4208 2.31124 12.0429
13 4 6.74856 0.538259 16.5419
251 2 13.3779 -1.06937 10.5799
212 2 8.01213 4.05816 8.70103
112 2 9.86581 6.93344 1.59239
12 4 1.74092 13.1208 1.52189
32 4 5.79152 12.1811 2.17053
36 4 7.67896 7.83781 2.08589
7 4 9.33793 10.3618 3.28524
110 2 8.07173 9.77129 8.19952
96 2 3.66695 11.9342 5.54009
97 2 4.08142 10.0483 5.42332
98 2 3.84325 10.8672 7.16267
102 2 5.32996 10.0643 3.50876
103 2 3.87836 11.3254 3.33761
104 2 5.34589 11.5879 4.55753
259 2 6.96799 11.0104 4.30101
109 2 6.18605 9.88769 7.91022
261 1 8.08518 10.8518 4.6387
114 2 3.98838 7.18264 7.40967
178 3 4.53916 6.18167 4.92715
116 2 3.72658 9.07647 7.42139
131 1 3.51771 10.8606 6.01653
133 1 5.0311 11.1558 3.57211
136 1 8.83873 6.53048 1.42922
137 1 3.39115 8.07496 7.77597
163 3 2.83111 11.9531 1.38925
250 2 4.35744 12.6868 1.42475
182 3 6.62974 7.08199 2.97315
183 3 8.68465 8.94798 2.67191
184 3 6.56347 8.4237 0.69701
185 3 6.44653 11.126 1.10771
62 2 8.80699 10.7558 6.96183
258 2 8.11709 9.94215 5.33144
56 2 6.544 8.17806 7.02665
54 2 5.00003 7.6633 0.764269
37 4 6.76047 9.99592 0.0157675
260 2 8.62729 11.7928 5.08431
162 3 3.07907 9.40137 0.108971
23 4 4.42416 6.24144 10.395
26 4 1.65559 9.09845 16.3226
263 2 9.55685 6.24549 15.663
34 4 6.75476 7.47916 8.62939
35 4 9.14739 6.6331 10.232
38 4 3.96252 10.4225 10.2866
39 4 7.64358 8.463 12.2152
40 4 6.35621 11.3785 11.8331
58 2 4.70527 8.93924 10.1463
59 2 6.36866 7.34559 12.1089
269 2 7.34667 11.5042 8.48996
88 2 3.25488 8.00169 11.8031
89 2 5.16337 8.6014 11.8572
90 2 4.75493 6.84325 12.5556
237 4 8.57392 8.39778 15.2415
271 3 7.28354 8.1373 16.1257
128 1 4.4611 7.73294 11.7253
108 2 6.83712 9.47964 9.73406
245 3 2.58361 9.78968 15.0869
179 3 5.43779 6.85448 9.18115
87 2 7.69214 5.67655 12.6
181 3 8.24513 6.79527 8.81053
186 3 4.28977 11.1529 8.87873
187 3 2.49508 10.3183 10.6923
188 3 8.62949 7.98782 11.0195
189 3 8.32324 8.30873 13.6436
190 3 4.84416 11.182 11.4515
191 3 7.12683 9.93116 11.9514
241 4 4.04269 9.65492 14.5648
242 2 3.87381 9.23523 12.8918
243 3 4.84182 8.4938 15.1471
244 3 4.60191 11.0998 14.7785
92 2 3.48373 5.25939 14.9109
115 2 3.23882 8.04502 8.89732
135 1 7.00816 9.37255 8.50604
ITEM: TIMESTEP
200
ITEM: NUMBER OF ATOMS
271
ITEM: BOX BOUNDS xy xz yz pp pp pp
-7.2018999999999993e+00 1.4748699999999999e+01 -6.1971999999999996e+00
-1.8419940000000001e+00 1.3297482000000000e+01 -1.0046999999999999e+00
0.0000000000000000e+00 1.6609600000000000e+01 -1.8419940000000001e+00
ITEM: ATOMS id type x y z
3 4 1.04757 1.21414 5.26876
4 4 0.234354 3.52367 7.35591
14 4 6.3702 -0.646579 7.82128
21 4 3.02206 5.77575 4.93472
41 2 2.63442 1.19208 4.52035
50 2 4.10357 2.4838 1.32036
52 2 3.27919 4.19929 5.52072
74 2 2.85595 2.81459 7.68094
69 2 -1.52394 5.29047 6.97555
68 2 -0.0558524 5.71344 5.95659
227 4 1.44223 2.28131 0.552934
231 3 -0.0337899 2.5887 0.256402
83 2 -0.503787 5.42968 3.05132
84 2 0.0695752 5.19652 1.17732
120 1 -0.757654 4.9207 6.2797
126 1 -0.231263 5.94774 1.99385
138 3 0.0458872 1.41793 4.07158
139 3 0.772562 -0.11061 6.0688
140 3 0.920973 2.42828 6.42264
229 2 2.08035 3.63077 1.57882
204 2 4.63079 3.24688 4.8109
155 3 2.18923 5.62294 3.4854
201 2 5.2349 0.371776 3.42215
202 2 3.92811 1.59989 3.84821
203 2 4.04215 -0.181813 4.87522
206 2 3.82416 3.04417 6.63817
213 1 4.51262 0.704678 4.2372
218 3 5.8428 0.605809 6.96823
67 2 -1.22688 4.28349 5.42382
193 4 5.86007 1.50368 5.70839
230 3 1.79945 0.834566 1.2807
149 3 2.61767 -0.19317 8.19035
80 2 2.82713 4.4934 0.135676
18 4 5.22981 3.84734 1.1808
214 1 4.79795 3.04674 6.00547
125 1 3.22845 3.46992 0.0262587
254 2 -2.12993 4.61221 0.0456454
246 2 3.27269 -0.33294 3.17285
15 4 3.0533 0.816908 9.41781
17 4 5.27448 0.749564 11.8135
151 3 5.3557 -0.264425 13.1565
42 2 -0.52816 3.87465 12.3624
48 2 1.82081 2.01495 9.67881
5 4 -2.85236 5.52307 9.39127
119 1 -0.855476 2.57326 8.59184
66 2 -0.427608 2.93802 9.60744
153 3 1.24576 4.25482 8.4129
141 3 -2.1999 4.62422 10.5639
76 2 3.48338 3.23115 9.496
75 2 4.54039 2.2111 8.30679
81 2 2.55052 1.46325 15.6427
270 2 -0.664402 -0.289273 9.39939
91 2 1.42813 4.61182 15.0048
123 1 3.49117 2.4866 8.66399
228 2 1.17791 0.580542 15.5269
150 3 4.04031 0.473375 10.6423
64 2 -1.06558 1.33392 8.6127
6 4 -0.803427 5.17976 11.5083
71 2 2.0903 -1.25088 11.8469
266 2 3.59854 3.01698 16.539
65 2 -1.82058 3.1065 8.4332
19 4 1.50753 6.57518 2.39903
2 4 -4.01042 12.3052 6.92489
8 4 -1.99572 8.32326 6.53454
9 4 -2.48359 10.4507 4.65926
253 2 -2.23835 11.5443 1.43005
61 2 -3.86738 10.0526 7.62179
60 2 -3.26275 10.4788 0.131981
25 4 0.187466 11.06 3.04094
27 4 1.83594 7.71694 7.11409
165 3 2.07053 6.54336 5.96001
44 2 -1.09555 6.84911 6.36061
45 2 -3.56906 7.76987 6.76293
51 2 0.754505 7.93789 3.10074
1 4 -4.12538 12.6974 1.93652
82 2 -0.938881 6.68124 1.65496
170 3 1.32401 9.15775 6.44676
93 2 -0.500188 8.80843 2.4016
94 2 1.40597 9.12464 1.89535
95 2 -0.135996 10.0273 0.935396
117 1 -3.16441 11.5686 0.668944
118 1 -4.84255 10.6838 7.54094
130 1 0.287755 9.52967 1.95587
142 3 -5.31269 11.7537 2.3869
143 3 -3.88849 10.1637 3.95715
144 3 -1.93655 9.04504 5.16303
145 3 -2.86006 11.8515 5.7954
159 3 2.52993 7.15468 1.05787
160 3 0.30729 12.5494 1.86432
161 3 -1.26484 11.1223 3.63787
166 3 -1.53101 9.21024 7.75801
24 4 3.45256 7.94434 0.130566
169 3 1.26162 10.9437 4.2338
238 2 -5.0425 9.63213 15.4998
167 3 -0.791205 11.6471 8.59267
10 4 -2.47274 7.25618 13.0869
11 4 -3.35166 9.63054 11.1816
16 4 -0.167051 11.5694 13.5898
28 4 -1.2214 10.172 8.98271
30 4 -1.34957 9.28362 15.0913
43 2 -1.58997 6.48753 8.75705
46 2 -3.8491 6.48721 13.6086
47 2 -5.09803 9.9209 11.0894
31 4 1.03449 9.82646 11.1035
129 1 2.1935 5.45031 14.9937
240 1 -4.90923 6.97604 15.6794
63 2 -5.27889 11.0199 8.52982
72 2 -3.21418 10.9764 13.0811
267 2 1.92553 6.43934 14.4618
99 2 1.48522 7.35186 11.4987
100 2 0.0994464 8.04184 12.5287
121 1 -4.15881 11.0173 12.2964
175 3 -0.145007 9.45169 9.98421
132 1 1.12705 8.20646 12.1231
262 2 -3.85469 7.25849 15.8186
146 3 -1.45551 6.2343 12.4346
147 3 -2.94925 8.4171 12.0843
176 3 0.579684 10.7317 12.3563
70 2 -5.19263 10.7634 12.7991
157 3 3.003 6.02543 9.81815
168 3 -2.63317 10.1078 9.91911
172 3 -1.92978 7.97571 14.4172
173 3 0.0653101 9.04608 15.7055
174 3 -1.36921 10.6369 14.2708
252 2 -4.07701 10.5537 16.4649
20 4 1.48718 5.69373 9.30118
55 2 -2.43226 9.72748 16.3277
154 3 0.490179 5.53012 10.5734
180 3 -3.90656 6.56943 9.84928
101 2 1.85224 8.41016 13.0251
92 2 3.26744 5.04997 14.8654
164 3 1.05751 6.99273 8.40522
211 2 7.72793 3.1829 7.45926
226 3 11.3675 4.54948 8.11605
256 2 10.8227 3.8375 1.33939
73 2 9.34252 3.19311 0.630776
105 2 7.15182 3.9012 4.79196
257 1 11.9262 3.5773 1.36531
224 3 11.0536 0.388051 7.15083
111 2 8.23569 5.46852 1.84871
33 4 5.81071 5.83564 3.7789
106 2 6.96681 5.31477 6.01984
222 3 12.3836 1.17446 4.99016
152 3 6.55537 3.21879 0.615281
177 3 5.37997 4.67202 2.54849
192 4 13.2648 1.15572 3.68762
223 3 9.79611 0.475939 4.80101
194 4 8.59337 1.54654 4.02572
196 4 10.9195 1.23806 5.71238
197 4 10.1773 3.95353 7.17278
255 2 12.4326 4.11546 2.23913
199 2 9.30679 3.10189 3.73312
200 2 8.84084 5.03065 6.84772
205 2 5.687 3.6995 6.47607
217 1 8.55759 3.57647 8.11808
225 3 10.5379 2.96264 5.93827
247 2 11.9962 1.95135 1.42893
198 2 12.9065 2.60679 2.76816
219 3 12.8111 -0.0277006 2.73397
220 3 8.27292 1.01756 2.56513
221 3 7.27956 1.86763 4.88962
134 1 7.11102 5.07797 4.91036
107 2 8.03434 5.59082 4.42015
268 2 13.6704 -0.227944 7.57252
13 4 7.80717 2.54634 0.0222833
136 1 8.82854 6.39297 1.50991
12 4 7.9049 -0.083969 1.49045
113 2 9.01139 6.39628 0.433182
22 4 6.04581 3.81909 12.0291
148 3 6.92004 -0.917757 16.4135
57 2 8.74823 5.22931 10.8816
77 2 6.87494 1.22264 10.0597
49 2 7.14036 -1.43058 14.8372
79 2 7.90886 0.461735 11.481
53 2 6.55166 4.49416 13.7556
86 2 8.73996 4.33559 13.1076
122 1 7.78396 1.77453 15.3697
124 1 6.90673 0.388903 10.9178
127 1 7.83425 4.61902 12.5349
158 3 5.2049 4.91837 11.2086
195 4 11.3265 -0.264997 8.58065
207 2 12.1166 1.08869 10.2644
208 2 10.6498 0.0719284 10.905
209 2 10.2498 1.6184 9.78268
210 2 9.25562 2.79911 8.85757
78 2 6.58862 -0.668056 10.4882
215 1 10.9877 0.735096 10.0939
249 2 7.41517 0.0222184 8.97115
232 4 12.0489 1.07986 16.5184
233 4 11.1515 -0.757032 14.2103
234 2 9.82846 -0.381443 13.2484
235 3 11.304 0.374179 15.1964
85 2 7.70147 3.81155 11.1009
265 2 8.70969 1.3021 15.0582
248 2 7.0045 1.67765 14.498
264 2 7.93147 2.8821 15.6752
216 1 13.3831 -0.650218 8.5348
236 3 12.4624 -0.964147 13.1264
156 3 5.64518 2.35834 12.3042
212 2 8.10925 4.34976 8.80005
251 2 13.4009 -1.06454 10.4587
112 2 9.75967 6.47671 2.11566
62 2 9.17131 10.2333 6.78859
32 4 5.73904 12.2223 1.96043
36 4 7.6158 7.77764 2.00135
7 4 9.30545 10.3934 3.33789
110 2 8.15479 9.81749 8.05738
96 2 3.76838 12.0301 5.4447
97 2 4.15845 10.1555 5.42589
98 2 3.84597 11.0217 7.14291
102 2 5.54793 10.13 3.33273
103 2 3.91205 11.2496 3.01565
104 2 5.33151 11.8194 4.35108
259 2 7.00571 10.948 4.08933
109 2 6.24875 9.83892 7.81072
261 1 8.11166 10.7882 4.67371
114 2 4.26327 7.34083 7.42773
178 3 4.53076 6.25638 4.77055
116 2 3.70324 9.18892 7.23918
131 1 3.60251 10.9969 5.96582
133 1 5.09304 11.1531 3.40701
171 3 1.19497 11.7956 6.87933
137 1 3.56327 8.19185 7.76551
163 3 2.8584 12.129 1.17176
250 2 4.34944 12.843 1.20644
182 3 6.62997 7.17726 3.07796
183 3 8.49908 8.97837 2.43582
184 3 6.64033 8.22705 0.416328
185 3 6.35069 10.9989 1.09063
260 2 8.42923 11.7528 5.22374
258 2 8.06686 9.8694 5.36613
56 2 6.43493 8.09285 7.08227
54 2 5.11231 7.82262 0.605909
162 3 3.05569 9.51511 0.107922
239 2 10.2877 8.5092 0.06213
29 4 1.73109 10.7008 5.86172
23 4 4.4801 6.25555 10.4741
26 4 1.54495 9.11483 16.302
263 2 9.69568 6.21863 14.8492
34 4 6.88948 7.45396 8.64343
35 4 9.26815 6.69925 10.1686
38 4 4.03804 10.5016 10.2062
39 4 7.57331 8.48445 12.18
40 4 6.32257 11.3718 11.7833
58 2 4.59048 8.88745 10.1061
59 2 6.2038 7.42854 12.1685
269 2 7.0456 11.4636 8.49032
88 2 3.07734 8.05271 11.86
89 2 5.04453 8.66 11.7079
90 2 4.56829 6.87389 12.6129
237 4 8.6062 8.32384 15.0368
271 3 7.29205 8.29339 15.9497
128 1 4.3173 7.78991 11.7217
108 2 6.94005 9.55826 9.54062
245 3 2.54861 9.71798 15.1823
179 3 5.63663 6.96307 9.43691
87 2 7.89061 5.76691 12.2967
181 3 8.33572 6.73273 8.6995
186 3 4.33023 11.2901 8.84434
187 3 2.49441 10.2277 10.5725
188 3 8.74454 8.00225 11.1246
189 3 8.22806 8.23495 13.545
190 3 4.7741 11.1196 11.3975
191 3 7.07527 9.93371 11.9191
241 4 4.07772 9.59225 14.623
242 2 3.88657 9.29082 12.9162
243 3 4.72293 8.39001 15.2218
244 3 4.66286 11.0239 14.7689
37 4 5.75914 7.99727 16.5448
115 2 3.4305 8.26361 8.8763
135 1 7.11609 9.38096 8.3973
ITEM: TIMESTEP
300
ITEM: NUMBER OF ATOMS
271
ITEM: BOX BOUNDS xy xz yz pp pp pp
-7.2018999999999993e+00 1.4748699999999999e+01 -6.1971999999999996e+00
-1.8419940000000001e+00 1.3297482000000000e+01 -1.0046999999999999e+00
0.0000000000000000e+00 1.6609600000000000e+01 -1.8419940000000001e+00
ITEM: ATOMS id type x y z
3 4 0.939296 1.07097 5.33348
4 4 0.229744 3.49046 7.47166
14 4 6.48428 -0.73883 7.80309
21 4 2.99147 5.65808 4.88083
41 2 2.57368 1.20267 4.78946
50 2 4.10209 2.57853 1.46881
52 2 3.28557 4.13512 5.58663
74 2 3.0734 2.89439 7.96129
69 2 -1.70769 5.23517 6.8188
68 2 0.141807 5.77369 6.54608
227 4 1.48171 2.08925 0.583513
231 3 -0.0919924 2.53794 0.464234
83 2 -0.758975 5.98024 2.57665
84 2 0.200095 4.96546 1.26421
120 1 -0.685313 4.98592 6.45799
126 1 -0.0898441 6.01078 1.6678
138 3 0.0468584 1.23145 4.07093
139 3 0.872342 -0.243879 6.19523
140 3 0.827183 2.4622 6.38242
229 2 2.2055 3.18147 1.82554
255 2 -2.12548 4.11756 2.31776
155 3 1.96144 5.49556 3.62062
201 2 5.29344 0.235216 3.73634
202 2 3.86431 1.40086 3.68223
203 2 3.90483 -0.162124 4.82805
206 2 3.83793 2.63395 6.03714
213 1 4.4534 0.684197 4.3112
218 3 5.88739 0.531432 6.96242
67 2 -0.675582 4.61269 5.39663
193 4 5.73973 1.45135 5.72019
230 3 1.82508 0.61091 1.10563
266 2 4.43964 5.03441 0.108328
80 2 2.71854 4.57751 0.384944
18 4 5.22846 3.92585 1.19884
214 1 4.92398 3.14373 6.11488
125 1 3.18006 3.5222 0.188801
65 2 -1.95517 2.96224 8.18958
149 3 2.76737 -0.0866219 8.30243
15 4 3.19567 0.888557 9.5717
17 4 5.43584 0.691791 11.7942
151 3 5.22113 -0.362281 13.0058
42 2 -0.505618 4.06848 12.5674
48 2 1.97301 2.02473 10.0581
64 2 -0.895083 1.3174 8.51056
119 1 -0.904622 2.46642 8.58974
66 2 -0.649362 2.74252 9.66008
153 3 1.32582 4.4321 8.46956
141 3 -2.01642 4.69374 10.4018
76 2 3.1905 3.67428 9.67952
75 2 4.65864 2.51317 9.09452
81 2 2.63371 1.58573 15.7311
270 2 -0.612712 -0.486423 9.2764
91 2 1.35398 4.69309 15.1559
123 1 3.44359 2.73491 9.04477
228 2 1.24721 0.534707 15.6019
150 3 4.17186 0.647553 10.7665
71 2 1.78669 -0.901143 11.4008
6 4 -0.908692 5.24263 11.5198
19 4 1.56436 6.47558 2.41131
2 4 -3.98664 12.1297 6.94083
8 4 -2.04039 8.40176 6.55217
9 4 -2.55943 10.4483 4.5473
253 2 -2.27949 11.375 1.57587
61 2 -4.04254 10.0025 8.08844
60 2 -3.38844 10.3166 0.295982
25 4 0.0934339 11.1652 3.01048
27 4 2.07689 7.63481 7.07582
165 3 2.46187 6.5312 6.00384
44 2 -1.12517 6.89506 6.41332
45 2 -3.52064 7.61485 6.79495
51 2 0.937934 7.96103 3.13048
1 4 -4.13819 12.6628 1.91718
82 2 -0.498059 6.79088 0.878871
170 3 1.52255 9.05349 6.31245
93 2 -0.417647 8.72561 2.45736
94 2 1.40353 9.35592 2.29426
95 2 0.104134 9.66816 0.928121
117 1 -3.18212 11.3907 0.720438
118 1 -4.87615 10.6254 7.59655
130 1 0.264177 9.4822 2.05558
142 3 -5.29243 11.7713 2.44224
143 3 -3.90224 10.1427 3.82511
144 3 -1.92634 9.1397 5.17305
145 3 -2.91369 11.6978 5.76535
159 3 2.52839 6.95162 1.32357
160 3 0.431256 12.3179 1.95423
161 3 -1.42184 11.1352 3.47706
166 3 -1.68644 9.20539 7.79172
24 4 3.42052 7.95646 0.0853497
169 3 1.17235 10.9436 4.24904
171 3 1.09799 11.644 6.87184
29 4 1.68401 10.5899 5.7828
246 2 -2.94828 12.9023 3.16109
62 2 -5.46893 10.1009 6.82779
55 2 -1.34398 11.4939 0.012827
238 2 -5.14145 9.57315 15.626
167 3 -0.796753 11.5802 8.48935
10 4 -2.56673 7.50658 13.0912
11 4 -3.44729 9.91219 11.2178
16 4 -0.28998 11.5957 13.6031
28 4 -1.26016 10.2343 9.08536
30 4 -1.346 9.34631 15.1935
43 2 -1.52722 6.6037 8.4636
46 2 -4.05354 6.64698 13.4316
47 2 -5.23237 10.1827 11.0072
31 4 1.00495 9.9016 11.2615
129 1 2.11405 5.52839 14.9967
240 1 -4.84144 6.88635 15.3444
63 2 -5.53581 11.0247 8.43662
72 2 -3.40724 11.469 12.8685
267 2 1.76669 6.17561 14.1323
99 2 1.89572 7.41682 11.5277
100 2 0.187919 7.79583 12.1939
121 1 -4.26548 11.4545 12.0912
175 3 -0.156607 9.70348 10.1244
132 1 1.25109 8.14385 12.119
262 2 -3.74131 7.253 15.344
146 3 -1.57501 6.41843 12.3868
147 3 -2.99609 8.66659 12.1257
176 3 0.627211 10.8574 12.4434
70 2 -5.17279 11.1007 12.5899
157 3 3.02896 5.82773 10.0055
168 3 -2.64367 10.3766 9.98091
172 3 -1.94629 8.08102 14.486
173 3 0.0344577 9.26487 15.8934
174 3 -1.47615 10.6061 14.242
252 2 -4.00399 10.415 16.5544
20 4 1.44659 5.76333 9.39231
92 2 3.2414 5.13821 14.7887
154 3 0.436524 5.57939 10.6619
180 3 -3.87466 6.59036 9.8558
101 2 1.74534 8.46208 13.0889
164 3 1.09052 7.0061 8.48473
5 4 -2.74079 5.63491 9.24388
211 2 7.83062 2.94443 7.32355
226 3 11.1685 4.75364 8.212
256 2 10.9044 4.06317 1.84452
73 2 9.11006 3.39735 0.784679
105 2 6.94685 4.19351 4.84268
257 1 11.9312 3.74477 1.57682
224 3 11.0408 0.707156 7.32603
111 2 8.17558 5.54309 2.18648
33 4 5.77575 5.99876 3.76752
106 2 6.58488 5.57586 6.20005
222 3 12.3183 1.1752 4.99615
152 3 6.52196 3.36792 0.471651