ITEM: TIMESTEP
0
ITEM: NUMBER OF ATOMS
271
ITEM: BOX BOUNDS xy xz yz pp pp pp
-7.3679959999999998e+00 1.4748699999999999e+01 -6.1971999999999996e+00
-1.8606000000000000e+00 1.3431800000000001e+01 -1.1707959999999999e+00
0.0000000000000000e+00 1.6609600000000000e+01 -1.8606000000000000e+00
ITEM: ATOMS id type x y z
3 4 1.04407 1.14485 5.27303
4 4 0.28176 3.43892 7.34377
125 1 3.16661 3.92753 0.182045
21 4 3.05061 5.80387 4.99939
41 2 2.61149 1.01188 4.64074
50 2 3.79407 2.70874 1.41461
52 2 3.00086 4.12264 5.4056
246 2 2.7594 0.0258595 3.18949
69 2 -1.0375 5.54958 7.24335
68 2 0.00526411 5.52613 5.66455
227 4 1.36017 2.41719 0.516178
231 3 -0.124137 2.70073 0.232218
83 2 0.440328 4.58573 2.54999
84 2 -0.148606 5.63532 0.991871
120 1 -0.69829 4.97902 6.32568
126 1 -0.0335971 5.62658 2.14352
138 3 0.0651205 1.38863 4.01972
139 3 0.820512 -0.12771 6.1125
140 3 0.978249 2.40266 6.25533
229 2 1.8346 3.59565 1.65928
204 2 4.48123 3.37644 4.65667
155 3 2.21915 5.89637 3.63431
201 2 5.19201 0.226608 3.17891
202 2 3.85305 1.57943 3.66047
203 2 3.89113 -0.191202 4.48871
206 2 3.47627 2.74018 6.11224
213 1 4.45959 0.631997 3.96848
218 3 5.67968 0.622683 6.87489
67 2 -1.56396 4.51128 5.81626
193 4 5.6306 1.40358 5.44915
230 3 1.75609 0.971633 1.02395
255 2 -1.9459 4.26646 2.23269
80 2 2.82709 5.06647 0.490896
18 4 5.1666 3.94887 1.15868
65 2 -1.84265 3.08961 8.13779
214 1 4.54152 2.95525 5.73668
82 2 -0.969046 5.94485 2.68814
14 4 6.19389 -0.682471 7.68226
74 2 3.0149 2.93088 8.12832
149 3 2.46164 -0.185294 8.3004
15 4 2.9817 0.851202 9.5001
17 4 5.02494 0.718424 11.7994
151 3 5.06698 -0.276979 13.1107
42 2 -0.548056 3.58886 12.095
48 2 1.88973 2.22507 9.79488
266 2 3.56446 3.24422 16.5742
119 1 -0.916441 2.52865 8.4838
66 2 -0.53886 2.90491 9.49222
153 3 1.2399 4.28182 8.40746
141 3 -2.32969 4.86462 10.559
76 2 3.89054 3.373 9.68621
75 2 4.65106 2.06735 8.52003
81 2 2.49707 1.99662 15.7388
270 2 -0.879511 -0.00986288 9.289
91 2 1.58899 4.37057 15.1561
123 1 3.64881 2.54983 9.01121
228 2 1.17881 0.87038 15.5995
150 3 3.76681 0.362545 10.7887
64 2 -1.08707 1.35229 8.3882
6 4 -0.942344 5.2039 11.3853
19 4 1.44316 6.69139 2.48125
2 4 -4.13432 12.2559 7.08815
8 4 -1.99275 8.41242 6.5552
9 4 -2.6033 10.5619 4.59108
253 2 -2.02602 12.497 1.37198
61 2 -4.9339 9.84359 7.16564
239 2 -3.47311 9.27315 0.562742
25 4 -0.0545812 11.1939 2.99406
27 4 1.76478 7.76687 6.99093
29 4 1.5017 10.7573 5.76581
44 2 -1.08613 6.94231 6.30418
45 2 -3.4411 7.71965 7.03032
51 2 0.606385 8.09608 3.17272
60 2 -3.05356 11.1843 0.0839046
171 3 0.885892 11.7799 6.76982
170 3 1.21555 9.1185 6.28828
93 2 -0.591222 8.70624 2.25415
94 2 1.1409 9.26907 1.89761
95 2 -0.217654 9.91219 0.956142
117 1 -2.85705 12.2949 0.41836
118 1 -5.2596 10.8321 7.62754
130 1 0.0858207 9.53896 1.92925
142 3 -5.08965 11.7587 2.02971
143 3 -3.97003 10.1544 3.85182
144 3 -2.08155 9.12749 5.16613
145 3 -3.0826 11.659 5.91946
159 3 2.40839 7.01213 1.08898
160 3 0.349206 12.539 2.11766
161 3 -1.62431 11.2952 3.51178
166 3 -1.48258 9.33379 7.70449
24 4 3.4527 7.89339 0.114997
260 2 -6.03239 11.9652 5.22285
169 3 1.00987 10.9727 4.19409
165 3 2.28271 6.64534 6.08401
1 4 -4.18657 13.0008 1.65287
238 2 -5.5094 10.0426 15.7865
167 3 -1.06422 11.8655 8.44581
10 4 -2.41438 7.22931 13.2196
11 4 -3.2255 9.70338 11.2979
16 4 -0.463324 11.7609 13.6345
28 4 -1.17723 10.3008 8.99046
30 4 -1.33272 9.31806 15.1138
43 2 -2.10826 6.86277 8.76734
46 2 -3.85186 6.38646 13.5203
47 2 -4.98427 9.94228 11.1954
31 4 1.03131 10.173 11.2562
129 1 2.33887 5.2662 14.995
240 1 -4.76017 7.49751 16.0506
63 2 -5.18733 10.9059 8.73562
72 2 -3.65043 10.9746 13.1864
267 2 2.09377 6.04289 14.2096
99 2 1.57815 7.67443 11.3951
100 2 0.022373 8.26568 12.4205
121 1 -3.93774 11.2683 12.098
175 3 0.0401394 9.98861 9.94676
132 1 1.12607 8.47089 12.1174
262 2 -3.91917 8.0936 15.5541
146 3 -1.4013 6.20053 12.5501
147 3 -2.81849 8.51122 12.2426
176 3 0.41485 11.0762 12.4225
70 2 -5.08015 11.611 12.1347
157 3 2.75077 6.12862 9.91386
168 3 -2.54601 10.1442 9.96577
172 3 -1.88623 7.85962 14.5206
173 3 0.00379134 9.20113 15.7974
174 3 -1.48825 10.639 14.2682
252 2 -4.02288 11.2069 16.2248
20 4 1.23621 5.82787 9.27589
5 4 -3.15201 5.73338 9.40188
101 2 1.7972 8.59143 13.0583
154 3 0.195143 5.61541 10.4611
164 3 0.774849 7.03122 8.32105
55 2 -2.40099 9.52681 16.5066
71 2 -3.20993 12.1171 11.6835
268 2 13.6375 -0.328407 7.37231
226 3 11.0099 4.8244 8.2178
256 2 11.0446 4.45022 1.69356
73 2 9.12874 3.07917 0.405685
105 2 7.27609 3.90917 4.38122
257 1 12.0825 3.93271 1.49846
224 3 11.1017 0.27898 7.1867
111 2 8.55904 5.7507 1.7722
33 4 5.85078 5.80004 3.78305
106 2 7.01365 4.88204 5.88777
222 3 12.3833 1.16909 5.00876
152 3 6.3494 3.15006 0.528433
177 3 5.45172 4.73317 2.54747
192 4 13.2641 1.31239 3.67974
223 3 9.77417 0.807475 4.82493
194 4 8.58129 1.40213 4.0185
196 4 11.0277 1.21602 5.78135
197 4 10.1865 3.84931 7.27655
212 2 7.73757 4.39504 7.99662
199 2 8.89062 2.99287 3.86378
200 2 8.82895 4.5918 6.42839
205 2 5.21007 3.50453 6.46646
217 1 8.37242 3.43412 7.90661
225 3 10.8322 2.81347 6.27144
247 2 11.919 2.27968 1.39825
198 2 12.7601 2.79529 2.90737
219 3 12.8237 0.0747367 2.69533
220 3 8.55913 0.917044 2.47505
221 3 7.12698 1.41003 4.77438
134 1 7.17302 4.92276 4.76814
107 2 8.06531 5.61314 4.46717
211 2 7.90197 2.59703 7.34258
113 2 8.16671 6.58084 0.0441233
22 4 5.7101 4.00165 11.9337
148 3 6.44004 -1.13108 16.4302
57 2 8.53437 5.17833 11.2564
77 2 6.33274 1.12848 9.68937
49 2 6.90845 -1.36053 14.8352
79 2 7.47358 0.919279 11.2488
53 2 5.9173 4.45912 13.7631
86 2 8.10262 4.01619 13.4447
122 1 7.51688 1.3745 15.1935
124 1 6.58028 0.522011 10.6021
127 1 7.42897 4.55082 12.7651
158 3 4.94965 5.08657 11.0992
195 4 11.3312 -0.3935 8.59098
207 2 11.4192 0.39472 10.8945
208 2 9.70137 0.531443 10.1547
209 2 11.1098 1.76309 9.57526
210 2 8.94008 2.9444 8.93339
254 2 11.2771 2.93775 16.5585
215 1 10.8298 0.746111 9.99395
249 2 7.28804 -0.0909358 8.83146
92 2 3.48754 4.94442 15.0715
233 4 11.2035 -0.734114 14.0201
234 2 9.99961 -0.246654 12.9322
235 3 11.2682 0.414628 15.1946
85 2 7.4822 3.73356 11.2549
265 2 8.43322 0.843096 14.9854
248 2 6.53441 1.08688 14.3782
264 2 7.62455 2.49375 15.3847
216 1 13.3788 -0.633718 8.50512
236 3 12.5114 -0.9491 13.1477
156 3 5.11314 2.33488 11.9839
13 4 6.39398 0.472031 16.5259
78 2 6.44788 -0.65631 10.424
232 4 11.7951 1.1693 16.5671
112 2 9.65293 7.19134 1.09731
12 4 1.7587 13.1946 1.48078
32 4 5.69849 12.3644 2.11632
36 4 7.53291 7.92136 1.96461
7 4 9.33521 10.4017 3.22705
110 2 7.71209 9.82922 8.07577
96 2 3.40758 12.3068 5.41876
97 2 3.82224 10.394 5.33062
98 2 3.79517 11.2575 7.04695
102 2 5.69063 10.3832 3.49392
103 2 4.11425 11.5486 3.58525
104 2 5.63883 11.9074 4.74952
259 2 7.22705 11.0189 4.32733
109 2 5.87708 9.71183 7.83055
261 1 8.36537 10.9538 4.71528
114 2 4.14898 7.81091 7.11914
178 3 4.55655 6.28816 4.81247
116 2 3.52117 9.62979 7.22598
131 1 3.35601 11.2256 5.96224
133 1 5.31956 11.4397 3.73327
136 1 8.61827 6.69448 1.09166
137 1 3.41541 8.50118 7.64602
163 3 2.97911 12.0797 1.11777
250 2 4.38459 13.0308 1.29374
182 3 6.76342 7.21733 3.16166
183 3 8.59071 9.16405 2.63815
184 3 6.34567 8.5999 0.688538
185 3 6.40756 11.3345 1.12029
62 2 8.49557 11.3092 7.18417
258 2 8.51344 10.1035 5.44424
56 2 6.43447 8.08572 6.90849
54 2 5.00588 7.62243 0.877991
37 4 6.75182 10.1769 0.0564527
23 4 4.26216 6.32323 10.3479
26 4 1.47179 9.12054 16.212
263 2 9.80103 6.53371 15.5056
34 4 6.54547 7.39584 8.51173
35 4 8.88857 6.65146 10.3414
38 4 4.00506 10.5974 10.244
39 4 7.66734 8.60669 12.3501
40 4 6.39364 11.4079 11.8063
58 2 4.50022 8.9706 10.0108
59 2 6.20484 7.7185 12.3728
269 2 7.33415 11.7159 8.80727
88 2 3.13436 8.13829 11.8395
89 2 5.02612 8.80509 11.6148
90 2 4.70349 7.04921 12.4858
237 4 8.48499 8.54013 15.3655
271 3 7.10843 8.30598 16.186
128 1 4.34915 7.89322 11.6747
108 2 6.55906 9.42175 9.6247
245 3 2.47524 9.76219 15.0698
179 3 5.20715 6.90324 9.23349
87 2 7.66806 5.64824 12.5744
181 3 7.853 6.60576 8.97189
186 3 4.37296 11.4302 8.88417
187 3 2.43786 10.4984 10.6062
188 3 8.6939 7.95598 11.2821
189 3 8.32939 8.50004 13.8175
190 3 4.92232 11.2632 11.3865
191 3 7.15892 10.0476 11.981
241 4 3.99061 9.82815 14.6774
242 2 4.09881 9.29007 13.06
243 3 4.77355 8.70598 15.3605
244 3 4.57936 11.294 14.6959
180 3 10.3449 6.53364 9.92091
115 2 3.34012 8.39287 8.7824
162 3 1.88559 7.58863 16.4764
135 1 6.73907 9.32022 8.39919
251 2 7.08163 12.238 10.3703
ITEM: TIMESTEP
100
ITEM: NUMBER OF ATOMS
271
ITEM: BOX BOUNDS xy xz yz pp pp pp
-7.3679959999999998e+00 1.4748699999999999e+01 -6.1971999999999996e+00
-1.8606000000000000e+00 1.3431800000000001e+01 -1.1707959999999999e+00
0.0000000000000000e+00 1.6609600000000000e+01 -1.8606000000000000e+00
ITEM: ATOMS id type x y z
3 4 0.992167 1.28725 5.27762
4 4 0.253168 3.59986 7.34026
125 1 3.24273 3.61833 0.118089
21 4 3.00083 5.80295 4.93007
41 2 2.66683 1.20654 4.86051
50 2 3.88325 2.6094 1.52455
52 2 2.98611 4.24347 5.60254
246 2 2.97432 -0.217888 3.29238
69 2 -1.69071 5.3505 6.91227
68 2 -0.0154185 5.81402 6.16897
227 4 1.44958 2.296 0.508835
231 3 0.0459708 2.81209 0.199586
83 2 -0.126879 5.10237 3.09165
84 2 0.0611338 5.26376 1.2065
120 1 -0.763415 4.99003 6.37469
126 1 -0.127565 5.82963 2.1404
138 3 0.0862634 1.44032 3.98653
139 3 0.715263 -0.109832 5.88948
140 3 0.82423 2.58128 6.27834
229 2 2.03142 3.4136 1.70476
204 2 4.46077 3.38782 4.50613
155 3 2.34193 5.8427 3.48658
201 2 5.11811 0.131983 3.46151
202 2 3.86629 1.52418 3.92789
203 2 3.87055 -0.134451 4.95901
206 2 3.69051 2.64361 6.17652
213 1 4.45185 0.625458 4.25619
218 3 5.70471 0.675342 6.95293
67 2 -0.996336 4.52217 5.40524
193 4 5.74606 1.4774 5.61028
230 3 1.82549 0.857895 1.18868
255 2 -2.15336 4.19493 2.19101
80 2 2.95015 4.63089 0.245768
18 4 5.15249 3.90284 1.24832
65 2 -1.89171 3.01585 7.93191
214 1 4.61271 3.03637 5.59218
74 2 2.94424 2.86048 7.84089
14 4 6.27892 -0.61805 7.76563
82 2 -1.036 6.46088 2.10754
149 3 2.5624 -0.26044 8.18025
266 2 4.57437 5.06784 0.0762216
254 2 -2.18859 4.84327 0.0663925
15 4 3.0747 0.82721 9.42864
17 4 5.1104 0.797054 11.7591
151 3 5.33101 -0.25129 13.1311
42 2 -0.298866 3.83621 12.3011
48 2 1.88178 2.06361 9.79031
5 4 -2.99241 5.61716 9.30585
119 1 -0.960633 2.5866 8.48266
66 2 -0.772849 2.98366 9.51949
153 3 1.29333 4.50876 8.34385
141 3 -2.20536 4.6926 10.4396
76 2 3.55441 3.30494 9.59124
75 2 4.63693 2.13562 8.40539
81 2 2.44995 1.64867 15.6506
270 2 -0.746865 -0.168165 9.56933
91 2 1.55679 4.50758 14.9995
123 1 3.5068 2.52076 8.71009
228 2 1.10365 0.585711 15.5167
150 3 3.69239 0.433179 10.8778
64 2 -0.969709 1.46954 8.4037
6 4 -0.995425 5.17233 11.4396
19 4 1.44947 6.79116 2.49193
2 4 -4.15717 12.2697 6.94998
8 4 -1.94678 8.39353 6.54982
9 4 -2.59991 10.5566 4.69307
253 2 -2.02275 12.1435 1.27146
61 2 -4.30492 9.89101 7.0779
239 2 -3.68624 9.2888 0.502483
25 4 0.0619054 11.2294 3.12887
27 4 1.58653 7.74331 7.00317
29 4 1.5814 10.7757 5.83104
44 2 -0.979186 6.98461 6.44418
45 2 -3.38953 7.6238 6.72031
51 2 0.864126 8.26105 3.19542
60 2 -3.27636 10.9748 0.138998
171 3 0.965609 11.9723 6.80358
170 3 1.30322 9.24852 6.38001
93 2 -0.413487 8.79818 2.22017
94 2 1.30711 9.39672 1.7872
95 2 -0.145876 10.1556 1.02045
117 1 -2.97266 12.0692 0.458274
118 1 -4.98533 10.6756 7.53671
130 1 0.245334 9.67664 1.94105
142 3 -5.23566 11.8453 2.16423
143 3 -4.04925 10.2731 3.97482
144 3 -1.92333 9.14883 5.21578
145 3 -2.9917 11.743 5.90558
159 3 2.29953 7.0005 1.07085
160 3 0.273826 12.505 2.04906
161 3 -1.45683 11.2679 3.61607
166 3 -1.62365 9.22181 7.792
24 4 3.40524 7.98121 0.186181
164 3 0.778046 7.01852 8.19356
169 3 1.2187 11.0636 4.25421
165 3 2.09745 6.70484 5.88557
1 4 -4.08291 12.8773 1.8322
238 2 -5.64284 10.0389 15.7436
167 3 -0.907369 11.8227 8.48059
10 4 -2.45467 7.2763 13.0851
11 4 -3.34337 9.59734 11.1865
16 4 -0.387723 11.6867 13.5692
28 4 -1.33296 10.2413 9.00298
30 4 -1.34217 9.35792 15.0947
43 2 -1.82979 6.67856 8.724
46 2 -3.76409 6.31643 13.5015
47 2 -5.10233 10.0156 11.196
31 4 0.870971 10.0397 11.2237
129 1 2.14773 5.42883 15.0449
240 1 -4.98481 7.33167 15.9821
63 2 -4.97483 10.7198 8.69779
72 2 -3.27751 10.8725 13.1918
267 2 1.61144 6.33297 14.4643
99 2 1.39265 7.57368 11.3414
100 2 0.0515475 8.11936 12.5281
121 1 -3.95055 11.0898 12.2706
175 3 -0.0217594 9.79496 9.80789
132 1 1.1134 8.35698 12.1164
262 2 -4.10959 7.81751 15.3787
146 3 -1.31196 6.25226 12.6101
147 3 -3.0058 8.38821 12.0635
176 3 0.350508 11.1564 12.1985
70 2 -5.00511 11.0949 12.4763
157 3 2.81243 6.07118 9.87128
168 3 -2.559 10.1658 9.9845
172 3 -2.08342 8.02786 14.4733
173 3 0.109734 9.18116 15.7096
174 3 -1.52647 10.5885 14.1282
252 2 -4.16562 11.0702 16.2754
20 4 1.31385 5.80568 9.31977
55 2 -2.3177 9.84036 16.4783
154 3 0.158854 5.67585 10.5006
180 3 -4.14556 6.50471 9.90722
71 2 -3.68087 11.9615 11.6097
101 2 1.84873 8.52315 12.9303
211 2 7.79681 3.1554 6.99876
226 3 11.2864 4.7469 8.1152
256 2 10.9979 3.97621 1.47625
73 2 9.3007 3.09739 0.406266
105 2 7.0331 3.86483 4.26412
257 1 12.0445 3.71691 1.35343
224 3 10.9836 0.301321 7.26731
111 2 8.52778 5.7096 2.06129
33 4 5.77435 5.90038 3.76604
106 2 6.96524 4.95114 5.8553
222 3 12.4342 1.17899 5.02763
152 3 6.46605 3.20345 0.636457
177 3 5.24932 4.74917 2.5821
192 4 13.2776 1.31723 3.69647
223 3 9.63948 0.701411 4.7812
194 4 8.55818 1.55703 4.00399
196 4 10.9903 1.17459 5.77423
197 4 10.2199 3.7965 7.22047
113 2 8.54145 6.50078 0.326393
199 2 9.19843 3.06872 3.82006
200 2 8.9247 4.83492 6.66553
205 2 5.15286 3.82712 6.1521
217 1 8.42259 3.42943 7.94358
225 3 10.6463 2.81203 6.11321
247 2 12.2027 1.9029 1.16183
198 2 12.8699 2.8058 2.87074
219 3 12.6737 0.169837 2.70365
220 3 8.39829 0.884361 2.54978
221 3 7.10624 1.72298 4.80427
134 1 7.04842 4.90783 4.71963
107 2 7.9933 5.46238 4.41427
268 2 13.8843 -0.257528 7.75186
22 4 5.89014 3.96901 11.9019
148 3 6.5921 -1.11435 16.4554
57 2 8.5645 5.42226 11.2951
77 2 6.43418 1.25799 9.81647
49 2 6.91371 -1.54774 14.9155
79 2 7.67351 0.946346 11.2602
53 2 6.07446 4.65409 13.7389
86 2 8.33512 4.16443 13.3818
122 1 7.52256 1.48281 15.2139
124 1 6.74691 0.58942 10.7305
127 1 7.48267 4.6367 12.7706
158 3 5.11614 5.09568 11.1015
195 4 11.3274 -0.396395 8.63137
207 2 12.0844 0.993223 10.256
208 2 10.2635 0.0250721 10.7018
209 2 10.2413 1.63365 9.63828
210 2 8.97618 2.48911 8.56877
78 2 6.80646 -0.5318 10.6183
215 1 10.878 0.708483 9.95935
249 2 7.31975 -0.0155121 8.99235
232 4 11.8583 1.10634 16.5141
233 4 11.0344 -0.758323 14.0729
234 2 9.70199 -0.298271 13.1443
235 3 11.1459 0.451754 14.9986
85 2 7.62153 3.76793 11.1992
265 2 8.68656 1.24616 15.0869
248 2 6.87097 0.975798 14.3807
264 2 7.32937 2.57148 15.2323
216 1 13.4651 -0.624753 8.68147
236 3 12.4508 -0.839169 13.0607
156 3 5.34884 2.37149 12.0295
13 4 6.57037 0.539124 16.5693
251 2 13.2269 -1.08863 10.5932
212 2 7.96301 4.10168 8.6813
112 2 9.83719 7.03285 1.60404
12 4 1.71425 13.2225 1.52877
32 4 5.77391 12.2997 2.16286
36 4 7.65105 7.95265 2.10613
7 4 9.31251 10.4834 3.27356
110 2 7.99447 9.89227 8.20048
96 2 3.5902 12.0068 5.51528
97 2 4.02569 10.12 5.47085
98 2 3.78923 10.9986 7.19059
102 2 5.30117 10.2018 3.51846
103 2 3.87386 11.4515 3.29254
104 2 5.30623 11.7195 4.54647
259 2 6.93515 11.1187 4.29788
109 2 6.07897 9.90542 7.89331
261 1 8.05652 10.9733 4.61484
114 2 3.93093 7.33512 7.37346
178 3 4.49822 6.27029 4.91842
116 2 3.59353 9.20299 7.4357
131 1 3.45258 10.9425 6.0364
133 1 4.9993 11.2772 3.56893
136 1 8.81771 6.63579 1.44037
137 1 3.29887 8.18383 7.77322
163 3 2.82738 12.0508 1.36615
250 2 4.38239 12.8251 1.36047
182 3 6.59421 7.14672 2.95901
183 3 8.63421 9.03974 2.66821
184 3 6.55364 8.53906 0.694772
185 3 6.4587 11.2376 1.11885
62 2 8.70681 10.8933 6.98954
258 2 8.11509 10.057 5.30381
56 2 6.4535 8.25718 7.03898
54 2 5.01331 7.79815 0.762577
37 4 6.7594 10.1098 0.023213
260 2 8.58781 11.9275 5.079
162 3 3.07836 9.51347 0.119646
23 4 4.30941 6.33177 10.4071
26 4 1.49199 9.19424 16.3407
263 2 9.40239 6.35949 15.665
34 4 6.66628 7.57235 8.63806
35 4 9.03796 6.70414 10.2509
38 4 3.84551 10.5202 10.2862
39 4 7.52481 8.55149 12.2084
40 4 6.24138 11.4686 11.839
58 2 4.58029 9.02465 10.1453
59 2 6.25432 7.44199 12.0746
269 2 7.28593 11.6784 8.60243
88 2 3.12636 8.09634 11.7997
89 2 5.02839 8.70575 11.8605
90 2 4.63542 6.93976 12.5593
237 4 8.40405 8.48623 15.2388
271 3 7.11018 8.22107 16.1198
128 1 4.33606 7.83153 11.7184
108 2 6.72945 9.62192 9.71603
245 3 2.4402 9.8916 15.0995
179 3 5.33199 6.95893 9.21331
87 2 7.57002 5.72093 12.6261
181 3 8.13604 6.86947 8.80983
186 3 4.2199 11.2786 8.89885
187 3 2.38053 10.4425 10.6946
188 3 8.53815 8.09729 11.0148
189 3 8.17641 8.39003 13.6408
190 3 4.72314 11.2731 11.4513
191 3 7.00814 10.0319 11.9397
241 4 3.89299 9.73729 14.5663
242 2 3.77805 9.31058 12.9125
243 3 4.68955 8.59464 15.168
244 3 4.45787 11.1778 14.7781
92 2 3.25444 5.37861 14.9021
115 2 3.13537 8.11377 8.89436
135 1 6.92188 9.44951 8.517
ITEM: TIMESTEP
200
ITEM: NUMBER OF ATOMS
271
ITEM: BOX BOUNDS xy xz yz pp pp pp
-7.3679959999999998e+00 1.4748699999999999e+01 -6.1971999999999996e+00
-1.8606000000000000e+00 1.3431800000000001e+01 -1.1707959999999999e+00
0.0000000000000000e+00 1.6609600000000000e+01 -1.8606000000000000e+00
ITEM: ATOMS id type x y z
3 4 0.994494 1.21566 5.28909
4 4 0.130658 3.54904 7.37184
74 2 2.82729 2.65809 7.57984
21 4 2.98251 5.85115 4.90356
41 2 2.56758 1.19796 4.54875
50 2 4.08953 2.50071 1.40778
52 2 3.24237 4.26344 5.44244
80 2 2.81785 4.41997 0.0646905
69 2 -1.63391 5.33494 6.97035
68 2 -0.11049 5.79391 5.97433
227 4 1.44623 2.2456 0.558135
231 3 -0.019449 2.56077 0.278101
83 2 -0.572677 5.60611 2.96289
84 2 0.0881046 5.27218 1.18306
120 1 -0.830448 4.97657 6.30474
126 1 -0.239212 6.05106 1.90867
138 3 -0.0082616 1.41226 4.08104
139 3 0.702044 -0.0868393 6.08447
140 3 0.830297 2.46878 6.4509
229 2 2.07898 3.61224 1.57022
204 2 4.74623 3.38932 4.85179
155 3 2.15252 5.70817 3.47233
201 2 5.31908 0.320535 3.51436
202 2 3.89548 1.60542 3.78769
203 2 3.94374 -0.193437 4.90578
206 2 3.70009 2.99322 6.50433
213 1 4.44262 0.702356 4.21833
218 3 5.8449 0.579038 6.94015
67 2 -1.31648 4.38456 5.44825
193 4 5.80837 1.50928 5.70702
230 3 1.79122 0.812092 1.31905
149 3 2.54847 -0.21876 8.17455
14 4 6.31209 -0.686013 7.82197
18 4 5.21088 3.85955 1.18505
125 1 3.23097 3.42228 0.0385963
214 1 4.77291 3.08058 5.99956
15 4 2.97141 0.832378 9.40481
17 4 5.19301 0.747049 11.7944
151 3 5.24591 -0.263733 13.1429
42 2 -0.54033 4.04073 12.3531
48 2 1.73748 1.98833 9.65365
5 4 -2.95515 5.58397 9.40284
119 1 -0.944249 2.53198 8.54397
66 2 -0.523382 2.9076 9.54387
153 3 1.13041 4.30511 8.44698
141 3 -2.26895 4.71431 10.5635
76 2 3.17288 3.23678 9.41658
75 2 4.54515 2.31045 8.41742
81 2 2.4125 1.34644 15.6726
270 2 -0.779046 -0.215544 9.39003
91 2 1.28035 4.74147 15.0432
123 1 3.4207 2.47859 8.63222
228 2 0.989719 0.5023 15.522
150 3 3.92586 0.470039 10.6175
64 2 -1.11736 1.30718 8.5438
6 4 -0.85904 5.3108 11.4932
266 2 3.43305 2.97299 16.4839
71 2 1.70407 -1.22526 11.747
65 2 -1.95387 3.05018 8.37004
19 4 1.46997 6.69323 2.40188
2 4 -4.08476 12.4246 6.9152
8 4 -2.10761 8.40768 6.50711
9 4 -2.52085 10.5608 4.66105
253 2 -2.20431 11.6891 1.39645
61 2 -4.00132 10.1011 7.50423
1 4 -4.13889 12.8094 1.93347
25 4 0.152837 11.1696 3.06446
27 4 1.75287 7.7784 7.09196
165 3 2.05951 6.63721 5.96944
44 2 -1.24976 6.86266 6.4533
45 2 -3.70271 7.90343 6.67275
51 2 0.73677 8.04891 3.16118
60 2 -3.24968 10.6116 0.145976
82 2 -0.923414 6.77919 1.50291
170 3 1.24814 9.26518 6.36161
93 2 -0.47089 8.8669 2.34151
94 2 1.39654 9.28307 2.02007
95 2 -0.0843602 10.1119 0.9486
117 1 -3.13961 11.6968 0.678882
118 1 -4.94967 10.7901 7.50951
130 1 0.271721 9.63245 2.00495
142 3 -5.34547 11.8606 2.31938
143 3 -3.90465 10.2806 3.92605
144 3 -1.97746 9.1463 5.15776
145 3 -2.94158 11.9812 5.7937
159 3 2.51558 7.29717 1.07712
160 3 0.297928 12.6119 1.86979
161 3 -1.29706 11.2542 3.65319
166 3 -1.62874 9.29903 7.73737
24 4 3.43869 8.07683 0.155957
246 2 -2.98987 13.0076 3.21817
169 3 1.21904 11.0512 4.25018
29 4 1.67406 10.7912 5.87441
238 2 -5.26293 9.66773 15.5489
167 3 -0.899162 11.7609 8.57397
10 4 -2.56756 7.36298 13.0527
11 4 -3.48167 9.76155 11.1328
16 4 -0.302528 11.686 13.5771
28 4 -1.31563 10.2955 8.96564
30 4 -1.49051 9.42678 15.0553
43 2 -1.75375 6.60742 8.75387
46 2 -3.92769 6.51378 13.4498
47 2 -5.20598 9.98309 10.8802
31 4 0.949386 9.95958 11.0987
129 1 1.99501 5.58464 14.996
240 1 -5.09362 7.06434 15.6902
63 2 -5.31476 11.1489 8.55066
72 2 -3.43256 11.2224 12.9019
267 2 1.70298 6.5197 14.5262
99 2 1.40572 7.50043 11.4751
100 2 -0.0108742 8.13875 12.5092
121 1 -4.35984 11.1336 12.1477
175 3 -0.2379 9.59938 9.9844
132 1 1.02071 8.33339 12.1148
262 2 -4.03864 7.42829 15.8246
146 3 -1.52826 6.35886 12.4257
147 3 -3.06638 8.53772 12.0477
176 3 0.514443 10.8813 12.3342
70 2 -5.4041 10.7034 12.6363
157 3 2.91057 6.10791 9.79191
168 3 -2.69019 10.2329 9.91282
172 3 -2.11122 8.09444 14.4203
173 3 -0.111228 9.1651 15.7163
174 3 -1.48897 10.7633 14.2066
252 2 -4.26761 10.6979 16.4474
20 4 1.38888 5.78679 9.27873
55 2 -2.61557 9.88246 16.2837
154 3 0.400211 5.66836 10.5389
180 3 -4.04117 6.58677 9.85235
164 3 0.928697 7.07902 8.34085
101 2 1.72048 8.5358 13.0218
92 2 3.10807 5.26096 14.9108
211 2 7.6496 3.26306 7.41352
226 3 11.2649 4.6129 8.13234
256 2 10.8575 3.81237 1.21272
73 2 9.26583 3.17057 0.629027
105 2 7.13592 4.00276 4.84217
257 1 11.9462 3.5543 1.31248
224 3 11.0143 0.368599 7.14721
111 2 8.26128 5.59514 1.82024
33 4 5.77621 5.90332 3.77096
106 2 6.94477 5.41149 5.99992
222 3 12.3189 1.16628 4.98294
152 3 6.5147 3.21124 0.650346
177 3 5.38131 4.74671 2.53562
192 4 13.2258 1.14644 3.69716
223 3 9.70569 0.483499 4.82811
194 4 8.53558 1.52756 4.0484
196 4 10.8769 1.21391 5.73073
197 4 10.1044 3.97949 7.17385
255 2 12.4411 4.09311 2.19744
199 2 9.20477 3.07336 3.71737
200 2 8.78737 5.0477 6.82428
205 2 5.60357 3.61817 6.64877
217 1 8.47641 3.61209 8.10829
225 3 10.5073 2.95379 5.99647
247 2 12.1277 1.85285 1.38513
198 2 12.8247 2.56344 2.73517
219 3 12.7457 -0.03669 2.75245
220 3 8.19536 0.966666 2.60116
221 3 7.20854 1.85947 4.89912
134 1 7.07712 5.13953 4.92051
107 2 7.99017 5.69889 4.38455
268 2 13.4978 -0.212412 7.59495
13 4 7.78151 2.51151 0.0691589
12 4 7.87156 -0.122337 1.50703
254 2 12.5923 4.66193 0.0322239
22 4 5.9214 3.87601 12.021
148 3 6.73027 -0.990627 16.4425
57 2 8.57885 5.34969 10.8989
77 2 6.76855 1.23534 10.0549
49 2 6.95652 -1.43866 14.8925
79 2 7.79127 0.47788 11.4795
53 2 6.34192 4.55653 13.7223
86 2 8.57141 4.40224 13.1507
122 1 7.6009 1.72243 15.4198
124 1 6.80879 0.39623 10.8869
127 1 7.71782 4.70408 12.5311
158 3 5.08526 4.98275 11.2173
195 4 11.2567 -0.281261 8.59813
207 2 11.9815 1.07503 10.3309
208 2 10.477 0.0113963 10.8958
209 2 10.1334 1.59134 9.71048
210 2 9.14759 2.82204 8.83925
78 2 6.50619 -0.655436 10.419
215 1 10.8755 0.711309 10.077
249 2 7.39705 -0.059638 8.96378
232 4 11.8825 0.978105 16.5396
233 4 11.0186 -0.82323 14.2087
234 2 9.7325 -0.449189 13.206
235 3 11.1542 0.330267 15.1575
85 2 7.58339 3.9066 11.034
265 2 8.52286 1.24929 15.1247
248 2 6.82818 1.59651 14.5987
264 2 7.73975 2.83025 15.7216
216 1 13.3582 -0.662435 8.5922
236 3 12.3558 -1.06504 13.1613
156 3 5.52617 2.37994 12.2642
212 2 8.04492 4.39699 8.7779
251 2 13.2735 -1.05351 10.5656
112 2 9.74174 6.72689 2.15846
239 2 10.2599 8.56392 0.051089
32 4 5.70936 12.3383 1.98111
36 4 7.60364 7.89314 2.00493
7 4 9.26915 10.4963 3.34034
110 2 8.03163 9.96766 8.09653
96 2 3.73745 12.0635 5.47587
97 2 4.09615 10.1906 5.51035
98 2 3.77555 11.0958 7.17733
102 2 5.56181 10.2358 3.30735
103 2 3.91511 11.3114 2.99557
104 2 5.26574 11.8918 4.35804
259 2 6.95873 11.0865 4.08953
109 2 6.15146 9.96754 7.768
261 1 8.08903 10.9421 4.67637
114 2 4.18938 7.49922 7.55043
178 3 4.49457 6.34536 4.72814
116 2 3.60505 9.31022 7.34601
131 1 3.56766 11.0574 6.0012
133 1 5.06729 11.2291 3.41538
136 1 8.82331 6.56555 1.52567
137 1 3.43232 8.2865 7.82532
163 3 2.85705 12.2388 1.17172
250 2 4.35766 12.9743 1.20449
182 3 6.63317 7.28739 3.0836
183 3 8.43649 9.09258 2.46187
184 3 6.59936 8.35492 0.435582
185 3 6.34989 11.1251 1.093
62 2 9.01016 10.4697 6.76461
258 2 8.0257 10.0336 5.3726
56 2 6.25908 8.19023 7.12735
54 2 5.079 7.9591 0.71454
162 3 3.05969 9.64335 0.134356
260 2 8.40387 11.8924 5.2454
171 3 1.14051 11.8553 6.92725
113 2 9.01285 6.68296 0.378017
23 4 4.37451 6.35278 10.4658
26 4 1.35298 9.22817 16.3198
263 2 9.57893 6.3124 14.8003
34 4 6.7768 7.60754 8.67379
35 4 9.14611 6.76039 10.1671
38 4 3.96034 10.6064 10.203
39 4 7.46635 8.56324 12.1749
40 4 6.2409 11.4436 11.8048
58 2 4.49181 8.99084 10.1038
59 2 6.09643 7.53975 12.1838
269 2 7.06393 11.6065 8.59293
88 2 2.99218 8.14556 11.8692
89 2 4.91793 8.75561 11.7018
90 2 4.44269 6.98041 12.6088
237 4 8.44008 8.4145 15.0539
271 3 7.12514 8.36643 15.9505
128 1 4.1887 7.88662 11.7206
108 2 6.76221 9.7044 9.56788
245 3 2.38563 9.79365 15.1695
179 3 5.53241 7.03834 9.48552
87 2 7.73135 5.84845 12.381
181 3 8.2173 6.85815 8.69462
186 3 4.279 11.3711 8.85071
187 3 2.40342 10.3564 10.5421
188 3 8.63857 8.0494 11.1445
189 3 8.09575 8.31401 13.5618
190 3 4.69417 11.2123 11.4029
191 3 6.98575 10.0118 11.9091
241 4 3.92359 9.6657 14.6399
242 2 3.77733 9.41045 12.9305
243 3 4.56738 8.4712 15.2591
244 3 4.50397 11.0994 14.8107
37 4 5.59556 8.09152 16.5633
115 2 3.27482 8.28207 8.96193
135 1 6.99766 9.51211 8.39493
ITEM: TIMESTEP
300
ITEM: NUMBER OF ATOMS
271
ITEM: BOX BOUNDS xy xz yz pp pp pp
-7.3679959999999998e+00 1.4748699999999999e+01 -6.1971999999999996e+00
-1.8606000000000000e+00 1.3431800000000001e+01 -1.1707959999999999e+00
0.0000000000000000e+00 1.6609600000000000e+01 -1.8606000000000000e+00
ITEM: ATOMS id type x y z
3 4 0.837881 1.07859 5.35247
4 4 0.112378 3.52089 7.44359
74 2 2.72949 2.77573 8.03222
21 4 2.94482 5.73197 4.85378
41 2 2.47054 1.16041 4.80024
50 2 4.08533 2.64779 1.5394
52 2 3.13936 4.1991 5.63884
80 2 2.69376 4.57448 0.380734
69 2 -1.80424 5.21369 6.96085
68 2 -0.0305537 5.84616 6.69114
227 4 1.49979 2.03667 0.599238
231 3 -0.11083 2.39958 0.448444
83 2 -0.818419 6.19773 2.50138
84 2 0.173317 5.07072 1.28045
120 1 -0.793609 5.02775 6.52034
126 1 -0.124519 6.14273 1.60445
138 3 -0.0323172 1.21779 4.05986
139 3 0.787876 -0.265181 6.18202
140 3 0.742116 2.46656 6.37955
229 2 2.15865 3.20747 1.83788
65 2 -1.99447 2.99682 8.26578
155 3 1.91084 5.55134 3.63757
201 2 5.2221 0.265214 3.77062
202 2 3.71204 1.41374 3.75794
203 2 3.83721 -0.139812 4.91748
206 2 3.70893 2.60104 6.036
213 1 4.36779 0.733867 4.36209
218 3 5.81422 0.529514 7.00835
67 2 -0.744619 4.67295 5.4384
193 4 5.70981 1.46949 5.75085
230 3 1.85557 0.621912 1.15414
266 2 4.44391 4.97333 0.0181158
14 4 6.43667 -0.785589 7.80154
18 4 5.20584 3.93474 1.20462
125 1 3.16501 3.51104 0.222156
214 1 4.79106 3.1244 6.07627
149 3 2.63313 -0.125935 8.2942
15 4 3.12276 0.894152 9.52511
17 4 5.35044 0.711285 11.8074
151 3 5.17036 -0.324348 12.9902
42 2 -0.54154 4.27942 12.6092
48 2 1.90048 1.97347 10.042
75 2 4.5665 2.43157 8.66902
119 1 -1.02587 2.55743 8.65766
66 2 -0.680907 2.97404 9.61528
153 3 1.1657 4.5127 8.49711
141 3 -2.09225 4.80793 10.4545
76 2 3.32087 3.63677 9.61761
6 4 -0.959497 5.42296 11.526
81 2 2.44326 1.49242 15.8119
270 2 -0.691817 -0.324109 9.41005
91 2 1.08415 4.85361 15.235
123 1 3.387 2.68431 8.97059
228 2 1.08359 0.445833 15.6476
150 3 4.08962 0.676517 10.7112
64 2 -1.0928 1.32305 8.64516
19 4 1.51449 6.57285 2.41399
2 4 -4.04496 12.2618 6.95415
8 4 -2.10296 8.4955 6.5383
9 4 -2.62393 10.5432 4.55571
253 2 -2.19594 11.7098 1.51584
61 2 -4.01032 10.1898 7.95332
1 4 -4.13413 12.7923 1.98311
25 4 0.0616037 11.2856 2.98186
27 4 1.9809 7.71346 7.01728
165 3 2.45169 6.60878 5.98667
44 2 -1.40005 6.96396 6.51238
45 2 -3.59245 7.79928 6.91147
51 2 0.742801 8.01697 3.09941
60 2 -3.30129 10.54 0.370312
82 2 -0.460529 6.8481 0.756974
170 3 1.46664 9.10342 6.28272
93 2 -0.556409 8.81921 2.43525
94 2 1.31538 9.35821 2.28476
95 2 0.0410371 9.70819 0.939359
117 1 -3.08685 11.6096 0.771978
118 1 -4.96124 10.7456 7.6595
130 1 0.200146 9.58252 2.04779
142 3 -5.29444 11.9013 2.43095
143 3 -3.96516 10.2799 3.84286
144 3 -2.01932 9.21118 5.14387
145 3 -2.99555 11.8309 5.78845
159 3 2.52932 7.10102 1.3681
160 3 0.366408 12.4451 1.95031
161 3 -1.46051 11.2074 3.48248
166 3 -1.75355 9.33333 7.75675
24 4 3.40912 8.0819 0.132937
171 3 1.0723 11.746 6.86495
169 3 1.15354 11.088 4.22166
29 4 1.66523 10.6851 5.75599
246 2 -3.02615 13.0332 3.29936
238 2 -5.32302 9.69414 15.6781
167 3 -0.88539 11.7095 8.45444
10 4 -2.68912 7.62909 13.0169
11 4 -3.5589 10.068 11.167
16 4 -0.437326 11.7177 13.5912
28 4 -1.34219 10.3541 9.03333
30 4 -1.53881 9.45972 15.1026
43 2 -1.64431 6.67933 8.47414
46 2 -4.09199 6.81002 13.5559
47 2 -5.3369 10.174 10.8428
31 4 0.929545 10.0546 11.2088
129 1 1.90571 5.653 15.0132
71 2 -5.14979 12.0763 11.2141
63 2 -5.54964 11.1594 8.5095
72 2 -3.58808 12.0387 12.2544
267 2 1.61159 6.50071 14.3574
99 2 1.76267 7.58687 11.4311
100 2 0.105522 7.97667 12.2006
121 1 -4.59326 11.4804 11.9812
175 3 -0.214847 9.83653 10.0583
132 1 1.15617 8.31711 12.0598
262 2 -4.01731 7.15545 15.3277
146 3 -1.60023 6.63313 12.3514
147 3 -3.09208 8.82122 12.0552
176 3 0.522007 11.019 12.412
70 2 -5.1349 11.2679 12.8851
157 3 2.92784 5.95161 9.97688
168 3 -2.77103 10.4645 9.89813
172 3 -2.23239 8.23508 14.4447
173 3 -0.1687 9.34386 15.8325
174 3 -1.60102 10.704 14.1434
252 2 -4.16972 10.5988 16.5599
20 4 1.33831 5.84369 9.36102
55 2 -2.57343 9.94312 16.4593
154 3 0.381099 5.74325 10.6513
180 3 -3.99278 6.61941 9.8921
164 3 0.983591 7.05482 8.39695
92 2 3.03839 5.25132 14.869
101 2 1.71384 8.59543 13.0146
5 4 -2.84629 5.73109 9.27309
211 2 7.77842 3.01019 7.35907
226 3 11.1173 4.80351 8.23223
256 2 10.8704 3.97144 1.83
73 2 9.05535 3.31703 0.874784
105 2 7.19631 4.32343 4.74609
257 1 11.9402 3.66082 1.54616
224 3 10.9945 0.650358 7.30816
111 2 8.28672 5.64635 2.20019
33 4 5.75118 6.07246 3.74621
106 2 6.45825 5.37235 6.15098
222 3 12.2412 1.13199 5.00243
152 3 6.51084 3.31139 0.549748
177 3 5.42964 4.81339 2.62744
192 4 13.176 1.1921 3.73313
223 3 9.64603 0.609948 4.84976