ITEM: TIMESTEP
0
ITEM: NUMBER OF ATOMS
271
ITEM: BOX BOUNDS xy xz yz pp pp pp
-7.2018999999999993e+00 1.4748699999999999e+01 -6.1971999999999996e+00
-1.8606000000000000e+00 1.3431800000000001e+01 -1.0046999999999999e+00
0.0000000000000000e+00 1.6775696000000000e+01 -1.8606000000000000e+00
ITEM: ATOMS id type x y z
3 4 1.0968 1.14485 5.32576
4 4 0.355197 3.43892 7.41721
125 1 3.16843 3.92753 0.183865
21 4 3.10061 5.80387 5.04938
41 2 2.6579 1.01188 4.68715
50 2 3.80822 2.70874 1.42875
52 2 3.05492 4.12264 5.45965
246 2 2.79129 0.0258595 3.22138
69 2 -0.965068 5.54958 7.31579
68 2 0.0619096 5.52613 5.7212
227 4 1.36534 2.41719 0.52134
231 3 -0.121815 2.70073 0.23454
83 2 0.465827 4.58573 2.57549
84 2 -0.138688 5.63532 1.00179
120 1 -0.635034 4.97902 6.38893
126 1 -0.0121619 5.62658 2.16496
138 3 0.105318 1.38863 4.05992
139 3 0.881637 -0.12771 6.17363
140 3 1.0408 2.40266 6.31788
229 2 1.85119 3.59565 1.67587
204 2 4.52779 3.37644 4.70324
155 3 2.25549 5.89637 3.67066
201 2 5.2238 0.226608 3.2107
202 2 3.88966 1.57943 3.69708
203 2 3.93602 -0.191202 4.5336
206 2 3.53739 2.74018 6.17336
213 1 4.49928 0.631997 4.00816
218 3 5.74843 0.622683 6.94364
67 2 -1.5058 4.51128 5.87443
193 4 5.68509 1.40358 5.50364
230 3 1.76633 0.971633 1.03419
255 2 -1.92357 4.26646 2.25502
80 2 2.83199 5.06647 0.495805
18 4 5.17819 3.94887 1.17027
65 2 -1.76127 3.08961 8.21917
214 1 4.59888 2.95525 5.79405
82 2 -0.942165 5.94485 2.71502
14 4 6.27071 -0.682471 7.75908
74 2 3.09618 2.93088 8.2096
149 3 2.54464 -0.185294 8.3834
15 4 3.0767 0.851202 9.5951
17 4 5.14293 0.718424 11.9174
151 3 5.19808 -0.276979 13.2418
42 2 -0.427106 3.58886 12.216
48 2 1.98768 2.22507 9.89283
266 2 3.7302 3.24422 16.7399
119 1 -0.831603 2.52865 8.56864
66 2 -0.443938 2.90491 9.58714
153 3 1.32398 4.28182 8.49153
141 3 -2.2241 4.86462 10.6646
76 2 3.9874 3.373 9.78307
75 2 4.73626 2.06735 8.60523
81 2 2.65446 1.99662 15.8962
270 2 -0.786621 -0.00986288 9.38189
91 2 1.74055 4.37057 15.3077
123 1 3.73892 2.54983 9.10132
228 2 1.3348 0.87038 15.7555
150 3 3.8747 0.362545 10.8966
64 2 -1.00319 1.35229 8.47209
6 4 -0.828491 5.2039 11.4991
19 4 1.46797 6.69139 2.50606
2 4 -4.06344 12.2559 7.15903
8 4 -1.9272 8.41242 6.62075
9 4 -2.55739 10.5619 4.63699
253 2 -2.0123 12.497 1.3857
61 2 -4.86224 9.84359 7.23729
239 2 -3.46748 9.27315 0.56837
25 4 -0.0246406 11.1939 3.024
27 4 1.83469 7.76687 7.06084
29 4 1.55936 10.7573 5.82346
44 2 -1.02309 6.94231 6.36722
45 2 -3.3708 7.71965 7.10062
51 2 0.638112 8.09608 3.20444
60 2 -3.05272 11.1843 0.0847436
171 3 0.95359 11.7799 6.83752
170 3 1.27843 9.1185 6.35116
93 2 -0.56868 8.70624 2.27669
94 2 1.15988 9.26907 1.91659
95 2 -0.208092 9.91219 0.965703
117 1 -2.85287 12.2949 0.422544
118 1 -5.18333 10.8321 7.70382
130 1 0.105113 9.53896 1.94855
142 3 -5.06935 11.7587 2.05001
143 3 -3.93151 10.1544 3.89034
144 3 -2.02989 9.12749 5.21779
145 3 -3.02341 11.659 5.97865
159 3 2.41928 7.01213 1.09987
160 3 0.370383 12.539 2.13883
161 3 -1.58919 11.2952 3.54689
166 3 -1.40554 9.33379 7.78153
24 4 3.45385 7.89339 0.116147
260 2 -5.98016 11.9652 5.27508
169 3 1.05181 10.9727 4.23603
165 3 2.34355 6.64534 6.14485
1 4 -4.17004 13.0008 1.6694
238 2 -5.35153 10.0426 15.9444
167 3 -0.979763 11.8655 8.53027
10 4 -2.28218 7.22931 13.3518
11 4 -3.11252 9.70338 11.4109
16 4 -0.326979 11.7609 13.7709
28 4 -1.08732 10.3008 9.08036
30 4 -1.18158 9.31806 15.2649
43 2 -2.02058 6.86277 8.85501
46 2 -3.71666 6.38646 13.6555
47 2 -4.87232 9.94228 11.3073
31 4 1.14388 10.173 11.3687
129 1 2.48882 5.2662 15.1449
240 1 -4.59966 7.49751 16.2111
63 2 -5.09998 10.9059 8.82298
72 2 -3.51856 10.9746 13.3183
267 2 2.23586 6.04289 14.3517
99 2 1.6921 7.67443 11.5091
100 2 0.146578 8.26568 12.5447
121 1 -3.81676 11.2683 12.219
175 3 0.139607 9.98861 10.0462
132 1 1.24724 8.47089 12.2385
262 2 -3.76363 8.0936 15.7097
146 3 -1.2758 6.20053 12.6756
147 3 -2.69607 8.51122 12.3651
176 3 0.539075 11.0762 12.5467
70 2 -4.9588 11.611 12.256
157 3 2.84991 6.12862 10.013
168 3 -2.44636 10.1442 10.0654
172 3 -1.74103 7.85962 14.6658
173 3 0.161766 9.20113 15.9554
174 3 -1.34557 10.639 14.4109
252 2 -3.86064 11.2069 16.387
20 4 1.32897 5.82787 9.36865
5 4 -3.05799 5.73338 9.4959
101 2 1.92779 8.59143 13.1889
154 3 0.299754 5.61541 10.5657
164 3 0.858059 7.03122 8.40426
55 2 -2.23592 9.52681 16.6717
71 2 -3.0931 12.1171 11.8003
268 2 13.7112 -0.328407 7.44603
226 3 11.0921 4.8244 8.29997
256 2 11.0615 4.45022 1.7105
73 2 9.13279 3.07917 0.409742
105 2 7.31991 3.90917 4.42503
257 1 12.0975 3.93271 1.51344
224 3 11.1736 0.27898 7.25857
111 2 8.57676 5.7507 1.78992
33 4 5.88861 5.80004 3.82088
106 2 7.07253 4.88204 5.94665
222 3 12.4333 1.16909 5.05885
152 3 6.35469 3.15006 0.533717
177 3 5.4772 4.73317 2.57295
192 4 13.3008 1.31239 3.71654
223 3 9.82241 0.807475 4.87318
194 4 8.62148 1.40213 4.05868
196 4 11.0855 1.21602 5.83917
197 4 10.2593 3.84931 7.34932
212 2 7.81754 4.39504 8.07659
199 2 8.92926 2.99287 3.90242
200 2 8.89323 4.5918 6.49268
205 2 5.27473 3.50453 6.53112
217 1 8.45149 3.43412 7.98567
225 3 10.8949 2.81347 6.33416
247 2 11.933 2.27968 1.41224
198 2 12.7892 2.79529 2.93645
219 3 12.8507 0.0747367 2.72229
220 3 8.58388 0.917044 2.4998
221 3 7.17473 1.41003 4.82212
134 1 7.2207 4.92276 4.81582
107 2 8.10998 5.61314 4.51184
211 2 7.97539 2.59703 7.41601
113 2 8.16715 6.58084 0.0445645
22 4 5.82944 4.00165 12.053
148 3 6.60434 -1.13108 16.5945
57 2 8.64694 5.17833 11.369
77 2 6.42963 1.12848 9.78626
49 2 7.0568 -1.36053 14.9836
79 2 7.58606 0.919279 11.3612
53 2 6.05493 4.45912 13.9007
86 2 8.23707 4.01619 13.5791
122 1 7.66881 1.3745 15.3454
124 1 6.6863 0.522011 10.7081
127 1 7.55662 4.55082 12.8928
158 3 5.06064 5.08657 11.2102
195 4 11.4171 -0.3935 8.67689
207 2 11.5282 0.39472 11.0034
208 2 9.80292 0.531443 10.2562
209 2 11.2056 1.76309 9.67101
210 2 9.02941 2.9444 9.02272
254 2 11.4427 2.93775 16.7241
215 1 10.9298 0.746111 10.0939
249 2 7.37635 -0.0909358 8.91978
92 2 3.63826 4.94442 15.2222
233 4 11.3437 -0.734114 14.1603
234 2 10.1289 -0.246654 13.0615
235 3 11.4202 0.414628 15.3466
85 2 7.59475 3.73356 11.3675
265 2 8.58308 0.843096 15.1353
248 2 6.67819 1.08688 14.522
264 2 7.7784 2.49375 15.5386
216 1 13.4638 -0.633718 8.59017
236 3 12.6429 -0.9491 13.2792
156 3 5.23298 2.33488 12.1037
13 4 6.55924 0.472031 16.6912
78 2 6.55212 -0.65631 10.5283
232 4 11.9607 1.1693 16.7328
112 2 9.66391 7.19134 1.10828
12 4 1.7735 13.1946 1.49558
32 4 5.71965 12.3644 2.13749
36 4 7.55256 7.92136 1.98426
7 4 9.36748 10.4017 3.25932
110 2 7.79284 9.82922 8.15653
96 2 3.46177 12.3068 5.47295
97 2 3.87555 10.394 5.38392
98 2 3.86564 11.2575 7.11741
102 2 5.72557 10.3832 3.52886
103 2 4.1501 11.5486 3.6211
104 2 5.68633 11.9074 4.79702
259 2 7.27033 11.0189 4.3706
109 2 5.95539 9.71183 7.90886
261 1 8.41252 10.9538 4.76244
114 2 4.22018 7.81091 7.19033
178 3 4.60467 6.28816 4.86059
116 2 3.59343 9.62979 7.29824
131 1 3.41563 11.2256 6.02186
133 1 5.35689 11.4397 3.7706
136 1 8.62919 6.69448 1.10258
137 1 3.49187 8.50118 7.72248
163 3 2.99028 12.0797 1.12895
250 2 4.39753 13.0308 1.30668
182 3 6.79503 7.21733 3.19328
183 3 8.61709 9.16405 2.66453
184 3 6.35255 8.5999 0.695424
185 3 6.41876 11.3345 1.13149
62 2 8.56741 11.3092 7.25601
258 2 8.56788 10.1035 5.49868
56 2 6.50355 8.08572 6.97758
54 2 5.01466 7.62243 0.886771
37 4 6.75238 10.1769 0.0570172
23 4 4.36564 6.32323 10.4514
26 4 1.63391 9.12054 16.3741
263 2 9.95608 6.53371 15.6607
34 4 6.63059 7.39584 8.59684
35 4 8.99199 6.65146 10.4448
38 4 4.1075 10.5974 10.3465
39 4 7.79085 8.60669 12.4736
40 4 6.51171 11.4079 11.9243
58 2 4.60032 8.9706 10.1109
59 2 6.32857 7.7185 12.4965
269 2 7.42223 11.7159 8.89534
88 2 3.25276 8.13829 11.9579
89 2 5.14227 8.80509 11.731
90 2 4.82835 7.04921 12.6107
237 4 8.63865 8.54013 15.5191
271 3 7.27029 8.30598 16.3479
128 1 4.46589 7.89322 11.7914
108 2 6.6553 9.42175 9.72095
245 3 2.62593 9.76219 15.2205
179 3 5.29948 6.90324 9.32583
87 2 7.79381 5.64824 12.7002
181 3 7.94271 6.60576 9.0616
186 3 4.4618 11.4302 8.97301
187 3 2.54392 10.4984 10.7123
188 3 8.80672 7.95598 11.3949
189 3 8.46757 8.50004 13.9557
190 3 5.03618 11.2632 11.5004
191 3 7.27873 10.0476 12.1008
241 4 4.13739 9.82815 14.8242
242 2 4.22941 9.29007 13.1906
243 3 4.92716 8.70598 15.5141
244 3 4.72632 11.294 14.8429
180 3 10.4441 6.53364 10.0201
115 2 3.42794 8.39287 8.87023
162 3 2.05036 7.58863 16.6411
135 1 6.82307 9.32022 8.48318
251 2 7.18533 12.238 10.4741
ITEM: TIMESTEP
100
ITEM: NUMBER OF ATOMS
271
ITEM: BOX BOUNDS xy xz yz pp pp pp
-7.2018999999999993e+00 1.4748699999999999e+01 -6.1971999999999996e+00
-1.8606000000000000e+00 1.3431800000000001e+01 -1.0046999999999999e+00
0.0000000000000000e+00 1.6775696000000000e+01 -1.8606000000000000e+00
ITEM: ATOMS id type x y z
3 4 1.03283 1.27665 5.32486
4 4 0.328815 3.59832 7.40803
125 1 3.25037 3.62309 0.144438
21 4 3.04492 5.80781 4.97672
41 2 2.68605 1.23358 4.83688
50 2 3.912 2.61818 1.51279
52 2 3.04171 4.24054 5.62907
74 2 3.02628 2.90081 7.98465
69 2 -1.61204 5.38684 7.03097
68 2 0.0683134 5.83359 6.26582
227 4 1.45685 2.29262 0.517418
231 3 0.0548962 2.79001 0.181504
83 2 -0.0383611 5.12595 3.1845
84 2 0.0981398 5.21753 1.27775
120 1 -0.689783 5.0152 6.47972
126 1 -0.0876148 5.81272 2.19377
138 3 0.101338 1.43345 4.05344
139 3 0.762434 -0.108932 5.94862
140 3 0.873989 2.59363 6.34478
229 2 2.01924 3.42462 1.71168
204 2 4.49236 3.42852 4.53586
155 3 2.37049 5.87052 3.53767
201 2 5.1548 0.133891 3.54977
202 2 3.90825 1.49785 4.00895
203 2 3.90018 -0.162663 5.02315
206 2 3.71276 2.71361 6.21076
213 1 4.48003 0.604262 4.33027
218 3 5.76004 0.665636 7.00343
67 2 -0.942869 4.54054 5.51841
193 4 5.80483 1.46696 5.68056
230 3 1.84059 0.852268 1.18675
255 2 -2.0827 4.17063 2.19467
80 2 2.95476 4.64298 0.317349
18 4 5.16418 3.89521 1.27176
65 2 -1.80449 3.01042 7.99166
214 1 4.63884 3.016 5.60714
246 2 2.99589 -0.133511 3.30671
14 4 6.35033 -0.625364 7.83266
266 2 4.60125 5.08281 0.0911777
82 2 -1.00503 6.44094 2.16576
254 2 -2.15853 4.79322 0.085386
149 3 2.65435 -0.247066 8.27987
15 4 3.17055 0.8179 9.52303
17 4 5.2166 0.802177 11.8414
151 3 5.45034 -0.270854 13.2441
42 2 -0.171491 3.85884 12.371
48 2 1.99226 2.0582 9.90063
6 4 -0.899376 5.18575 11.5232
119 1 -0.871563 2.57716 8.56041
66 2 -0.688771 3.0004 9.59977
5 4 -2.91448 5.61964 9.38667
141 3 -2.1151 4.71709 10.5319
76 2 3.69744 3.28334 9.70604
75 2 4.70781 2.13975 8.45836
81 2 2.6609 1.69631 15.8422
270 2 -0.675869 -0.119202 9.63644
91 2 1.77243 4.47522 15.0831
123 1 3.60571 2.52539 8.81332
228 2 1.28613 0.564421 15.6733
150 3 3.81786 0.425624 10.9919
64 2 -0.882164 1.46163 8.4904
153 3 1.36812 4.51031 8.40926
19 4 1.47974 6.80001 2.52645
2 4 -4.09813 12.2775 6.98964
8 4 -1.88135 8.41578 6.64405
9 4 -2.56255 10.5584 4.7505
253 2 -2.02136 12.1334 1.25384
61 2 -4.24817 9.88995 7.1655
239 2 -3.73837 9.26583 0.463565
25 4 0.0997017 11.2318 3.17773
27 4 1.67184 7.73587 7.0768
29 4 1.64418 10.7773 5.89461
44 2 -0.957125 6.99551 6.50301
45 2 -3.3193 7.63209 6.83788
51 2 0.881655 8.26254 3.21019
1 4 -4.04571 12.8856 1.83827
171 3 1.03025 11.9624 6.8744
170 3 1.38089 9.24828 6.45868
93 2 -0.395006 8.82294 2.24074
94 2 1.34442 9.40426 1.83071
95 2 -0.0816313 10.231 1.051
117 1 -2.98504 12.0528 0.442663
118 1 -4.91653 10.6807 7.59411
130 1 0.289651 9.69214 1.97934
142 3 -5.19154 11.8543 2.23974
143 3 -4.00485 10.2603 4.03278
144 3 -1.87418 9.15742 5.29908
145 3 -2.94308 11.7496 5.96037
159 3 2.32887 7.00585 1.10742
160 3 0.295067 12.5013 2.10089
161 3 -1.4114 11.2599 3.66664
166 3 -1.52619 9.22518 7.8691
24 4 3.39685 7.99061 0.19677
164 3 0.871968 7.02042 8.28607
169 3 1.26905 11.0638 4.34307
165 3 2.15828 6.69895 5.95598
60 2 -3.31309 10.9757 0.110736
238 2 -5.48102 10.0386 15.8608
167 3 -0.834506 11.8243 8.56353
10 4 -2.32297 7.28965 13.2032
11 4 -3.21727 9.58166 11.2991
16 4 -0.257256 11.6916 13.7033
28 4 -1.23944 10.2339 9.08857
30 4 -1.18683 9.35014 15.23
43 2 -1.7627 6.68221 8.77564
46 2 -3.64235 6.35355 13.6412
47 2 -4.96895 10.0296 11.3472
31 4 0.977421 10.0558 11.3181
129 1 2.29805 5.41813 15.2036
240 1 -4.84464 7.31351 16.0992
63 2 -4.93616 10.7416 8.74783
72 2 -2.98 10.9074 13.2478
267 2 1.73242 6.31593 14.6456
99 2 1.48612 7.56073 11.4254
100 2 0.182672 8.16239 12.6156
121 1 -3.78862 11.091 12.3911
175 3 0.0941408 9.81473 9.91222
132 1 1.23653 8.3613 12.1931
262 2 -3.95479 7.79683 15.499
146 3 -1.20223 6.25544 12.707
147 3 -2.86573 8.3963 12.1902
176 3 0.462945 11.1431 12.3136
70 2 -4.80831 11.025 12.7154
157 3 2.91919 6.06788 9.97357
168 3 -2.44775 10.1482 10.0896
172 3 -1.88273 8.03672 14.5888
173 3 0.258616 9.1846 15.8573
174 3 -1.39185 10.6 14.2744
252 2 -4.02285 11.0511 16.446
20 4 1.40006 5.80093 9.39994
55 2 -2.18468 9.76759 16.6173
71 2 -3.63109 11.9679 11.6991
154 3 0.249547 5.68957 10.5764
180 3 -4.05434 6.50047 10.0073
101 2 1.98637 8.52013 12.9841
211 2 7.89626 3.16791 7.07256
226 3 11.3638 4.70101 8.21778
256 2 11.0237 3.93446 1.54345
73 2 9.30478 3.10736 0.360643
105 2 7.03867 3.87495 4.2701
257 1 12.0765 3.68922 1.38501
224 3 11.0484 0.292426 7.3169
111 2 8.53952 5.72039 2.06178
33 4 5.81176 5.91204 3.78718
106 2 7.01858 4.94607 5.88929
222 3 12.4565 1.17795 5.06081
152 3 6.47285 3.20005 0.653731
177 3 5.26891 4.7451 2.60728
192 4 13.3109 1.30715 3.74091
223 3 9.70261 0.693745 4.8349
194 4 8.60606 1.54982 4.04738
196 4 11.029 1.17552 5.82328
197 4 10.308 3.80213 7.31232
113 2 8.55083 6.53562 0.347883
199 2 9.23321 3.06241 3.84543
200 2 9.03263 4.90379 6.83042
205 2 5.34497 3.68444 6.16249
217 1 8.50632 3.43541 8.01494
225 3 10.7036 2.83142 6.18453
247 2 12.2486 1.88613 1.1639
198 2 12.9151 2.81536 2.92518
219 3 12.724 0.16069 2.74226
220 3 8.45788 0.848937 2.59762
221 3 7.16289 1.71096 4.85269
134 1 7.09026 4.90683 4.74401
107 2 8.02873 5.48579 4.40356
268 2 13.9512 -0.282713 7.81361
22 4 6.00035 3.96579 11.9994
148 3 6.76668 -1.09933 16.6444
57 2 8.64247 5.36727 11.3639
77 2 6.50505 1.2578 9.89107
49 2 7.058 -1.64483 15.0242
79 2 7.7652 0.900178 11.305
53 2 6.24369 4.58268 13.8781
86 2 8.46228 4.21319 13.4507
122 1 7.66229 1.4603 15.3526
124 1 6.83995 0.563678 10.7908
127 1 7.57848 4.66436 12.8742
158 3 5.21892 5.09531 11.2035
195 4 11.4095 -0.398699 8.70553
207 2 12.1733 0.996467 10.3249
208 2 10.3291 0.0279759 10.7624
209 2 10.3194 1.64227 9.6859
210 2 9.05531 2.47945 8.63355
78 2 6.859 -0.537416 10.6834
215 1 10.9496 0.70847 10.0223
249 2 7.39643 -0.0111047 9.03826
232 4 12.0409 1.08608 16.6791
233 4 11.1911 -0.761126 14.2242
234 2 9.81406 -0.281398 13.3471
235 3 11.3203 0.410062 15.1646
85 2 7.69733 3.80011 11.29
265 2 8.82487 1.21938 15.2099
248 2 6.98315 0.913896 14.5399
264 2 7.46302 2.54576 15.3302
216 1 13.5468 -0.622569 8.771
236 3 12.5367 -0.838817 13.183
156 3 5.46321 2.37603 12.1185
13 4 6.73158 0.538754 16.7425
251 2 13.295 -1.0767 10.6833
212 2 8.02334 4.07313 8.76979
112 2 9.845 7.05624 1.61333
12 4 1.73596 13.2145 1.56819
32 4 5.82767 12.303 2.21108
36 4 7.68208 7.97428 2.13523
7 4 9.35676 10.49 3.32254
110 2 8.07715 9.89937 8.28344
96 2 3.66112 11.9931 5.64842
97 2 4.07374 10.0945 5.59536
98 2 3.85518 10.9881 7.30608
102 2 5.39307 10.1895 3.57139
103 2 3.92371 11.3947 3.27935
104 2 5.29193 11.7312 4.56426
259 2 6.97085 11.1308 4.35116
109 2 6.15852 9.91799 8.01616
261 1 8.11019 10.9727 4.65467
114 2 4.05178 7.39202 7.43297
178 3 4.54148 6.27608 4.93628
116 2 3.61889 9.24526 7.50402
131 1 3.50103 10.9316 6.14246
133 1 5.03647 11.2576 3.60337
136 1 8.83146 6.65762 1.45238
137 1 3.38352 8.19837 7.85074
163 3 2.81494 12.0473 1.35504
250 2 4.33226 12.8405 1.60769
182 3 6.61684 7.15465 2.96934
183 3 8.65676 9.05247 2.68928
184 3 6.55718 8.55321 0.706433
185 3 6.45037 11.2624 1.1179
62 2 8.77562 10.8976 7.03367
258 2 8.17873 10.0635 5.3516
56 2 6.55577 8.25462 7.13467
54 2 4.96639 7.90237 0.725928
37 4 6.76563 10.13 0.0341675
260 2 8.6365 11.9319 5.13287
162 3 3.04374 9.52495 0.118679
23 4 4.41952 6.33773 10.5059
26 4 1.64591 9.1908 16.4896
263 2 9.48293 6.35267 15.7583
34 4 6.7582 7.57654 8.74994
35 4 9.13738 6.70359 10.3586
38 4 3.94337 10.5197 10.3829
39 4 7.63605 8.55504 12.3379
40 4 6.349 11.4614 11.9479
58 2 4.65138 9.00707 10.2383
59 2 6.39647 7.43287 12.2296
269 2 7.39392 11.6817 8.72614
88 2 3.25307 8.0999 11.9094
89 2 5.15645 8.7104 11.9758
90 2 4.74258 6.9488 12.7039
237 4 8.55448 8.49699 15.3642
271 3 7.26667 8.24723 16.2686
128 1 4.45928 7.84398 11.8282
108 2 6.82713 9.62797 9.81374
245 3 2.60668 9.87585 15.271
179 3 5.42445 6.96085 9.30913
87 2 7.66938 5.74103 12.696
181 3 8.23975 6.88596 8.93379
186 3 4.30232 11.2682 8.98843
187 3 2.47899 10.4544 10.7911
188 3 8.65043 8.10192 11.1458
189 3 8.2969 8.41289 13.7825
190 3 4.82056 11.2594 11.5438
191 3 7.12083 10.0303 12.0429
241 4 4.05333 9.72082 14.7325
242 2 3.93065 9.25809 13.1069
243 3 4.84096 8.57608 15.3541
244 3 4.63362 11.1525 14.9073
92 2 3.46003 5.41102 15.0128
115 2 3.22329 8.11118 8.9881
135 1 7.01055 9.45006 8.61432
ITEM: TIMESTEP
200
ITEM: NUMBER OF ATOMS
271
ITEM: BOX BOUNDS xy xz yz pp pp pp
-7.2018999999999993e+00 1.4748699999999999e+01 -6.1971999999999996e+00
-1.8606000000000000e+00 1.3431800000000001e+01 -1.0046999999999999e+00
0.0000000000000000e+00 1.6775696000000000e+01 -1.8606000000000000e+00
ITEM: ATOMS id type x y z
3 4 1.0491 1.21459 5.3405
4 4 0.197878 3.55399 7.43316
125 1 3.23849 3.48067 0.0667509
21 4 3.02444 5.85 4.94148
41 2 2.6126 1.25556 4.58028
50 2 4.08191 2.51879 1.47924
52 2 3.25636 4.23003 5.45461
74 2 2.91651 2.57524 7.7218
69 2 -1.57922 5.32745 7.0569
68 2 -0.0927145 5.82102 6.00945
227 4 1.49629 2.23428 0.55946
231 3 0.0309067 2.5047 0.277946
83 2 -0.422394 5.51706 3.00189
84 2 0.0880802 5.25718 1.19325
120 1 -0.764538 4.97632 6.38871
126 1 -0.187947 6.00551 1.96706
138 3 0.037368 1.43134 4.13914
139 3 0.751721 -0.0791993 6.15865
140 3 0.905216 2.46917 6.49712
229 2 2.07697 3.6267 1.62641
204 2 4.87993 3.62842 5.0455
155 3 2.18555 5.77095 3.55296
201 2 5.37761 0.366528 3.62272
202 2 3.9189 1.56834 3.7583
203 2 3.97439 -0.208933 4.85941
206 2 3.77005 2.73483 6.20127
213 1 4.4806 0.719691 4.29877
218 3 5.88206 0.598375 6.99899
67 2 -1.25887 4.38077 5.53317
193 4 5.82992 1.46692 5.72041
230 3 1.84028 0.788031 1.33613
149 3 2.59979 -0.181949 8.27398
80 2 2.81654 4.48571 0.107622
18 4 5.22958 3.85966 1.22265
14 4 6.37953 -0.678835 7.87918
214 1 4.83697 3.08716 6.03132
15 4 3.05322 0.815623 9.46325
17 4 5.30025 0.704893 11.8823
151 3 5.36481 -0.24023 13.2485
42 2 -0.416747 4.0319 12.4177
48 2 1.81285 1.9734 9.68234
6 4 -0.754858 5.28497 11.5551
119 1 -0.870875 2.55387 8.60634
66 2 -0.432976 2.93944 9.60931
5 4 -2.86829 5.57762 9.48784
141 3 -2.17967 4.67845 10.6426
76 2 3.27887 3.36147 9.3939
75 2 4.66992 2.26859 8.62315
81 2 2.58398 1.44599 15.8606
270 2 -0.729158 -0.191465 9.46715
91 2 1.46582 4.66671 15.1011
123 1 3.52666 2.51408 8.74034
228 2 1.2204 0.539182 15.6778
150 3 4.01156 0.429416 10.6719
64 2 -1.06011 1.32473 8.62732
153 3 1.26998 4.31669 8.55305
266 2 3.59782 2.98763 16.7008
71 2 1.89682 -1.22833 11.9033
65 2 -1.8872 3.07485 8.42771
19 4 1.50301 6.71695 2.47609
2 4 -4.03707 12.4423 6.98741
8 4 -2.02285 8.41628 6.61697
9 4 -2.49477 10.5589 4.74548
253 2 -2.18976 11.58 1.39404
61 2 -4.10717 10.0636 7.34272
82 2 -0.948821 6.73015 1.62861
25 4 0.20718 11.1802 3.16674
27 4 1.83821 7.78208 7.15783
165 3 2.15994 6.6302 6.0514
44 2 -1.10841 6.89781 6.51826
45 2 -3.61824 7.95189 6.80033
51 2 0.809474 8.0748 3.21686
1 4 -4.06682 12.8 1.97074
60 2 -3.23541 10.5725 0.163418
170 3 1.3478 9.24125 6.4368
93 2 -0.407958 8.91037 2.33062
94 2 1.48048 9.28429 2.05049
95 2 0.0561745 10.208 1.03812
117 1 -3.16638 11.6619 0.664645
118 1 -4.90733 10.8315 7.58365
130 1 0.368547 9.68422 2.06062
142 3 -5.26956 11.8712 2.4152
143 3 -3.85944 10.2487 4.00479
144 3 -1.9192 9.15062 5.25939
145 3 -2.89551 11.9713 5.84781
159 3 2.52757 7.28291 1.13722
160 3 0.316425 12.6472 1.96168
161 3 -1.24941 11.2285 3.7304
166 3 -1.50974 9.30444 7.8289
24 4 3.43204 8.08247 0.199642
246 2 -2.88144 12.951 3.24971
169 3 1.27179 11.037 4.33143
238 2 -5.04962 9.73626 15.6537
167 3 -0.857343 11.7899 8.66422
10 4 -2.41641 7.3603 13.1675
11 4 -3.35196 9.74095 11.2502
16 4 -0.200706 11.719 13.7158
28 4 -1.22101 10.305 9.04049
30 4 -1.3451 9.41661 15.1671
43 2 -1.65634 6.55322 8.80164
46 2 -3.77898 6.56547 13.6714
47 2 -5.10673 10.0202 11.0758
31 4 1.04419 9.98006 11.2137
129 1 2.13114 5.51313 15.2034
240 1 -4.93184 7.07866 15.747
63 2 -5.05009 11.0744 8.72569
72 2 -3.22094 11.1724 12.9786
267 2 1.80677 6.47038 14.7774
99 2 1.54427 7.46651 11.5535
100 2 0.0411358 8.12453 12.4801
121 1 -4.1986 11.1315 12.3009
175 3 -0.133491 9.65966 10.0932
132 1 1.11527 8.30696 12.1456
262 2 -3.91239 7.43128 15.8961
146 3 -1.41679 6.32669 12.5052
147 3 -2.92013 8.51759 12.1681
176 3 0.619918 10.8722 12.488
70 2 -5.2002 10.798 12.9013
157 3 3.01792 6.12169 9.87466
168 3 -2.63166 10.204 9.98675
172 3 -1.89126 8.10325 14.4985
173 3 0.0414502 9.25421 15.855
174 3 -1.38769 10.7989 14.373
252 2 -4.083 10.6431 16.6492
20 4 1.49745 5.78017 9.3523
55 2 -2.45293 9.77573 16.4016
92 2 3.26192 5.24136 15.0985
154 3 0.501987 5.67321 10.6042
180 3 -3.9189 6.60642 9.94356
101 2 1.75159 8.54305 13.0979
164 3 1.00592 7.08779 8.40815
211 2 7.61922 3.31212 7.52746
226 3 11.2901 4.59782 8.22403
256 2 10.9102 3.89472 1.32542
73 2 9.30342 3.17629 0.565051
105 2 7.18668 4.03562 4.76276
257 1 11.9608 3.45856 1.34724
224 3 11.0754 0.365083 7.20476
111 2 8.34201 5.64249 1.8403
33 4 5.81264 5.90723 3.78129
106 2 6.98987 5.36529 5.99681
222 3 12.3507 1.15031 5.0238
152 3 6.5157 3.19359 0.678556
177 3 5.39818 4.74697 2.55242
192 4 13.2734 1.16338 3.75801
223 3 9.72172 0.478124 4.9094
194 4 8.58746 1.50989 4.10621
196 4 10.9384 1.22716 5.80746
197 4 10.1558 3.95845 7.27261
255 2 12.6439 3.96289 2.15144
199 2 9.27855 3.03968 3.80982
200 2 8.83239 4.98127 6.85455
205 2 5.29515 3.61987 6.94036
217 1 8.5029 3.61793 8.18554
225 3 10.579 2.94424 6.05857
247 2 12.09 1.86532 1.38601
198 2 12.8364 2.63622 2.86193
219 3 12.8184 -0.0466548 2.82808
220 3 8.25749 0.942195 2.58975
221 3 7.24953 1.84231 4.94122
134 1 7.12726 5.12774 4.89064
107 2 8.0343 5.73499 4.37687
268 2 13.6228 -0.242383 7.65716
13 4 7.78313 2.48103 0.0971732
12 4 7.89349 -0.134291 1.55583
22 4 6.01654 3.85935 12.0245
148 3 6.89096 -1.00415 16.6284
251 2 13.3174 -1.02856 10.6519
77 2 6.88087 1.22527 10.1706
49 2 7.16904 -1.46114 14.981
79 2 7.89306 0.397739 11.5518
53 2 6.59941 4.48599 13.7318
86 2 8.6725 4.2956 13.1305
122 1 7.69651 1.66334 15.5335
124 1 6.90796 0.366541 10.9396
127 1 7.78849 4.76069 12.6988
158 3 5.15415 4.95451 11.2745
195 4 11.3154 -0.296441 8.6511
207 2 11.9786 1.10621 10.3729
208 2 10.5297 0.0146824 10.9681
209 2 10.1394 1.58527 9.77887
210 2 9.17028 2.74394 8.8708
78 2 6.58635 -0.661033 10.4568
215 1 10.9065 0.715803 10.1235
249 2 7.50689 -0.0362272 9.00913
232 4 12.0891 0.946765 16.7009
233 4 11.167 -0.877961 14.3501
234 2 9.81592 -0.505328 13.4186
235 3 11.3268 0.261345 15.3313
85 2 7.63131 3.89006 11.1364
265 2 8.59403 1.20072 15.1479
248 2 6.82895 1.55163 14.725
264 2 7.8558 2.77789 15.8279
216 1 13.4289 -0.65028 8.66937
236 3 12.4565 -1.02707 13.2246
156 3 5.61995 2.3823 12.3029
212 2 8.14288 4.39711 8.90082
57 2 8.73296 5.41027 11.1298
254 2 11.4982 2.71395 16.7571
112 2 9.77112 6.79809 2.17048
29 4 1.7624 10.7792 5.9355
32 4 5.77092 12.3303 2.0405
36 4 7.65178 7.93498 2.04106
7 4 9.31164 10.5164 3.40448
110 2 8.13242 9.96991 8.21669
96 2 3.82005 12.0272 5.5406
97 2 4.12905 10.1501 5.57799
98 2 3.84658 11.0754 7.25478
102 2 5.58389 10.2077 3.34548
103 2 4.00587 11.3432 3.1343
104 2 5.41778 11.8574 4.4427
259 2 7.01296 11.0723 4.17807
109 2 6.20971 9.94303 7.89288
261 1 8.15498 10.952 4.75912
114 2 4.25958 7.51237 7.57675
178 3 4.54515 6.34515 4.76023
116 2 3.68273 9.35748 7.37707
131 1 3.64458 11.0458 6.07594
133 1 5.14322 11.2213 3.48217
136 1 8.87836 6.61516 1.53478
137 1 3.5176 8.33149 7.88683
163 3 2.84876 12.1787 1.22187
250 2 4.41028 13.0524 1.25958
182 3 6.68505 7.3072 3.09699
183 3 8.46154 9.13528 2.52205
184 3 6.64491 8.40886 0.469737
185 3 6.39295 11.1532 1.12062
62 2 8.89045 10.6641 7.01854
258 2 8.09418 10.0788 5.48426
56 2 6.36985 8.18641 7.26038
54 2 5.12555 8.07722 0.620884
171 3 1.18568 11.8312 6.98505
260 2 8.45023 11.914 5.30698
162 3 2.97893 9.6432 0.0804781
113 2 9.07331 6.72103 0.401121
23 4 4.46242 6.33682 10.5503
26 4 1.51002 9.248 16.474
263 2 9.69629 6.37293 14.8866
34 4 6.87131 7.60621 8.79878
35 4 9.25807 6.77558 10.2968
38 4 4.04966 10.6105 10.2713
39 4 7.56236 8.56727 12.2898
40 4 6.33285 11.463 11.9011
58 2 4.52078 8.9976 10.1552
59 2 6.19616 7.54515 12.2802
269 2 7.17758 11.6283 8.72835
88 2 3.09904 8.15153 11.9906
89 2 5.03567 8.73691 11.7833
90 2 4.5536 6.98666 12.6678
237 4 8.56047 8.467 15.1744
271 3 7.30525 8.41302 16.1049
128 1 4.28016 7.88774 11.8185
108 2 6.83978 9.71097 9.69839
245 3 2.56063 9.80174 15.3715
179 3 5.62764 7.04582 9.58366
87 2 7.92221 5.92485 12.6489
181 3 8.30177 6.87329 8.83999
186 3 4.39292 11.3904 8.91007
187 3 2.48796 10.3794 10.6217
188 3 8.75472 8.06507 11.2743
189 3 8.1632 8.37517 13.6915
190 3 4.76079 11.2076 11.4717
191 3 7.07292 10.0279 11.9966
241 4 4.06846 9.62856 14.7826
242 2 3.82012 9.32183 13.1094
243 3 4.72207 8.44035 15.4298
244 3 4.71016 11.0488 14.9367
37 4 5.78074 8.1183 16.7297
115 2 3.34536 8.31336 9.01405
135 1 7.05671 9.50855 8.53191
239 2 9.24422 6.74002 16.6726
ITEM: TIMESTEP
300
ITEM: NUMBER OF ATOMS
271
ITEM: BOX BOUNDS xy xz yz pp pp pp
-7.2018999999999993e+00 1.4748699999999999e+01 -6.1971999999999996e+00
-1.8606000000000000e+00 1.3431800000000001e+01 -1.0046999999999999e+00
0.0000000000000000e+00 1.6775696000000000e+01 -1.8606000000000000e+00
ITEM: ATOMS id type x y z
3 4 0.93505 1.11418 5.43698
4 4 0.252729 3.52479 7.52898
125 1 3.14962 3.51348 0.262985
21 4 3.05936 5.68875 4.91019
41 2 2.56751 1.20913 4.841
50 2 4.03589 2.71943 1.68856
52 2 3.39158 4.08422 5.56462
74 2 2.94212 2.65601 7.94873
69 2 -1.69258 5.28751 7.00104
68 2 0.0873267 5.8033 6.67666
227 4 1.55493 2.03235 0.628267
231 3 -0.0907978 2.37181 0.466161
83 2 -0.631269 5.7488 2.49386
84 2 0.499018 5.23798 1.02229
120 1 -0.700619 5.01305 6.5778
126 1 -0.051613 6.12042 1.6344
138 3 0.00678329 1.24634 4.11958
139 3 0.805828 -0.202822 6.2502
140 3 0.862774 2.50524 6.42698
229 2 2.18072 3.17962 1.89114
266 2 4.45352 5.01616 0.121009
155 3 1.95695 5.55528 3.73131
201 2 5.21753 0.354515 3.65709
202 2 3.83616 1.60605 3.97482
203 2 3.91067 -0.0718044 4.91085
206 2 3.7737 2.67651 6.37405
213 1 4.46204 0.743183 4.39585
218 3 5.88799 0.487677 6.95484
67 2 -0.698499 4.6064 5.5176
193 4 5.7008 1.52569 5.79249
230 3 1.90625 0.616128 1.23611
65 2 -1.90343 3.06934 8.33683
80 2 2.77829 4.6127 0.3297
18 4 5.23035 3.96102 1.25784
14 4 6.47272 -0.772744 7.8257
214 1 4.92624 3.1724 6.38754
255 2 -2.11382 4.03309 2.35655
246 2 3.28647 -0.359002 3.24812
15 4 3.18276 0.872768 9.55437
17 4 5.44654 0.687322 11.8528
151 3 5.29986 -0.249623 13.0714
42 2 -0.458636 4.17227 12.6189
48 2 2.0394 1.98645 10.091
6 4 -0.889971 5.35843 11.5855
119 1 -0.943321 2.54748 8.71436
66 2 -0.610179 2.90913 9.69842
149 3 2.68241 -0.106733 8.40099
141 3 -1.98927 4.75731 10.4774
76 2 3.26376 3.46091 9.71771
153 3 1.24349 4.46454 8.52963
81 2 2.78108 1.48501 16.0851
270 2 -0.632734 -0.297336 9.43464
91 2 1.22509 4.75582 15.434
123 1 3.49355 2.65219 8.89893
228 2 1.36655 0.439541 15.7492
150 3 4.15729 0.67093 10.8063
64 2 -1.03052 1.35205 8.65992
71 2 1.34631 -1.11859 11.3885
75 2 4.68958 2.36587 8.7598
19 4 1.57668 6.61446 2.50897
2 4 -4.01617 12.3048 7.03863
8 4 -1.96391 8.47467 6.65426
9 4 -2.54324 10.5186 4.63773
253 2 -2.17281 11.6139 1.50299
61 2 -4.02992 10.1771 7.93649
82 2 -0.644677 6.75255 0.95544
25 4 0.104555 11.2851 3.05614
27 4 2.06666 7.6523 7.10445
165 3 2.55166 6.52176 6.07314
44 2 -1.19042 6.99584 6.55851
45 2 -3.38059 7.64599 7.02244
51 2 0.870602 8.06509 3.2232
1 4 -4.08219 12.7675 2.01184
60 2 -3.62832 10.5789 0.578376
170 3 1.5439 9.06271 6.34876
93 2 -0.442204 8.82864 2.48225
94 2 1.39891 9.38732 2.34933
95 2 0.160589 9.76993 1.0071
117 1 -3.12236 11.5915 0.773539
118 1 -4.95921 10.8728 7.80044
130 1 0.307362 9.6103 2.09395
142 3 -5.25728 11.9337 2.4813
143 3 -3.87219 10.2488 3.9112
144 3 -1.98203 9.21002 5.269
145 3 -2.9771 11.8035 5.90642
159 3 2.54907 7.17989 1.49218
160 3 0.43183 12.4661 2.07615
161 3 -1.41636 11.1881 3.53528
166 3 -1.65015 9.27102 7.90393
24 4 3.37925 8.08192 0.141079
171 3 1.16593 11.7552 6.96071
169 3 1.22896 11.0925 4.30178
29 4 1.74971 10.6938 5.83946
162 3 2.90084 9.63668 0.0159129
238 2 -5.02145 9.53496 15.8243
167 3 -0.858619 11.7073 8.49264
10 4 -2.51001 7.63044 13.1116
11 4 -3.44509 10.0395 11.276
16 4 -0.30342 11.7353 13.7011
28 4 -1.28246 10.3812 9.13814
30 4 -1.33985 9.4779 15.2237
43 2 -1.58028 6.59883 8.52392
46 2 -3.95011 6.82894 13.5911
47 2 -5.20994 10.1647 10.9893
31 4 0.973631 10.076 11.3308
129 1 2.03028 5.46064 15.2331
164 3 1.07785 7.08626 8.44441
63 2 -5.32236 11.3118 8.75807
72 2 -3.42583 11.8205 12.63
267 2 1.69103 6.41139 14.6224
99 2 1.84201 7.55048 11.4448
100 2 0.135327 7.97068 12.1478
121 1 -4.42148 11.5192 12.0852
175 3 -0.159023 9.96954 10.2082
132 1 1.2366 8.29517 12.0372
262 2 -3.97426 7.15957 15.4537
146 3 -1.57544 6.54041 12.4287
147 3 -2.96438 8.8042 12.1763
176 3 0.662272 11.024 12.5889
70 2 -5.11658 11.0928 12.7852
157 3 2.99815 5.9716 10.0306
168 3 -2.74344 10.4722 9.98168
172 3 -1.85874 8.19903 14.4685
173 3 -0.0211585 9.44282 16.0228
174 3 -1.54071 10.7432 14.2557
252 2 -3.94203 10.46 16.6724
20 4 1.41224 5.83341 9.42135
55 2 -2.40774 9.78231 16.6124
92 2 3.13153 5.06428 15.094
154 3 0.452655 5.72815 10.7253
180 3 -3.87517 6.63775 10.0369
101 2 1.75801 8.50176 13.0524
5 4 -2.78075 5.69055 9.3484
211 2 7.64852 3.24821 7.29743
226 3 11.1099 4.78861 8.31643
256 2 10.9388 3.84141 1.74485
73 2 9.05786 3.33214 0.839724
105 2 7.20147 4.26459 4.75689
257 1 12.0247 3.6409 1.51686
224 3 11.0476 0.637205 7.38864
111 2 8.41769 5.7327 2.24504
33 4 5.82172 6.05441 3.75768
106 2 6.62559 5.42549 6.19872
222 3 12.2802 1.1608 5.06513
152 3 6.484 3.29199 0.565632
177 3 5.50871 4.83984 2.61015
192 4 13.2039 1.18448 3.77815