ITEM: TIMESTEP
0
ITEM: NUMBER OF ATOMS
271
ITEM: BOX BOUNDS xy xz yz pp pp pp
-7.2018999999999993e+00 1.4748699999999999e+01 -6.1971999999999996e+00
-1.6945040000000000e+00 1.3431800000000001e+01 -1.0046999999999999e+00
0.0000000000000000e+00 1.6609600000000000e+01 -1.6945040000000000e+00
ITEM: ATOMS id type x y z
3 4 1.0968 1.19758 5.27303
4 4 0.355197 3.51236 7.34377
125 1 3.16843 3.92935 0.182045
21 4 3.10061 5.85386 4.99939
41 2 2.6579 1.05829 4.64074
50 2 3.80822 2.72289 1.41461
52 2 3.05492 4.17669 5.4056
246 2 2.79129 0.0577543 3.18949
69 2 -0.965068 5.62202 7.24335
68 2 0.0619096 5.58278 5.66455
227 4 1.36534 2.42235 0.516178
231 3 -0.121815 2.70305 0.232218
83 2 0.465827 4.61123 2.54999
84 2 -0.138688 5.64524 0.991871
120 1 -0.635034 5.04228 6.32568
126 1 -0.0121619 5.64802 2.14352
138 3 0.105318 1.42883 4.01972
139 3 0.881637 -0.066585 6.1125
140 3 1.0408 2.46521 6.25533
229 2 1.85119 3.61224 1.65928
204 2 4.52779 3.42301 4.65667
155 3 2.25549 5.93272 3.63431
201 2 5.2238 0.258398 3.17891
202 2 3.88966 1.61604 3.66047
203 2 3.93602 -0.146315 4.48871
206 2 3.53739 2.80131 6.11224
213 1 4.49928 0.671682 3.96848
218 3 5.74843 0.691431 6.87489
67 2 -1.5058 4.56945 5.81626
193 4 5.68509 1.45808 5.44915
230 3 1.76633 0.981872 1.02395
255 2 -1.92357 4.28879 2.23269
80 2 2.83199 5.07138 0.490896
18 4 5.17819 3.96046 1.15868
65 2 -1.76127 3.17099 8.13779
214 1 4.59888 3.01261 5.73668
82 2 -0.942165 5.97173 2.68814
14 4 6.27071 -0.605648 7.68226
74 2 3.09618 3.01216 8.12832
149 3 2.54464 -0.10229 8.3004
15 4 3.0767 0.946203 9.5001
17 4 5.14293 0.836418 11.7994
151 3 5.19808 -0.145872 13.1107
42 2 -0.427106 3.70981 12.095
48 2 1.98768 2.32302 9.79488
266 2 3.7302 3.40997 16.5742
119 1 -0.831603 2.61349 8.4838
66 2 -0.443938 2.99983 9.49222
153 3 1.32398 4.3659 8.40746
141 3 -2.2241 4.97021 10.559
76 2 3.9874 3.46986 9.68621
75 2 4.73626 2.15255 8.52003
81 2 2.65446 2.15401 15.7388
270 2 -0.786621 0.0830271 9.289
91 2 1.74055 4.52213 15.1561
123 1 3.73892 2.63994 9.01121
228 2 1.3348 1.02638 15.5995
150 3 3.8747 0.470431 10.7887
64 2 -1.00319 1.43617 8.3882
6 4 -0.828491 5.31775 11.3853
19 4 1.46797 6.7162 2.48125
2 4 -4.06344 12.3268 7.08815
8 4 -1.9272 8.47797 6.5552
9 4 -2.55739 10.6078 4.59108
253 2 -2.0123 12.5107 1.37198
61 2 -4.86224 9.91524 7.16564
239 2 -3.46748 9.27878 0.562742
25 4 -0.0246406 11.2238 2.99406
27 4 1.83469 7.83678 6.99093
29 4 1.55936 10.815 5.76581
44 2 -1.02309 7.00535 6.30418
45 2 -3.3708 7.78996 7.03032
51 2 0.638112 8.12781 3.17272
60 2 -3.05272 11.1851 0.0839046
171 3 0.95359 11.8476 6.76982
170 3 1.27843 9.18139 6.28828
93 2 -0.56868 8.72878 2.25415
94 2 1.15988 9.28805 1.89761
95 2 -0.208092 9.92175 0.956142
117 1 -2.85287 12.2991 0.41836
118 1 -5.18333 10.9084 7.62754
130 1 0.105113 9.55826 1.92925
142 3 -5.06935 11.779 2.02971
143 3 -3.93151 10.1929 3.85182
144 3 -2.02989 9.17915 5.16613
145 3 -3.02341 11.7182 5.91946
159 3 2.41928 7.02302 1.08898
160 3 0.370383 12.5602 2.11766
161 3 -1.58919 11.3304 3.51178
166 3 -1.40554 9.41083 7.70449
24 4 3.45385 7.89454 0.114997
260 2 -5.98016 12.0174 5.22285
169 3 1.05181 11.0146 4.19409
165 3 2.34355 6.70618 6.08401
1 4 -4.17004 13.0173 1.65287
238 2 -5.35153 10.2005 15.7865
167 3 -0.979763 11.9499 8.44581
10 4 -2.28218 7.3615 13.2196
11 4 -3.11252 9.81636 11.2979
16 4 -0.326979 11.8972 13.6345
28 4 -1.08732 10.3907 8.99046
30 4 -1.18158 9.4692 15.1138
43 2 -2.02058 6.95045 8.76734
46 2 -3.71666 6.52166 13.5203
47 2 -4.87232 10.0542 11.1954
31 4 1.14388 10.2855 11.2562
129 1 2.48882 5.41615 14.995
240 1 -4.59966 7.65801 16.0506
63 2 -5.09998 10.9933 8.73562
72 2 -3.51856 11.1065 13.1864
267 2 2.23586 6.18499 14.2096
99 2 1.6921 7.78838 11.3951
100 2 0.146578 8.38988 12.4205
121 1 -3.81676 11.3893 12.098
175 3 0.139607 10.0881 9.94676
132 1 1.24724 8.59207 12.1174
262 2 -3.76363 8.24915 15.5541
146 3 -1.2758 6.32603 12.5501
147 3 -2.69607 8.63364 12.2426
176 3 0.539075 11.2005 12.4225
70 2 -4.9588 11.7324 12.1347
157 3 2.84991 6.22775 9.91386
168 3 -2.44636 10.2438 9.96577
172 3 -1.74103 8.00482 14.5206
173 3 0.161766 9.3591 15.7974
174 3 -1.34557 10.7817 14.2682
252 2 -3.86064 11.3691 16.2248
20 4 1.32897 5.92063 9.27589
5 4 -3.05799 5.8274 9.40188
101 2 1.92779 8.72202 13.0583
154 3 0.299754 5.72002 10.4611
164 3 0.858059 7.11443 8.32105
55 2 -2.23592 9.69187 16.5066
71 2 -3.0931 12.2339 11.6835
268 2 13.7112 -0.254683 7.37231
226 3 11.0921 4.90658 8.2178
256 2 11.0615 4.46716 1.69356
73 2 9.13279 3.08323 0.405685
105 2 7.31991 3.95298 4.38122
257 1 12.0975 3.94769 1.49846
224 3 11.1736 0.350847 7.1867
111 2 8.57676 5.76842 1.7722
33 4 5.88861 5.83787 3.78305
106 2 7.07253 4.94092 5.88777
222 3 12.4333 1.21918 5.00876
152 3 6.35469 3.15535 0.528433
177 3 5.4772 4.75864 2.54747
192 4 13.3008 1.34918 3.67974
223 3 9.82241 0.855725 4.82493
194 4 8.62148 1.44232 4.0185
196 4 11.0855 1.27383 5.78135
197 4 10.2593 3.92208 7.27655
212 2 7.81754 4.47501 7.99662
199 2 8.92926 3.03151 3.86378
200 2 8.89323 4.65608 6.42839
205 2 5.27473 3.5692 6.46646
217 1 8.45149 3.51318 7.90661
225 3 10.8949 2.87619 6.27144
247 2 11.933 2.29366 1.39825
198 2 12.7892 2.82436 2.90737
219 3 12.8507 0.10169 2.69533
220 3 8.58388 0.941794 2.47505
221 3 7.17473 1.45777 4.77438
134 1 7.2207 4.97044 4.76814
107 2 8.10998 5.65781 4.46717
211 2 7.97539 2.67046 7.34258
113 2 8.16715 6.58128 0.0441233
22 4 5.82944 4.12099 11.9337
148 3 6.60434 -0.966774 16.4302
57 2 8.64694 5.2909 11.2564
77 2 6.42963 1.22537 9.68937
49 2 7.0568 -1.21218 14.8352
79 2 7.58606 1.03177 11.2488
53 2 6.05493 4.59675 13.7631
86 2 8.23707 4.15064 13.4447
122 1 7.66881 1.52643 15.1935
124 1 6.6863 0.628032 10.6021
127 1 7.55662 4.67847 12.7651
158 3 5.06064 5.19756 11.0992
195 4 11.4171 -0.307591 8.59098
207 2 11.5282 0.503665 10.8945
208 2 9.80292 0.632989 10.1547
209 2 11.2056 1.85884 9.57526
210 2 9.02941 3.03373 8.93339
254 2 11.4427 3.10333 16.5585
215 1 10.9298 0.846051 9.99395
249 2 7.37635 -0.00262116 8.83146
92 2 3.63826 5.09514 15.0715
233 4 11.3437 -0.593913 14.0201
234 2 10.1289 -0.117332 12.9322
235 3 11.4202 0.566574 15.1946
85 2 7.59475 3.84611 11.2549
265 2 8.58308 0.99295 14.9854
248 2 6.67819 1.23066 14.3782
264 2 7.7784 2.6476 15.3847
216 1 13.4638 -0.548666 8.50512
236 3 12.6429 -0.817622 13.1477
156 3 5.23298 2.45472 11.9839
13 4 6.55924 0.63729 16.5259
78 2 6.55212 -0.55207 10.424
232 4 11.9607 1.33497 16.5671
112 2 9.66391 7.20232 1.09731
12 4 1.7735 13.2095 1.48078
32 4 5.71965 12.3855 2.11632
36 4 7.55256 7.941 1.96461
7 4 9.36748 10.4339 3.22705
110 2 7.79284 9.90998 8.07577
96 2 3.46177 12.361 5.41876
97 2 3.87555 10.4473 5.33062
98 2 3.86564 11.328 7.04695
102 2 5.72557 10.4181 3.49392
103 2 4.1501 11.5845 3.58525
104 2 5.68633 11.9549 4.74952
259 2 7.27033 11.0622 4.32733
109 2 5.95539 9.79014 7.83055
261 1 8.41252 11.001 4.71528
114 2 4.22018 7.8821 7.11914
178 3 4.60467 6.33628 4.81247
116 2 3.59343 9.70205 7.22598
131 1 3.41563 11.2852 5.96224
133 1 5.35689 11.477 3.73327
136 1 8.62919 6.7054 1.09166
137 1 3.49187 8.57764 7.64602
163 3 2.99028 12.0909 1.11777
250 2 4.39753 13.0438 1.29374
182 3 6.79503 7.24895 3.16166
183 3 8.61709 9.19043 2.63815
184 3 6.35255 8.60679 0.688538
185 3 6.41876 11.3457 1.12029
62 2 8.56741 11.3811 7.18417
258 2 8.56788 10.158 5.44424
56 2 6.50355 8.15481 6.90849
54 2 5.01466 7.63121 0.877991
37 4 6.75238 10.1774 0.0564527
23 4 4.36564 6.42671 10.3479
26 4 1.63391 9.28266 16.212
263 2 9.95608 6.68876 15.5056
34 4 6.63059 7.48095 8.51173
35 4 8.99199 6.75487 10.3414
38 4 4.1075 10.6998 10.244
39 4 7.79085 8.73019 12.3501
40 4 6.51171 11.5259 11.8063
58 2 4.60032 9.07071 10.0108
59 2 6.32857 7.84223 12.3728
269 2 7.42223 11.804 8.80727
88 2 3.25276 8.25668 11.8395
89 2 5.14227 8.92124 11.6148
90 2 4.82835 7.17407 12.4858
237 4 8.63865 8.69379 15.3655
271 3 7.27029 8.46784 16.186
128 1 4.46589 8.00996 11.6747
108 2 6.6553 9.51799 9.6247
245 3 2.62593 9.91289 15.0698
179 3 5.29948 6.99558 9.23349
87 2 7.79381 5.77398 12.5744
181 3 7.94271 6.69548 8.97189
186 3 4.4618 11.519 8.88417
187 3 2.54392 10.6045 10.6062
188 3 8.80672 8.0688 11.2821
189 3 8.46757 8.63821 13.8175
190 3 5.03618 11.3771 11.3865
191 3 7.27873 10.1674 11.981
241 4 4.13739 9.97492 14.6774
242 2 4.22941 9.42067 13.06
243 3 4.92716 8.85958 15.3605
244 3 4.72632 11.4409 14.6959
180 3 10.4441 6.63285 9.92091
115 2 3.42794 8.48069 8.7824
162 3 2.05036 7.75339 16.4764
135 1 6.82307 9.40421 8.39919
251 2 7.18533 12.3417 10.3703
ITEM: TIMESTEP
100
ITEM: NUMBER OF ATOMS
271
ITEM: BOX BOUNDS xy xz yz pp pp pp
-7.2018999999999993e+00 1.4748699999999999e+01 -6.1971999999999996e+00
-1.6945040000000000e+00 1.3431800000000001e+01 -1.0046999999999999e+00
0.0000000000000000e+00 1.6609600000000000e+01 -1.6945040000000000e+00
ITEM: ATOMS id type x y z
3 4 1.03851 1.33208 5.26874
4 4 0.328469 3.67622 7.33893
125 1 3.24466 3.63869 0.127489
21 4 3.04183 5.84752 4.93934
41 2 2.70472 1.26473 4.82437
50 2 3.89152 2.62675 1.52855
52 2 3.03304 4.31191 5.67458
74 2 3.03774 2.96856 7.83901
69 2 -1.63195 5.43078 6.8879
68 2 0.07067 5.88342 6.18587
227 4 1.46134 2.31115 0.505559
231 3 0.0567886 2.80695 0.183667
83 2 -0.0889752 5.12494 3.13677
84 2 0.0686072 5.25764 1.2373
120 1 -0.692499 5.06719 6.37831
126 1 -0.104458 5.83569 2.17088
138 3 0.128348 1.47989 3.97972
139 3 0.770071 -0.051 5.89059
140 3 0.872305 2.65481 6.2758
229 2 2.0364 3.44963 1.70559
204 2 4.48794 3.43926 4.4971
155 3 2.36778 5.8664 3.50362
201 2 5.1534 0.150915 3.48118
202 2 3.91418 1.54081 3.92823
203 2 3.90169 -0.122798 4.96281
206 2 3.74335 2.70816 6.18725
213 1 4.48614 0.642871 4.25456
218 3 5.77695 0.749102 6.9493
67 2 -0.912719 4.59688 5.40516
193 4 5.79069 1.53358 5.59633
230 3 1.85259 0.871363 1.18058
255 2 -2.11985 4.19817 2.17367
80 2 2.95173 4.64531 0.293042
18 4 5.16204 3.91383 1.25358
65 2 -1.81621 3.08946 7.95402
214 1 4.64294 3.08334 5.58135
246 2 2.99399 -0.143138 3.27583
14 4 6.35369 -0.5372 7.75957
254 2 -2.20949 4.84619 0.0447262
82 2 -1.01342 6.46488 2.14749
149 3 2.64683 -0.16489 8.19323
266 2 4.5847 5.07353 0.0925856
15 4 3.1708 0.921803 9.43345
17 4 5.22463 0.914949 11.7495
151 3 5.46084 -0.116509 13.1211
42 2 -0.222099 3.9522 12.3337
48 2 1.98898 2.16584 9.80049
5 4 -2.89732 5.7011 9.30217
119 1 -0.874906 2.67367 8.49421
66 2 -0.68031 3.06352 9.52884
6 4 -0.905085 5.27665 11.4486
141 3 -2.13252 4.79499 10.4613
76 2 3.64817 3.38684 9.58779
75 2 4.72682 2.23021 8.39115
81 2 2.64474 1.8651 15.6664
270 2 -0.648698 -0.0824436 9.52546
91 2 1.72648 4.66707 15.0003
123 1 3.59491 2.61237 8.70412
228 2 1.27766 0.787674 15.5255
150 3 3.80263 0.536288 10.8811
64 2 -0.865237 1.55964 8.39736
153 3 1.38809 4.59935 8.34127
19 4 1.47101 6.80778 2.50169
2 4 -4.09421 12.3479 6.94298
8 4 -1.87169 8.46279 6.56973
9 4 -2.55802 10.5979 4.68809
253 2 -1.99008 12.1894 1.28171
61 2 -4.20138 9.96573 7.13301
239 2 -3.6983 9.26878 0.505466
25 4 0.0884613 11.2565 3.13241
27 4 1.66609 7.82158 7.007
29 4 1.64082 10.8409 5.83025
44 2 -0.87484 7.06052 6.45268
45 2 -3.30277 7.67079 6.76994
51 2 0.890855 8.28255 3.20435
1 4 -4.0429 12.8927 1.8208
171 3 1.0317 12.0514 6.79401
170 3 1.3856 9.33801 6.38234
93 2 -0.382626 8.80756 2.22531
94 2 1.334 9.4292 1.81624
95 2 -0.105716 10.173 1.02874
117 1 -2.9727 12.0787 0.426684
118 1 -4.89871 10.7475 7.55661
130 1 0.270505 9.69362 1.95408
142 3 -5.205 11.8757 2.17788
143 3 -4.01888 10.3095 3.98988
144 3 -1.88311 9.20193 5.22224
145 3 -2.9315 11.8293 5.88934
159 3 2.3086 7.00597 1.08342
160 3 0.307494 12.5366 2.05158
161 3 -1.43466 11.3006 3.61082
166 3 -1.53976 9.28909 7.78513
24 4 3.40545 7.98524 0.183356
164 3 0.872434 7.08955 8.19609
169 3 1.25651 11.1075 4.26121
165 3 2.15662 6.78027 5.8818
60 2 -3.28869 10.9818 0.112057
238 2 -5.48444 10.2124 15.7226
167 3 -0.818472 11.9048 8.48149
10 4 -2.33586 7.40081 13.1041
11 4 -3.23452 9.70847 11.1925
16 4 -0.259119 11.8292 13.5654
28 4 -1.24403 10.3237 9.00206
30 4 -1.19574 9.48373 15.0988
43 2 -1.71541 6.71846 8.70554
46 2 -3.63779 6.46231 13.5778
47 2 -4.98912 10.1436 11.2226
31 4 0.979792 10.1522 11.2311
129 1 2.30895 5.59947 15.0341
240 1 -4.82793 7.48616 15.9795
63 2 -4.9349 10.8193 8.70197
72 2 -2.99179 11.0606 13.1279
267 2 1.7581 6.50406 14.4567
99 2 1.466 7.65827 11.3808
100 2 0.183457 8.28225 12.5672
121 1 -3.80448 11.214 12.2742
175 3 0.0742358 9.88566 9.81926
132 1 1.23187 8.47552 12.1271
262 2 -3.94653 7.97017 15.3701
146 3 -1.21433 6.36555 12.6112
147 3 -2.89803 8.50834 12.0803
176 3 0.464292 11.2847 12.1942
70 2 -4.82311 11.1518 12.6131
157 3 2.9106 6.15252 9.87782
168 3 -2.46713 10.2562 9.98648
172 3 -1.89556 8.16637 14.4752
173 3 0.2535 9.32837 15.7245
174 3 -1.40219 10.7378 14.1572
252 2 -4.02256 11.2297 16.2317
20 4 1.4014 5.87818 9.32553
55 2 -2.1725 9.90421 16.5007
154 3 0.26254 5.75072 10.5013
71 2 -3.67233 12.0906 11.5892
180 3 -4.03794 6.62361 9.88633
101 2 1.98022 8.62504 12.9208
211 2 7.88528 3.24928 7.01085
226 3 11.3646 4.80374 8.12732
256 2 11.0255 3.99565 1.47371
73 2 9.3147 3.10877 0.379107
105 2 7.0701 3.89375 4.28577
257 1 12.0661 3.73524 1.34083
224 3 11.0353 0.382494 7.26454
111 2 8.55971 5.73032 2.0626
33 4 5.81066 5.92575 3.76885
106 2 7.01435 5.00512 5.85904
222 3 12.4749 1.22704 5.01211
152 3 6.47072 3.21732 0.624248
177 3 5.2735 4.77279 2.58705
192 4 13.3102 1.35128 3.69051
223 3 9.69153 0.76899 4.79099
194 4 8.60867 1.59942 3.98675
196 4 11.0453 1.24252 5.77444
197 4 10.3015 3.87613 7.22601
113 2 8.57616 6.52197 0.329886
199 2 9.24891 3.10306 3.75939
200 2 9.01124 4.94694 6.70627
205 2 5.20503 3.87297 6.12754
217 1 8.50075 3.52057 7.95201
225 3 10.7076 2.88808 6.11576
247 2 12.1746 1.91261 1.13669
198 2 12.9179 2.82602 2.8536
219 3 12.7136 0.198043 2.70622
220 3 8.4547 0.88701 2.55249
221 3 7.14959 1.78191 4.78439
134 1 7.09181 4.94603 4.7181
107 2 8.03847 5.49264 4.38992
268 2 13.9771 -0.164575 7.71341
22 4 6.001 4.08421 11.9039
148 3 6.76644 -0.937804 16.4591
57 2 8.67405 5.53437 11.296
77 2 6.51682 1.35141 9.77773
49 2 7.06679 -1.38508 14.8774
79 2 7.77171 1.07906 11.1988
53 2 6.20584 4.69404 13.7684
86 2 8.45234 4.33718 13.4094
122 1 7.67878 1.65126 15.1901
124 1 6.84857 0.698291 10.6982
127 1 7.58323 4.76685 12.7851
158 3 5.22342 5.20459 11.1173
195 4 11.4102 -0.302419 8.61991
207 2 12.1613 1.08903 10.2513
208 2 10.3711 0.103034 10.6833
209 2 10.323 1.71376 9.60879
210 2 9.04524 2.57024 8.57676
78 2 6.93873 -0.423152 10.5953
215 1 10.9728 0.798964 9.95939
249 2 7.41406 0.055328 8.97634
232 4 12.0252 1.27528 16.5087
233 4 11.1844 -0.612131 14.0712
234 2 9.84275 -0.118301 13.1672
235 3 11.314 0.583226 15.0027
85 2 7.74609 3.8739 11.2374
265 2 8.84243 1.41177 15.049
248 2 6.99742 1.12086 14.3379
264 2 7.48636 2.73706 15.1854
216 1 13.5465 -0.526502 8.6501
236 3 12.5657 -0.708033 13.0384
156 3 5.45663 2.46751 12.0088
13 4 6.73415 0.70996 16.5488
251 2 13.3218 -1.00104 10.5559
212 2 8.02403 4.17543 8.69786
112 2 9.85734 7.06101 1.59779
12 4 1.73684 13.2409 1.51902
32 4 5.81477 12.33 2.1788
36 4 7.68712 7.98134 2.11204
7 4 9.34296 10.5163 3.29323
110 2 8.07874 9.96793 8.21086
96 2 3.65288 12.0711 5.52099
97 2 4.07555 10.1834 5.46991
98 2 3.85607 11.074 7.1923
102 2 5.35513 10.2264 3.5495
103 2 3.90559 11.4601 3.30243
104 2 5.34038 11.7649 4.55518
259 2 6.96416 11.1514 4.32157
109 2 6.17393 10.0231 7.90411
261 1 8.09892 11.0085 4.63748
114 2 4.01522 7.42023 7.3634
178 3 4.54287 6.30288 4.9078
116 2 3.65613 9.30519 7.40312
131 1 3.51231 11.0167 6.03984
133 1 5.03876 11.3027 3.57792
136 1 8.84357 6.65716 1.44241
137 1 3.37968 8.26983 7.76936
163 3 2.82913 12.0609 1.3565
250 2 4.37657 12.8646 1.44695
182 3 6.63533 7.17292 2.95613
183 3 8.6626 9.05556 2.67531
184 3 6.56366 8.56077 0.708987
185 3 6.46673 11.2572 1.11207
62 2 8.79106 10.9598 6.97583
258 2 8.16079 10.0976 5.33568
56 2 6.55133 8.34651 7.04534
54 2 5.01562 7.83152 0.759437
37 4 6.76346 10.1169 0.0280053
260 2 8.63078 11.9665 5.08647
162 3 3.07436 9.51672 0.123281
23 4 4.42005 6.4369 10.4171
26 4 1.65095 9.35597 16.3292
263 2 9.5431 6.51715 15.6599
34 4 6.75952 7.65946 8.6331
35 4 9.14734 6.81355 10.2488
38 4 3.95427 10.6192 10.2843
39 4 7.6401 8.66721 12.2131
40 4 6.35466 11.5805 11.8256
58 2 4.67407 9.11283 10.1305
59 2 6.36783 7.55747 12.1235
269 2 7.36338 11.7673 8.57904
88 2 3.26274 8.21641 11.8055
89 2 5.17319 8.80877 11.8578
90 2 4.73396 7.05296 12.5829
237 4 8.56572 8.64637 15.2303
271 3 7.27824 8.39509 16.122
128 1 4.45887 7.94167 11.7297
108 2 6.82254 9.70269 9.72886
245 3 2.58315 10.0375 15.0817
179 3 5.43447 7.05185 9.20665
87 2 7.63084 5.85005 12.6081
181 3 8.24367 6.97558 8.82143
186 3 4.31019 11.3585 8.89562
187 3 2.48844 10.5434 10.6938
188 3 8.63367 8.20702 11.0086
189 3 8.32804 8.53144 13.6401
190 3 4.83604 11.3655 11.4502
191 3 7.12009 10.1428 11.9363
241 4 4.03847 9.88365 14.561
242 2 3.93711 9.41604 12.9298
243 3 4.84368 8.75162 15.1699
244 3 4.60094 11.3288 14.76
92 2 3.41009 5.56067 14.8756
115 2 3.24107 8.20809 8.90274
135 1 7.00321 9.54232 8.52295
ITEM: TIMESTEP
200
ITEM: NUMBER OF ATOMS
271
ITEM: BOX BOUNDS xy xz yz pp pp pp
-7.2018999999999993e+00 1.4748699999999999e+01 -6.1971999999999996e+00
-1.6945040000000000e+00 1.3431800000000001e+01 -1.0046999999999999e+00
0.0000000000000000e+00 1.6609600000000000e+01 -1.6945040000000000e+00
ITEM: ATOMS id type x y z
3 4 1.03918 1.2801 5.28056
4 4 0.196084 3.61471 7.34933
125 1 3.22917 3.50796 0.0531973
21 4 3.02441 5.90472 4.92131
41 2 2.62677 1.28636 4.54519
50 2 4.09172 2.56602 1.39897
52 2 3.18529 4.30766 5.44961
74 2 2.7045 2.65263 7.81612
69 2 -1.52611 5.41996 7.0272
68 2 -0.035827 5.89595 5.96413
227 4 1.47663 2.27531 0.550454
231 3 0.004944 2.56127 0.262813
83 2 -0.509314 5.57177 3.03041
84 2 0.0921711 5.25779 1.20866
120 1 -0.741744 5.07176 6.31888
126 1 -0.229815 6.03936 1.96787
138 3 0.0471031 1.47579 4.07307
139 3 0.749678 -0.0262441 6.1015
140 3 0.884655 2.52914 6.43461
229 2 2.04982 3.62704 1.5912
204 2 4.8395 3.51108 4.8208
155 3 2.18036 5.71607 3.50678
201 2 5.25483 0.411098 3.40195
202 2 3.89792 1.6323 3.81728
203 2 3.98881 -0.120636 4.87645
206 2 3.74468 2.97481 6.30448
213 1 4.48638 0.755394 4.2012
218 3 5.88886 0.64644 6.91263
67 2 -1.22496 4.44149 5.48281
193 4 5.85143 1.57299 5.67438
230 3 1.81624 0.832487 1.32278
149 3 2.60827 -0.0942791 8.17631
14 4 6.38366 -0.603029 7.80462
18 4 5.24089 3.88442 1.19014
80 2 2.83426 4.51407 0.111456
214 1 4.77408 3.11735 5.91205
75 2 4.52958 2.33527 8.24127
15 4 3.05067 0.914945 9.39644
17 4 5.29781 0.861392 11.7645
151 3 5.37519 -0.143864 13.118
42 2 -0.474803 4.11933 12.4029
48 2 1.78376 2.05001 9.67118
5 4 -2.86315 5.66599 9.41355
119 1 -0.878335 2.62323 8.54366
66 2 -0.41342 2.98801 9.53371
6 4 -0.783875 5.37325 11.5055
141 3 -2.20391 4.77314 10.5874
76 2 3.43169 3.43161 9.39893
71 2 1.8892 -1.15401 11.7777
81 2 2.61347 1.63722 15.6889
270 2 -0.74092 -0.098568 9.39593
91 2 1.4566 4.89951 14.9685
123 1 3.4975 2.59069 8.65886
228 2 1.21601 0.742218 15.5285
150 3 4.01907 0.560199 10.6035
64 2 -1.0499 1.40153 8.52979
153 3 1.27592 4.40199 8.46443
266 2 3.61671 3.17452 16.5287
65 2 -1.90635 3.15123 8.43731
254 2 -3.13926 2.98477 16.5903
19 4 1.49538 6.6928 2.4172
2 4 -4.03387 12.514 6.93899
8 4 -2.01135 8.47501 6.54228
9 4 -2.48595 10.6213 4.68325
253 2 -2.21027 11.724 1.3876
61 2 -3.88567 10.2507 7.6427
60 2 -3.2234 10.6547 0.114813
25 4 0.189151 11.1977 3.06488
27 4 1.83564 7.86331 7.1233
165 3 2.13817 6.73849 5.97828
44 2 -1.19481 6.95874 6.43685
45 2 -3.61242 8.00278 6.73695
51 2 0.783547 8.05499 3.17804
1 4 -4.11635 12.8308 1.9306
82 2 -0.924882 6.78255 1.59808
170 3 1.32735 9.31489 6.42014
93 2 -0.432155 8.88679 2.36609
94 2 1.46625 9.29163 2.05268
95 2 -0.00726431 10.1123 0.952753
117 1 -3.1414 11.7367 0.652032
118 1 -4.83438 10.8872 7.55552
130 1 0.332827 9.6507 2.03481
142 3 -5.31585 11.8747 2.36646
143 3 -3.87231 10.2946 3.96351
144 3 -1.91976 9.18738 5.162
145 3 -2.87394 12.0284 5.77787
159 3 2.51897 7.27562 1.09996
160 3 0.317014 12.6568 1.85744
161 3 -1.27839 11.2778 3.63392
166 3 -1.51894 9.37236 7.75247
24 4 3.45959 8.06184 0.173185
169 3 1.25383 11.0936 4.27242
246 2 -2.93249 13.0494 3.22079
62 2 -5.56576 10.4877 6.78353
238 2 -5.06277 9.85169 15.4944
167 3 -0.819431 11.8495 8.58603
10 4 -2.4419 7.47478 13.0725
11 4 -3.38473 9.84866 11.1666
16 4 -0.178293 11.817 13.5835
28 4 -1.21721 10.3691 8.96795
30 4 -1.34222 9.53734 15.0582
43 2 -1.63366 6.63877 8.74998
46 2 -3.7904 6.66779 13.6033
47 2 -5.13538 10.1311 10.9992
31 4 1.03102 10.0424 11.1179
129 1 2.15505 5.77362 15.0038
240 1 -4.91631 7.23371 15.6795
63 2 -5.3046 11.2616 8.54475
72 2 -3.24788 11.2885 12.8921
267 2 1.84964 6.67127 14.5033
99 2 1.43719 7.56517 11.5061
100 2 0.115032 8.30952 12.6012
121 1 -4.2066 11.2283 12.234
175 3 -0.14773 9.68891 9.99177
132 1 1.12771 8.42777 12.15
262 2 -3.85707 7.58746 15.7913
146 3 -1.42942 6.46246 12.4028
147 3 -2.97915 8.62311 12.0826
176 3 0.574348 10.9577 12.3461
70 2 -5.20372 10.9079 12.8338
157 3 3.00019 6.20873 9.8206
168 3 -2.6349 10.2905 9.89287
172 3 -1.89887 8.23544 14.3842
173 3 0.0514755 9.33652 15.6934
174 3 -1.38527 10.914 14.2658
252 2 -4.08849 10.8818 16.4146
20 4 1.48933 5.86001 9.29103
55 2 -2.39314 9.90648 16.3423
154 3 0.491401 5.7106 10.5395
164 3 1.02723 7.16128 8.38053
180 3 -3.91898 6.70458 9.84481
101 2 1.89836 8.60441 13.0163
211 2 7.65718 3.38639 7.44596
226 3 11.3305 4.68174 8.14613
256 2 10.8792 3.85754 1.26547
73 2 9.30794 3.22838 0.607484
105 2 7.15142 4.02356 4.84301
257 1 11.9817 3.58686 1.27722
224 3 11.0639 0.458121 7.14218
111 2 8.36501 5.63388 1.79916
33 4 5.81255 5.90799 3.77957
106 2 7.01248 5.42324 6.03106
222 3 12.3456 1.23472 4.96601
152 3 6.52673 3.22498 0.639665
177 3 5.42562 4.74746 2.53129
192 4 13.275 1.18696 3.69054
223 3 9.72891 0.5786 4.83533
194 4 8.58484 1.58699 4.00952
196 4 10.9191 1.32414 5.72896
197 4 10.1777 4.04842 7.19342
255 2 12.5297 4.1044 2.15547
199 2 9.25835 3.12191 3.64127
200 2 8.84899 5.10962 6.80944
205 2 5.47237 3.6169 6.67243
217 1 8.5265 3.69801 8.11203
225 3 10.5731 3.05594 5.98326
247 2 12.1241 1.88014 1.37258
198 2 12.8741 2.61097 2.70037
219 3 12.8183 -0.0085591 2.77312
220 3 8.26005 0.996205 2.57941
221 3 7.25768 1.94478 4.84746
134 1 7.12271 5.17702 4.93789
107 2 8.02942 5.70207 4.43225
268 2 13.5654 -0.0970025 7.54337
13 4 7.79131 2.52312 0.0430044
12 4 7.89191 -0.0990805 1.50729
22 4 6.02982 3.9863 12.0248
148 3 6.92266 -0.804413 16.4254
57 2 8.7463 5.4845 10.9319
77 2 6.836 1.34328 10.0069
49 2 7.04249 -1.27721 14.9101
79 2 7.90157 0.649639 11.449
53 2 6.47498 4.661 13.7424
86 2 8.65051 4.46711 13.174
122 1 7.73175 1.89119 15.3553
124 1 6.91343 0.529753 10.854
127 1 7.8102 4.80051 12.5397
158 3 5.18649 5.07904 11.2147
195 4 11.3228 -0.197411 8.58385
207 2 12.0511 1.15512 10.3002
208 2 10.557 0.112069 10.89
209 2 10.2126 1.68908 9.75388
210 2 9.21471 2.84882 8.8012
78 2 6.64438 -0.561051 10.411
215 1 10.9487 0.800257 10.0692
249 2 7.48347 0.0458259 8.94028
232 4 12.0687 1.13403 16.5128
233 4 11.1591 -0.682645 14.1817
234 2 9.84464 -0.311301 13.2052
235 3 11.3409 0.455934 15.132
85 2 7.71334 4.01144 11.0484
265 2 8.64328 1.4097 15.0273
248 2 6.93557 1.78702 14.5531
264 2 7.88995 3.00084 15.6568
216 1 13.4315 -0.572621 8.54397
236 3 12.4702 -0.921225 13.1053
156 3 5.65543 2.49505 12.2407
212 2 8.14496 4.473 8.82436
251 2 13.3433 -0.972189 10.5126
112 2 9.77583 6.8212 2.13876
113 2 9.04897 6.7571 0.366625
32 4 5.7599 12.3706 1.99759
36 4 7.64108 7.93386 2.0244
7 4 9.30645 10.5357 3.36932
110 2 8.16337 10.0585 8.07336
96 2 3.79773 12.1211 5.46275
97 2 4.14677 10.2314 5.51758
98 2 3.84324 11.1692 7.18108
102 2 5.61045 10.2681 3.289
103 2 3.97416 11.371 3.01344
104 2 5.32397 11.9089 4.39683
259 2 6.99657 11.1239 4.11984
109 2 6.23669 10.0684 7.78113
261 1 8.12887 10.9855 4.71019
114 2 4.27246 7.57546 7.51252
178 3 4.54334 6.34164 4.70522
116 2 3.69043 9.43452 7.28402
131 1 3.62487 11.1203 5.99878
133 1 5.11144 11.2694 3.43408
136 1 8.87743 6.62563 1.51277
137 1 3.53237 8.40177 7.80398
163 3 2.87557 12.2446 1.16499
250 2 4.39981 13.0846 1.22592
182 3 6.67228 7.28591 3.07534
183 3 8.45535 9.12845 2.50113
184 3 6.61535 8.39026 0.475269
185 3 6.39527 11.1615 1.10527
171 3 1.20764 11.9347 6.90304
258 2 8.05633 10.0903 5.40916
56 2 6.34913 8.26187 7.1308
54 2 5.09495 7.95651 0.672059
29 4 1.74442 10.8587 5.86309
260 2 8.4292 11.9343 5.25586
162 3 3.04043 9.64514 0.153175
239 2 10.2759 8.63051 0.058431
23 4 4.47332 6.43483 10.4752
26 4 1.52522 9.38849 16.3047
263 2 9.70617 6.47648 14.8156
34 4 6.87269 7.69812 8.68669
35 4 9.2629 6.89341 10.1571
38 4 4.04227 10.6959 10.1837
39 4 7.57997 8.67432 12.1667
40 4 6.33367 11.5479 11.7808
58 2 4.56363 9.07561 10.0769
59 2 6.21071 7.62271 12.1481
269 2 7.18605 11.6662 8.54377
88 2 3.06053 8.2678 11.9078
89 2 5.08839 8.83941 11.6865
90 2 4.53335 7.10275 12.6413
237 4 8.60786 8.58211 15.0403
271 3 7.29675 8.549 15.9344
128 1 4.30216 7.99085 11.7067
108 2 6.85855 9.85122 9.57744
245 3 2.55124 9.92436 15.1541
179 3 5.64001 7.1421 9.4821
87 2 7.84648 5.94703 12.3827
181 3 8.31298 6.95098 8.69039
186 3 4.37021 11.486 8.84237
187 3 2.48437 10.456 10.5412
188 3 8.75667 8.18734 11.121
189 3 8.23298 8.43934 13.5434
190 3 4.78961 11.2788 11.3761
191 3 7.09615 10.1337 11.908
241 4 4.07566 9.81018 14.6086
242 2 3.90563 9.51911 12.9073
243 3 4.72336 8.63806 15.2722
244 3 4.65008 11.2579 14.7757
37 4 5.76773 8.27854 16.5644
115 2 3.35044 8.39839 8.94893
135 1 7.07563 9.60462 8.40224
92 2 3.26374 5.45083 14.8694
ITEM: TIMESTEP
300
ITEM: NUMBER OF ATOMS
271
ITEM: BOX BOUNDS xy xz yz pp pp pp
-7.2018999999999993e+00 1.4748699999999999e+01 -6.1971999999999996e+00
-1.6945040000000000e+00 1.3431800000000001e+01 -1.0046999999999999e+00
0.0000000000000000e+00 1.6609600000000000e+01 -1.6945040000000000e+00
ITEM: ATOMS id type x y z
3 4 0.926225 1.16407 5.36679
4 4 0.228169 3.6125 7.46242
125 1 3.18471 3.55293 0.23103
21 4 3.00297 5.76499 4.88211
41 2 2.52873 1.28656 4.79673
50 2 4.09205 2.70881 1.59042
52 2 3.23361 4.18994 5.63688
74 2 2.93029 3.00703 7.93794
69 2 -1.77896 5.30459 6.79518
68 2 0.0046185 5.92099 6.65963
227 4 1.53283 2.07341 0.58899
231 3 -0.0793129 2.43851 0.427273
83 2 -0.804636 6.0939 2.55663
84 2 0.230501 5.09562 1.25227
120 1 -0.732716 5.10168 6.49744
126 1 -0.118522 6.13199 1.64793
138 3 0.0207294 1.27562 4.09665
139 3 0.866677 -0.159874 6.19161
140 3 0.830658 2.54541 6.36553
229 2 2.17091 3.23658 1.80506
204 2 4.96412 3.79715 5.21224
155 3 1.93783 5.61161 3.68456
201 2 5.33613 0.288477 3.71128
202 2 3.73576 1.41024 3.66596
203 2 3.87992 -0.110344 4.82191
206 2 3.72824 2.57563 6.21797
213 1 4.42025 0.782615 4.28345
218 3 5.87876 0.567387 6.92024
67 2 -0.576411 4.59488 5.44596
193 4 5.73306 1.51783 5.67768
230 3 1.8835 0.643955 1.19258
255 2 -2.01916 4.01669 2.26858
14 4 6.48148 -0.689883 7.77887
18 4 5.25165 3.96738 1.22405
80 2 2.81684 4.63326 0.365315
214 1 4.78972 3.16167 6.16149
266 2 4.50972 5.06403 0.0699589
65 2 -1.90374 3.25259 8.22146
15 4 3.18843 0.988535 9.49929
17 4 5.46451 0.829848 11.7625
151 3 5.28129 -0.221785 12.9602
42 2 -0.491437 4.33828 12.6232
48 2 1.97416 2.09304 9.95552
75 2 4.74078 2.36845 8.5947
119 1 -0.93342 2.6161 8.67681
66 2 -0.682584 2.97111 9.69498
6 4 -0.896292 5.47305 11.5359
141 3 -2.01444 4.86373 10.4564
76 2 3.47697 3.39786 9.7906
153 3 1.18906 4.59081 8.44286
81 2 2.72907 1.69067 15.8747
270 2 -0.594673 -0.307101 9.2444
91 2 1.23901 5.01249 15.2266
123 1 3.577 2.72761 8.88067
228 2 1.34747 0.654457 15.5736
150 3 4.1598 0.792352 10.7251
64 2 -1.12787 1.4127 8.59655
71 2 1.45263 -0.94689 11.2889
149 3 2.72041 -0.064524 8.35034
19 4 1.54468 6.57896 2.42519
2 4 -3.99801 12.3407 6.94741
8 4 -2.03977 8.5825 6.57687
9 4 -2.55793 10.6001 4.56131
253 2 -2.23546 11.6745 1.50057
61 2 -3.90909 10.3145 8.08198
60 2 -3.56381 10.5882 0.531082
25 4 0.109021 11.3283 2.99802
27 4 2.04983 7.72717 7.06422
165 3 2.50809 6.64531 6.01588
44 2 -1.32428 7.00226 6.48259
45 2 -3.51992 7.84552 6.89442
51 2 0.814688 8.03981 3.11005
1 4 -4.13141 12.8151 1.9948
82 2 -0.51783 6.83705 0.858956
170 3 1.51958 9.18367 6.31653
93 2 -0.457143 8.87375 2.41717
94 2 1.37258 9.4076 2.3991
95 2 0.220906 9.71235 0.948528
117 1 -3.12993 11.6398 0.784132
118 1 -4.90551 10.8532 7.66039
130 1 0.280324 9.62138 2.06761
142 3 -5.29084 11.9429 2.47133
143 3 -3.90206 10.3204 3.87855
144 3 -1.91679 9.30592 5.19904
145 3 -2.94864 11.8692 5.82048
159 3 2.54433 7.08127 1.3762
160 3 0.464467 12.4518 1.94027
161 3 -1.41787 11.2718 3.47857
166 3 -1.69537 9.38508 7.83589
24 4 3.40903 8.07791 0.164357
169 3 1.19514 11.1344 4.23953
29 4 1.73038 10.7427 5.77262
62 2 -5.43165 10.3252 6.80435
171 3 1.14465 11.8152 6.86576
246 2 -2.97067 13.0548 3.24829
238 2 -5.04405 9.74854 15.6279
167 3 -0.82303 11.7738 8.46102
10 4 -2.54974 7.73759 13.045
11 4 -3.47574 10.1398 11.2031
16 4 -0.307189 11.8598 13.5716
28 4 -1.26219 10.4333 9.08077
30 4 -1.35457 9.59173 15.1341
43 2 -1.56161 6.68496 8.43686
46 2 -3.96793 6.86167 13.472
47 2 -5.2209 10.3345 10.9366
31 4 1.0095 10.1259 11.2245
129 1 2.0732 5.81488 15.0506
101 2 1.77715 8.73233 13.0253
63 2 -5.598 11.1402 8.50246
72 2 -3.42357 11.8848 12.6273
267 2 1.79104 6.62914 14.3099
99 2 1.81639 7.61444 11.485
100 2 0.184772 8.07065 12.2439
121 1 -4.39054 11.6399 12.0013
175 3 -0.146146 9.89325 10.1055
132 1 1.25982 8.3935 12.0956
262 2 -3.90154 7.25686 15.4253
146 3 -1.57165 6.66729 12.3486
147 3 -3.00614 8.88534 12.0868
176 3 0.616627 11.0985 12.4449
70 2 -5.14507 11.2126 12.6589
157 3 3.03363 5.99858 9.95617
168 3 -2.6512 10.5786 9.9654
172 3 -1.93288 8.32789 14.3709
173 3 0.000698573 9.51559 15.8752
174 3 -1.4908 10.8769 14.1974
252 2 -3.9262 10.679 16.4935
20 4 1.42021 5.9047 9.36472
55 2 -2.41512 9.82934 16.5168
154 3 0.468108 5.77537 10.6523
164 3 1.0975 7.15953 8.38508
180 3 -3.89937 6.72048 9.8809
92 2 3.17954 5.37259 14.8588
5 4 -2.761 5.77174 9.26787
211 2 7.72934 3.27806 7.28041
226 3 11.152 4.87482 8.25293
256 2 10.9378 4.00816 1.75156
73 2 9.09916 3.29891 0.779861
105 2 7.21638 4.34378 4.75298
257 1 12.0124 3.73213 1.46459
224 3 11.0355 0.777046 7.31397
111 2 8.40563 5.70142 2.19014
33 4 5.79882 6.05836 3.76258
106 2 6.42712 5.3977 6.18224
222 3 12.277 1.24906 4.98918
152 3 6.53715 3.33345 0.532643