ITEM: TIMESTEP
0
ITEM: NUMBER OF ATOMS
271
ITEM: BOX BOUNDS xy xz yz pp pp pp
-7.2018999999999993e+00 1.4748699999999999e+01 -6.1971999999999996e+00
-1.8606000000000000e+00 1.3431800000000001e+01 -1.0046999999999999e+00
0.0000000000000000e+00 1.6775696000000000e+01 -1.8606000000000000e+00
ITEM: ATOMS id type x y z
3 4 0.73909 1.1248 5.52985
4 4 0.298123 3.84546 7.35843
218 3 5.59228 0.652887 7.16174
21 4 3.24037 6.17665 4.77754
41 2 2.10784 1.22161 4.51297
50 2 3.83901 3.27869 1.1842
52 2 3.71852 4.69815 5.55651
246 2 3.6091 0.407086 2.63687
193 4 5.55553 1.63063 5.81948
68 2 -1.67616 4.42222 5.63179
69 2 -0.2429 5.7111 5.70999
82 2 -0.660868 4.75379 3.00666
83 2 0.370885 4.4676 1.29885
153 3 1.47096 4.68449 8.16983
120 1 -0.943118 5.06739 6.27721
126 1 -0.341232 5.21487 2.03314
138 3 -0.415497 1.06216 4.49628
139 3 0.780582 -0.277048 6.33303
140 3 0.653464 2.54146 6.40562
19 4 1.31355 6.18982 2.40396
256 2 -1.46266 4.65339 0.37327
155 3 2.24617 5.62949 3.66039
201 2 4.78257 1.09368 3.51089
202 2 3.62593 2.21987 4.73625
203 2 3.73787 0.14772 4.78971
206 2 3.90884 3.63227 6.53271
213 1 4.0989 1.14613 4.43799
74 2 4.05065 2.24687 8.36701
67 2 -1.3979 5.45219 7.25459
229 2 2.19507 3.37461 0.471739
230 3 1.78991 0.713723 0.912774
84 2 -1.16685 5.69476 1.45733
14 4 6.2339 -0.542344 8.05805
66 2 -1.70902 3.54639 8.29184
268 2 -0.91142 0.302794 7.65532
15 4 3.06162 0.799142 9.86791
80 2 1.8594 2.66323 16.0581
17 4 5.19661 0.908881 12.2139
42 2 -0.275808 4.26771 11.6344
48 2 1.85594 1.95015 10.4154
125 1 2.84111 2.15699 16.2625
64 2 -0.342893 3.21987 9.59328
228 2 1.5683 -0.0207279 15.3182
65 2 -0.977256 1.6544 8.57419
53 2 3.11032 4.01527 14.502
76 2 2.47624 3.39786 8.88304
149 3 2.45129 -0.201964 8.70961
141 3 -2.48889 5.04812 10.4502
91 2 1.39692 4.344 14.6372
119 1 -0.731847 2.84912 8.62916
123 1 3.22264 2.60853 9.27274
231 3 -0.876726 0.284884 16.0985
150 3 4.0466 0.356552 10.9877
151 3 5.55868 -0.298071 13.3271
81 2 3.05643 1.30219 15.5989
75 2 3.93656 3.10578 10.0135
70 2 1.9557 -0.803515 12.0319
270 2 -0.629901 -0.181106 9.4555
227 4 0.548533 0.0694625 16.654
266 2 3.80133 3.05264 16.0414
255 2 -2.73368 2.73805 15.1482
7 4 -4.93252 10.524 3.25054
253 2 -1.64192 12.3953 0.958773
8 4 -1.71839 8.37902 6.94174
9 4 -2.59889 10.5498 5.13858
61 2 -4.56892 9.96263 8.18723
165 3 2.68447 7.16059 5.8669
170 3 2.08098 9.70589 6.574
25 4 -0.110242 11.4171 3.45591
27 4 2.34143 8.1956 7.0276
167 3 -0.977623 11.7471 8.36427
44 2 -0.623039 7.00555 6.76736
45 2 -3.10496 7.42027 7.12968
51 2 -0.173707 6.98372 2.91571
260 2 -6.12193 12.2437 4.26129
24 4 2.63379 7.9337 0.119562
1 4 -3.70346 13.0228 1.64817
93 2 -1.17826 9.17528 2.84555
94 2 0.788185 9.20735 2.82363
95 2 -0.223637 10.0469 1.46692
117 1 -2.62313 12.2712 0.183489
118 1 -5.20023 10.8949 8.11992
130 1 -0.221492 9.72042 2.56046
142 3 -4.44975 11.9033 2.49302
143 3 -3.82888 9.89387 4.28404
144 3 -1.70869 9.20165 5.57678
145 3 -3.20336 11.4899 6.3477
159 3 1.97127 7.048 1.22056
160 3 0.433818 12.5134 2.0571
161 3 -1.5995 11.5258 4.03072
169 3 0.959061 11.3289 4.62447
164 3 1.35281 7.56342 8.16616
2 4 -4.26369 12.3293 7.3446
166 3 -1.34542 9.18024 8.26856
16 4 0.0681123 11.8322 13.9088
237 4 -5.63995 8.77542 15.1457
10 4 -2.10606 7.67712 13.2213
11 4 -3.22226 10.2199 11.5601
20 4 1.1811 6.30772 9.17624
28 4 -1.2299 10.4636 9.23262
30 4 -0.812893 9.33134 15.2976
43 2 -3.8331 7.22232 9.62622
46 2 -3.57314 7.0496 13.9796
47 2 -4.9844 10.2623 11.6987
129 1 1.78195 5.34807 14.9713
63 2 -5.43489 11.2871 9.16057
31 4 1.28512 10.3093 11.4954
101 2 1.1262 8.53244 13.1825
55 2 -2.05775 9.26676 16.4315
92 2 2.07075 6.03486 14.1083
252 2 -3.40726 11.1207 16.1557
100 2 0.687216 7.93246 11.4014
121 1 -3.92552 11.6788 12.5629
267 2 0.37834 6.10603 15.4465
132 1 1.47558 8.50116 12.0853
239 2 -3.31394 7.57777 15.7377
146 3 -1.44332 6.61107 12.2222
147 3 -2.55051 9.00745 12.4195
154 3 -0.369588 6.15961 9.60525
157 3 2.24383 6.24813 10.4314
6 4 -1.09341 5.60052 10.9541
168 3 -2.80519 10.5217 10.0948
172 3 -1.06707 8.04955 14.3153
173 3 0.476351 9.17101 16.1928
174 3 -1.00498 10.8633 14.543
175 3 0.0333618 10.3344 10.3858
71 2 -2.92761 11.9156 13.2204
238 2 -4.99391 10.3163 15.5155
240 1 -4.42713 7.28453 15.7351
54 2 3.09647 5.09034 16.0602
72 2 -4.7038 11.1321 13.2234
60 2 -3.8164 9.33204 16.6747
263 2 -4.80415 6.92949 16.7644
105 2 7.87046 6.09688 4.52224
224 3 11.2367 0.923647 7.30141
211 2 8.95222 1.93168 8.11102
73 2 9.97934 2.79044 1.25487
56 2 6.10977 4.88512 7.34957
106 2 7.12448 4.4733 4.43145
13 4 7.96052 2.34929 0.217012
223 3 9.37866 0.987489 5.21815
112 2 8.35868 5.91598 1.69413
134 1 6.93158 5.54428 4.58419
122 1 9.50528 3.48766 0.353614
152 3 6.6105 3.0902 0.608889
177 3 5.65001 5.2227 2.03323
192 4 13.0955 0.981866 3.54988
222 3 11.9021 1.39438 4.55279
194 4 8.3239 1.63984 4.23001
196 4 10.9363 1.62571 5.76581
197 4 9.8738 3.95998 7.25869
212 2 7.53135 2.85009 7.07733
199 2 8.77558 3.21585 3.73825
200 2 8.26541 4.501 6.7296
204 2 5.71374 4.3694 5.74813
205 2 5.59109 3.28582 7.43705
221 3 6.86123 1.638 4.98185
225 3 10.695 3.35551 6.0133
18 4 5.43362 4.1053 0.93227
247 2 12.1008 2.39259 0.0786207
220 3 8.32428 0.770832 2.88294
264 2 9.34766 4.63774 0.730515
107 2 6.39083 5.80391 5.62513
217 1 8.32095 2.95543 7.94158
148 3 8.12806 0.779156 0.0442959
214 1 5.04164 3.52388 6.39712
198 2 13.143 2.22316 2.36089
226 3 10.5514 4.79329 8.38691
22 4 4.4516 3.98149 13.2785
49 2 7.32346 -1.1975 15.2001
57 2 8.1898 4.27031 12.6881
77 2 6.52046 1.78209 10.1471
78 2 7.35476 0.342178 11.2233
79 2 7.13392 2.19092 12.0221
5 4 10.8426 5.49849 9.84186
216 1 13.5502 -0.344251 8.57015
249 2 6.56345 0.146429 9.62321
124 1 6.7414 1.34838 11.1837
127 1 5.7402 4.83516 14.3321
158 3 4.16482 4.91101 12.0312
195 4 11.5087 0.191979 8.83358
207 2 11.6043 2.61382 9.84455
208 2 12.5744 1.11504 10.7287
209 2 10.5906 1.1662 10.7702
210 2 7.91779 3.53221 8.86108
181 3 7.1956 4.79448 10.1736
215 1 11.5747 1.49404 10.1766
257 1 11.7251 2.22789 16.2381
232 4 12.3532 0.522676 15.5575
233 4 11.3316 -1.28278 13.3749
234 2 9.91603 -0.87428 12.6792
235 3 11.7068 -0.00661328 14.2108
265 2 9.11923 1.58471 16.1449
254 2 10.5791 2.07804 16.4431
248 2 7.50387 1.20283 15.4768
86 2 6.38425 3.97083 14.7547
34 4 6.30429 5.66055 8.92779
180 3 9.6674 5.24846 10.7924
35 4 8.22339 5.36651 11.3958
156 3 4.83676 2.50447 12.9486
186 3 10.5859 -0.957539 9.35907
111 2 8.06051 4.78029 16.7565
261 1 8.45163 11.1191 4.4237
162 3 3.0981 9.42638 0.44499
32 4 6.03207 11.8332 1.94602
36 4 8.22162 8.28873 1.50458
29 4 1.84965 11.2357 6.16986
136 1 9.07039 6.61739 1.18476
96 2 3.44049 12.1428 4.72459
97 2 4.26899 10.6314 5.57979
98 2 4.11871 12.3111 6.48167
102 2 6.14315 9.3661 2.91721
103 2 4.4727 10.3434 2.83012
104 2 5.7635 10.6359 4.30126
108 2 7.01574 7.21169 7.32139
171 3 1.31647 12.262 7.47298
58 2 3.64099 10.2184 8.20784
114 2 4.55596 7.39974 7.34151
178 3 4.52677 6.74218 4.09069
116 2 4.68907 9.15003 7.22927
131 1 3.67522 11.6192 5.72098
133 1 5.62471 10.4456 3.15987
250 2 4.59355 12.4916 1.28109
137 1 4.16683 8.3651 7.77458
163 3 3.06375 12.1089 1.58828
33 4 5.8728 6.38348 3.22037
182 3 6.86756 7.70234 2.67204
183 3 9.11648 9.34255 2.19191
219 3 6.69838 13.0524 2.81558
185 3 6.79339 11.1773 0.756727
12 4 1.82055 13.1468 1.71769
258 2 8.73645 10.8023 5.42759
259 2 7.39828 10.8106 4.0541
62 2 8.58112 10.8261 7.48861
113 2 10.1501 6.69417 1.67446
269 2 7.53026 12.0108 8.30672
26 4 2.904 10.9519 0.021774
23 4 3.77708 6.00441 10.8162
99 2 2.56963 8.12756 11.884
271 3 7.66553 8.61245 15.7181
110 2 6.42959 8.10009 8.96265
87 2 5.28394 5.45357 15.1264
38 4 4.03021 10.9689 9.7564
39 4 7.72905 8.22673 12.6251
40 4 6.63783 10.7287 11.1035
245 3 3.05973 9.55109 15.7316
59 2 6.28912 8.34364 13.5717
115 2 4.26173 8.47799 8.92708
88 2 4.08649 8.57019 11.1342
89 2 5.58142 7.54396 11.382
90 2 4.19292 7.53473 12.6957
37 4 6.25579 8.30502 16.2569
184 3 6.38928 6.77169 16.6177
128 1 4.48969 7.62582 11.5753
236 3 6.32009 11.7684 12.2824
176 3 1.00553 11.0963 12.7825
244 3 4.79673 10.8433 14.2483
251 2 7.50426 11.8018 10.1004
135 1 7.08827 7.27698 8.4718
109 2 8.24017 7.23762 8.84155
187 3 2.77116 10.782 10.7453
188 3 7.79997 6.76246 12.0065
189 3 9.08118 8.49788 13.5324
190 3 5.3401 10.1956 10.3223
191 3 7.59067 9.50387 11.542
241 4 4.048 9.51414 14.5273
242 2 3.06862 9.10023 13.1402
243 3 5.04559 8.29823 14.6318
179 3 4.81888 5.94534 9.44445
85 2 6.242 5.39562 13.4196
262 2 10.0738 6.45004 14.9335
ITEM: TIMESTEP
100
ITEM: NUMBER OF ATOMS
271
ITEM: BOX BOUNDS xy xz yz pp pp pp
-7.2018999999999993e+00 1.4748699999999999e+01 -6.1971999999999996e+00
-1.8606000000000000e+00 1.3431800000000001e+01 -1.0046999999999999e+00
0.0000000000000000e+00 1.6775696000000000e+01 -1.8606000000000000e+00
ITEM: ATOMS id type x y z
3 4 0.928348 1.18777 5.40639
4 4 0.326717 3.55602 7.48791
218 3 5.61408 0.476049 6.94761
21 4 3.32261 6.1062 4.71426
41 2 2.2574 1.26404 4.41667
50 2 3.95128 3.04629 1.06584
52 2 4.12812 4.8349 5.55464
246 2 3.67868 0.407499 2.87884
193 4 5.65145 1.59861 5.85462
68 2 -1.32686 4.42474 5.58846
69 2 -0.0531287 5.60877 6.15975
82 2 -1.39789 5.24845 2.81383
83 2 0.213269 4.34474 1.81767
153 3 1.35376 4.47721 8.22194
120 1 -0.922895 4.95762 6.42381
126 1 -0.493377 5.48916 2.15372
138 3 -0.214279 1.03548 4.34946
139 3 1.0463 -0.113696 6.30488
140 3 0.811749 2.49981 6.31573
19 4 1.24548 6.17698 2.49309
256 2 -1.3706 4.48703 0.589853
155 3 2.21097 5.40729 3.64162
201 2 4.85085 1.36893 3.59641
202 2 3.64386 2.19369 4.95159
203 2 3.88737 0.182032 4.83009
206 2 4.06859 3.68625 6.6966
213 1 4.24424 1.249 4.53984
14 4 6.31915 -0.537018 7.97095
67 2 -1.60411 5.23494 7.22996
229 2 2.17236 3.46198 0.29316
230 3 1.86849 0.898834 0.873931
84 2 -0.84683 6.0675 1.21664
15 4 3.09045 0.776408 9.76964
80 2 1.99532 3.00517 16.3812
17 4 5.23835 0.943275 12.1535
42 2 -0.255898 4.2196 11.6581
48 2 1.83043 1.94018 10.2773
125 1 2.90065 2.31459 16.3858
64 2 -0.153031 3.04169 9.85926
228 2 1.70269 -0.204306 15.2709
65 2 -0.844091 1.54087 8.76929
53 2 3.07896 4.09505 14.6446
76 2 2.55971 3.37299 8.90783
149 3 2.51037 -0.178842 8.5698
141 3 -2.58749 4.75044 10.3278
91 2 1.50247 4.69663 14.3158
119 1 -0.653894 2.69991 8.8832
123 1 3.3041 2.6774 9.3961
231 3 -0.870758 0.25654 16.0182
150 3 4.03862 0.442652 10.9858
151 3 5.72163 -0.156171 13.3495
81 2 2.86542 1.53137 15.5777
75 2 3.87032 3.14989 10.2019
70 2 1.73151 -1.03938 12.013
270 2 -0.208612 -0.577472 9.03568
227 4 0.624465 0.0391457 16.547
156 3 4.72213 2.29115 12.8793
255 2 -2.62622 2.82323 15.3708
66 2 -1.69449 3.36579 8.53572
74 2 4.09551 2.20939 8.40774
7 4 -4.96732 10.5225 3.2815
253 2 -1.46611 12.3797 1.07866
8 4 -1.73981 8.42923 7.02929
9 4 -2.5812 10.5491 5.06969
61 2 -5.0902 9.9466 7.4854
165 3 2.41544 7.07181 5.63502
170 3 1.94096 9.61424 6.8005
25 4 -0.080631 11.4844 3.40138
27 4 2.42317 8.05733 7.11436
2 4 -4.21363 12.3055 7.22844
44 2 -0.962427 6.87747 6.91686
45 2 -3.35831 7.93565 7.30899
51 2 -0.133018 7.10599 3.18499
166 3 -1.2251 9.20682 8.31845
24 4 2.62403 7.91684 0.128876
1 4 -3.58105 13.0817 1.71985
93 2 -0.846622 9.35526 2.1644
94 2 0.512612 9.11723 3.44187
95 2 0.926521 9.99048 1.71429
117 1 -2.4167 12.2601 0.37707
118 1 -5.34477 10.9358 7.90666
130 1 0.143785 9.75778 2.55413
142 3 -4.30718 11.9076 2.4205
143 3 -3.91011 9.99124 4.3551
144 3 -1.56511 9.27544 5.67049
145 3 -3.09271 11.5263 6.25016
159 3 1.96248 6.97815 1.22202
160 3 0.304426 12.568 2.14311
161 3 -1.64337 11.4608 3.91832
169 3 0.916904 11.3637 4.76928
164 3 1.68145 7.34098 8.32222
60 2 -3.04139 11.2888 0.464534
262 2 -4.58145 6.45107 14.975
237 4 -5.599 8.6519 15.0772
10 4 -2.0392 7.61874 13.1791
11 4 -3.29359 10.0224 11.5429
20 4 1.23626 6.05481 9.22261
28 4 -1.16648 10.4643 9.26907
30 4 -0.807364 9.34016 15.2671
43 2 -3.70962 7.17884 9.54039
46 2 -3.36933 6.97031 14.1387
47 2 -5.07645 10.1677 11.6003
129 1 1.8269 5.56282 14.905
63 2 -5.13373 11.0654 9.0476
31 4 1.24391 10.4872 11.4331
101 2 1.2427 8.73914 13.2808
55 2 -2.09907 9.14634 16.3284
92 2 2.28287 6.34635 14.2721
252 2 -3.48841 10.9779 16.1395
100 2 0.594515 8.12469 11.6287
121 1 -4.00645 11.501 12.5393
267 2 0.404062 6.31599 15.4875
132 1 1.42628 8.71154 12.1524
239 2 -3.42088 7.58834 15.8717
146 3 -1.56731 6.5067 12.172
147 3 -2.77734 8.79248 12.2979
154 3 -0.318465 6.27806 9.87992
157 3 2.20083 6.15188 10.549
6 4 -1.26078 5.53998 10.9855
168 3 -2.60527 10.4687 10.2398
172 3 -0.942551 8.20717 14.117
173 3 0.548272 9.18349 16.0633
174 3 -1.08178 10.911 14.4572
175 3 0.0244549 10.317 10.3619
71 2 -2.85641 11.6778 12.9767
238 2 -4.49906 9.89873 15.5838
240 1 -4.46163 7.23295 15.7296
54 2 3.10901 5.17684 16.0238
72 2 -4.69273 11.2838 13.3868
167 3 -0.90933 11.8875 8.56573
263 2 -4.95614 6.93382 16.7698
16 4 0.0166393 11.8877 13.8816
198 2 13.09 2.23934 2.58282
224 3 11.1362 0.942776 7.24539
211 2 8.84052 1.89365 7.60842
73 2 9.84506 2.83955 1.48056
56 2 6.29576 4.92422 7.40137
106 2 6.70764 4.23851 4.74794
13 4 8.02709 2.48588 0.171566
223 3 9.43703 0.816575 5.11488
112 2 9.01912 5.98967 1.88546
134 1 6.78912 5.38767 4.55244
122 1 9.54838 3.54542 0.524256
152 3 6.69549 3.26692 0.574819
177 3 5.52161 5.21058 2.10629
192 4 13.0822 1.0113 3.6964
222 3 11.9378 1.26687 4.69854
194 4 8.3102 1.53333 4.15657
196 4 10.7577 1.53366 5.75437
197 4 9.72909 4.07473 7.21308
212 2 7.26431 3.00719 7.51926
199 2 8.84058 3.08276 3.93768
200 2 8.0573 4.56402 6.89052
204 2 5.75057 4.22106 5.79673
205 2 5.70031 3.33096 7.63388
221 3 6.90088 1.7332 4.88742
225 3 10.4049 3.30214 6.07332
268 2 13.7818 0.140699 7.54214
247 2 12.3046 2.27594 0.14329
220 3 8.3058 0.93842 2.64369
264 2 9.43352 4.7305 0.791954
107 2 6.52901 5.94825 5.47142
217 1 8.30682 2.91693 7.91253
148 3 8.09276 0.877676 0.0127909
214 1 5.16981 3.53948 6.62183
105 2 7.87655 5.68292 4.21345
18 4 5.41258 4.08216 0.985545
111 2 9.02325 6.53703 0.0203076
22 4 4.35596 4.02187 13.401
49 2 7.21794 -1.3301 15.2739
57 2 7.81974 4.11255 12.4373
77 2 6.6603 1.98041 10.1271
78 2 7.26548 0.382926 11.0051
79 2 7.30284 2.07752 11.8893
5 4 10.7705 5.51246 9.87091
216 1 13.5225 -0.426151 8.45498
249 2 6.82313 0.430788 9.30159
124 1 6.80914 1.38626 11.0906
127 1 6.05136 4.44089 14.0526
158 3 4.05188 5.01208 12.1945
195 4 11.5451 0.28321 8.76062
207 2 11.2945 2.67918 9.70895
208 2 12.7065 1.57297 10.2241
209 2 10.9601 1.23815 10.8126
210 2 8.43989 3.12724 9.05271
181 3 7.24946 5.12448 10.042
215 1 11.6012 1.65703 9.98847
257 1 11.8871 2.20988 16.3993
232 4 12.3975 0.578041 15.5354
233 4 11.3216 -1.33022 13.3631
234 2 10.2429 -0.77131 12.2933
235 3 11.8131 -0.0853739 14.2269
265 2 9.27962 1.55395 16.4268
254 2 10.7464 2.23196 16.5445
248 2 7.74435 1.41587 15.5361
86 2 6.7882 3.58439 13.8239
87 2 5.6661 4.5535 15.2015
180 3 9.70253 5.36796 11.0116
35 4 8.12706 5.36353 11.3739
226 3 10.3029 4.86285 8.44859
266 2 4.17459 3.19142 16.0654
261 1 8.27434 11.0797 4.34294
162 3 3.23214 9.35292 0.463108
32 4 5.85984 11.8992 1.80383
36 4 8.10599 8.12493 1.51704
29 4 1.85807 11.1895 6.2487
136 1 9.37764 6.73429 1.14397
96 2 3.59385 12.0374 4.91277
97 2 4.23957 10.7207 6.23709
98 2 3.81722 12.5659 6.75526
102 2 5.91129 9.31304 2.86754
103 2 4.30191 10.365 2.60322
104 2 5.56517 10.9358 3.91251
108 2 6.79828 7.53632 7.52597
171 3 1.41418 12.3355 7.33556
184 3 7.48726 8.6664 0.214379
114 2 4.61228 7.20451 7.33448
178 3 4.51288 6.95436 3.96221
116 2 4.7671 9.18395 7.28122
131 1 3.6484 11.7202 6.01684
133 1 5.44733 10.4196 2.86625
250 2 4.39256 12.7087 1.25281
137 1 4.26737 8.24378 7.71462
163 3 2.9795 12.0891 1.64577
260 2 8.35338 12.2217 4.3038
182 3 6.80908 7.66729 2.5897
183 3 9.1934 9.37165 2.38267
219 3 6.58664 13.0801 2.78204
185 3 6.7025 11.2322 0.53735
12 4 1.79049 13.2226 1.69196
258 2 8.40517 10.6253 5.34487
259 2 7.30587 10.6941 3.78474
62 2 8.36925 11.2608 7.56619
113 2 10.4405 7.14822 1.26634
26 4 2.90329 10.9669 0.073755
269 2 6.73436 12.0539 8.0988
33 4 5.87444 6.37196 3.19541
58 2 3.67903 10.0452 8.34771
23 4 3.70533 6.03064 10.9058
99 2 2.52766 8.27803 11.877
271 3 7.76102 8.88311 15.8211
110 2 6.63924 8.1461 9.34558
179 3 4.63353 5.80513 9.54018
38 4 3.92315 10.9147 9.8131
39 4 7.64096 8.20374 12.5132
40 4 6.60824 10.6998 11.0557
245 3 3.15965 9.63076 15.9354
59 2 6.23834 8.39142 13.4938
115 2 4.31952 8.21036 8.80012
88 2 3.93686 8.75592 11.5124
89 2 5.34072 7.84001 10.9036
90 2 4.68298 7.32113 12.5554
37 4 6.33853 8.37484 16.3417
85 2 6.20407 5.48427 13.5376
128 1 4.41189 7.73562 11.4465
236 3 6.38059 11.6458 12.307
176 3 0.93888 11.3047 12.6988
244 3 4.50242 10.9052 14.204
251 2 7.46061 11.588 9.78717
135 1 7.15159 7.42311 8.62242
109 2 8.17983 7.311 8.80632
187 3 2.59447 10.8478 10.6776
188 3 7.67934 6.71926 12.044
189 3 8.89174 8.51427 13.4806
190 3 5.24421 10.3103 10.3887
191 3 7.49538 9.37289 11.3006
241 4 4.05448 9.49791 14.6629
242 2 3.02908 9.09479 13.3225
243 3 5.18482 8.33901 14.741
186 3 4.49169 12.3984 9.31604
34 4 6.27945 5.78942 8.96016
ITEM: TIMESTEP
200
ITEM: NUMBER OF ATOMS
271
ITEM: BOX BOUNDS xy xz yz pp pp pp
-7.2018999999999993e+00 1.4748699999999999e+01 -6.1971999999999996e+00
-1.8606000000000000e+00 1.3431800000000001e+01 -1.0046999999999999e+00
0.0000000000000000e+00 1.6775696000000000e+01 -1.8606000000000000e+00
ITEM: ATOMS id type x y z
3 4 0.949228 1.16378 5.33371
4 4 0.401289 3.59478 7.52936
218 3 5.67369 0.707926 7.01665
21 4 3.24412 5.97595 4.73889
41 2 2.324 1.57593 4.43901
50 2 3.89536 3.10561 0.991449
52 2 3.94706 4.57538 5.39702
246 2 3.37225 0.485342 2.85651
193 4 5.66309 1.71862 5.76107
68 2 -1.51139 4.68778 5.95589
69 2 -0.0541753 5.88665 6.35282
82 2 -1.48379 4.98149 2.59997
83 2 0.30626 4.44613 1.39795
80 2 3.14313 5.13364 0.269179
120 1 -0.758939 5.07853 6.73888
126 1 -0.665461 5.52515 2.07822
138 3 -0.216825 1.00208 4.22591
139 3 1.2468 -0.142159 6.15725
140 3 0.771352 2.42384 6.28849
19 4 1.23386 5.99852 2.40393
256 2 -1.41573 4.57265 0.422891
155 3 2.21993 5.3842 3.59112
201 2 4.83654 1.4621 3.28134
202 2 3.82849 2.49234 4.80074
203 2 4.13189 0.278602 4.79586
206 2 4.04778 3.61235 6.69054
213 1 4.32153 1.37302 4.33228
14 4 6.25633 -0.500582 8.04398
67 2 -1.28017 5.43649 7.69149
229 2 2.21163 3.33298 0.50721
230 3 1.93603 0.581422 0.594843
84 2 -1.02291 6.22617 1.27211
15 4 3.19387 0.795598 9.82333
153 3 1.41624 4.36873 8.44508
17 4 5.07236 0.925477 12.1824
42 2 -0.505578 4.00603 11.6176
48 2 2.03739 1.95447 10.395
125 1 2.74474 2.47388 16.5964
64 2 0.199578 2.64596 9.68639
228 2 1.81835 -0.00315413 15.1214
65 2 -0.895093 1.48721 8.53944
53 2 3.546 4.30003 14.6738
76 2 2.73599 3.31084 8.98404
149 3 2.63959 -0.077439 8.61694
141 3 -2.6 4.93461 10.1891
91 2 1.84299 4.51558 14.3294
119 1 -0.532511 2.57243 8.74684
123 1 3.55652 2.63264 9.40955
231 3 -0.720963 0.281777 16.0653
150 3 4.08481 0.394274 11.056
151 3 5.50282 -0.144977 13.292
81 2 2.17676 1.94492 15.7914
75 2 4.18312 3.18574 10.3196
266 2 4.07363 3.23154 15.9742
6 4 -1.22617 5.4002 10.9746
227 4 0.790592 0.051428 16.4543
156 3 4.46858 2.30372 12.7874
255 2 -2.46202 2.64399 15.1911
66 2 -1.47154 3.4842 8.77354
74 2 4.16334 2.29411 8.46288
16 4 6.18022 -1.43046 13.8305
7 4 -5.03752 10.4745 3.29321
253 2 -1.35046 12.325 1.0345
8 4 -1.78407 8.60164 7.06651
9 4 -2.40572 10.6044 4.98103
61 2 -4.70051 9.99288 7.27842
165 3 2.5534 6.80542 5.89615
170 3 1.89196 9.33284 6.66219
25 4 0.17637 11.4101 3.45542
27 4 2.34357 7.90186 7.06271
2 4 -4.10124 12.3836 7.07837
44 2 -1.27025 6.91755 6.82932
45 2 -3.31822 8.16048 7.53365
51 2 -0.202857 6.86566 3.13909
166 3 -1.08112 9.21678 8.27018
24 4 2.66819 7.91915 0.119796
1 4 -3.61393 13.0278 1.59214
93 2 -0.359776 9.31474 2.07883
94 2 0.886008 9.06571 3.54364
95 2 1.44619 9.88154 1.952
117 1 -2.29794 12.3231 0.345294
118 1 -5.22188 10.9427 7.54584
130 1 0.564995 9.68871 2.64375
142 3 -4.47569 11.8813 2.23839
143 3 -3.84457 10.0135 4.21484
144 3 -1.69347 9.29818 5.62524
145 3 -2.83453 11.6822 6.19268
159 3 1.95203 6.92791 1.31305
160 3 0.321352 12.7385 2.17759
161 3 -1.39484 11.4439 3.89648
169 3 1.14651 11.4215 4.7715
164 3 1.6553 7.17045 8.30664
60 2 -2.65058 11.2749 0.215823
72 2 -4.92264 11.2957 13.4437
237 4 -5.54005 8.71647 15.0499
10 4 -2.16657 7.54611 13.1326
11 4 -3.29873 9.96696 11.6064
20 4 1.23967 6.00374 9.39051
28 4 -1.10189 10.3934 9.34736
30 4 -0.841244 9.42629 15.0647
43 2 -3.96072 7.09729 9.70611
46 2 -3.364 6.79757 14.1468
47 2 -5.05939 10.1677 11.3849
129 1 1.99355 5.44483 14.9738
63 2 -5.28202 11.1481 8.65229
240 1 -4.78031 7.03264 15.5819
101 2 1.11489 8.75893 13.3208
55 2 -1.97568 9.23664 16.3557
92 2 2.41537 6.23233 14.3396
252 2 -3.18665 11.1734 16.182
100 2 0.500544 8.12913 11.6804
121 1 -4.1475 11.4004 12.5912
267 2 0.422546 5.9841 15.4939
132 1 1.36561 8.68613 12.2415
239 2 -3.73529 7.5422 15.9253
146 3 -1.63552 6.46133 12.1145
147 3 -2.92575 8.65851 12.4325
154 3 -0.38675 6.11411 9.74899
157 3 2.19206 6.03578 10.7587
167 3 -0.854415 11.8137 8.55359
168 3 -2.67917 10.228 10.1794
172 3 -0.987011 8.05146 14.0533
173 3 0.576561 9.43288 15.7784
174 3 -1.03059 10.8837 14.4103
175 3 0.0900321 10.2674 10.4888
71 2 -3.0066 11.6701 12.9814
238 2 -4.32859 9.92456 15.4584
54 2 3.19217 5.13866 16.1677
70 2 -4.388 12.1235 11.7624
198 2 12.8087 2.18783 2.69579
224 3 11.079 0.86591 7.40827
211 2 8.30126 1.98346 7.52161
73 2 9.72953 2.83072 1.74061
56 2 6.11399 5.04301 7.4052
106 2 6.96926 4.45842 4.69067
13 4 8.02659 2.53045 0.255284
223 3 9.46195 0.97941 5.18093
112 2 8.68084 5.89812 1.85448
134 1 6.84911 5.59448 4.63244
122 1 9.66015 3.47882 0.725839
152 3 6.74454 3.3295 0.572515
177 3 5.56616 5.2622 2.13782
192 4 13.0289 0.937556 3.70798
222 3 12.0777 1.34327 4.85907
194 4 8.43406 1.74643 4.16224
196 4 10.866 1.62167 5.81467
197 4 9.59074 3.93032 7.26102
212 2 7.04494 3.32381 7.30222
199 2 8.9691 3.2722 3.86432
200 2 8.09759 4.56166 6.68246
204 2 5.68633 4.33407 5.80331
205 2 5.72882 3.41629 7.6273
221 3 7.04148 1.96957 4.97621
225 3 10.5137 3.2101 6.10513
268 2 13.7789 0.102889 7.50855
247 2 12.4876 2.34574 0.418001
220 3 8.46183 1.058 2.7194
264 2 9.37719 4.56943 0.987997
107 2 6.44904 6.09457 5.55092
217 1 8.03376 3.02632 7.80245
111 2 8.61612 6.4111 0.0318713
214 1 5.17859 3.54785 6.58616
105 2 7.90235 6.08127 4.28998
18 4 5.46495 4.18475 0.887743
148 3 7.966 0.97625 0.00987369
12 4 7.98573 -0.0907719 1.74281
265 2 10.6309 3.40197 0.0617369
22 4 4.50155 3.92622 13.2901
49 2 7.13726 -0.939681 15.2063
57 2 7.47768 4.13229 12.2109
77 2 6.49763 1.92123 10.2179
78 2 7.35009 0.460021 11.0915
79 2 7.09689 2.08271 11.9947
5 4 10.6978 5.45952 9.88158
216 1 13.327 -0.470152 8.40957
249 2 6.79136 0.358893 9.44434
124 1 6.73737 1.39068 11.1769
127 1 6.26764 4.27073 13.8868
158 3 4.19274 4.94562 12.1422
195 4 11.434 0.174618 8.7317
207 2 11.4954 2.55311 9.57404
208 2 11.9354 1.23223 10.915
209 2 10.1185 1.50378 10.3184
210 2 8.07029 3.21803 8.99416
181 3 7.34856 5.20825 9.86853
215 1 11.2223 1.57865 10.0312
257 1 11.79 2.18782 16.3489
232 4 12.514 0.489769 15.7693
233 4 11.3842 -1.33524 13.4468
234 2 10.1531 -0.550345 12.5707
235 3 11.8151 -0.277471 14.5293
35 4 8.08042 5.38714 11.251
254 2 10.6681 2.45514 16.4514
248 2 7.97065 1.51932 15.7272
86 2 6.9941 3.39952 13.6776
87 2 5.82106 4.31764 15.0816
180 3 9.70845 5.18943 11.138
226 3 10.1313 4.81673 8.45004
270 2 13.722 -0.0516799 9.33187
261 1 8.23492 10.9939 4.26573
162 3 2.99672 9.43998 0.451104
32 4 5.74423 12.0088 1.91761
36 4 7.98325 8.18274 1.5553
29 4 1.83556 11.1934 6.22314
136 1 8.99102 6.63068 1.07818
96 2 3.62913 11.5931 4.59836
97 2 4.15939 10.4774 6.11059
98 2 3.91709 12.3874 6.35632
102 2 5.86162 9.47236 2.83139
103 2 4.17355 10.494 2.60357
104 2 5.50206 10.9004 4.09242
108 2 6.78743 7.88122 7.6412
171 3 1.26123 12.1802 7.44359
184 3 7.44906 8.88356 0.0618481
114 2 4.72507 7.49042 6.94146
178 3 4.37271 6.89846 4.0878
116 2 4.84877 9.16627 7.32223
131 1 3.63608 11.4635 5.75074
133 1 5.37894 10.4767 2.98031
250 2 4.36459 12.6908 1.13046
137 1 4.21514 8.29582 7.56099
163 3 2.81819 12.0772 1.5497
260 2 8.44464 12.1536 4.2639
182 3 7.00245 7.65868 2.56061
183 3 9.10902 9.34495 2.4273
219 3 6.32213 13.0788 2.97257
185 3 6.80374 11.3942 0.729002
58 2 3.49661 9.97152 8.32953
258 2 8.32996 10.5717 5.3169
259 2 7.18663 10.7794 3.82595
62 2 8.54062 11.1975 6.94461
113 2 10.0303 6.89325 1.12516
33 4 5.8158 6.36402 3.293
23 4 3.76258 5.94468 10.9718
99 2 2.45954 8.22275 11.9663
271 3 7.89517 8.93874 15.8928
110 2 5.75533 8.12974 9.2663
179 3 4.8523 5.82633 9.57986
38 4 3.89621 10.9618 9.69363
39 4 7.64243 8.28814 12.515
40 4 6.48678 10.6607 11.0949
245 3 3.15855 9.80299 16.0917
59 2 6.21087 8.39513 13.518
115 2 4.11378 8.07756 8.64037
88 2 3.7799 8.46768 10.8245
89 2 5.41569 7.80568 11.2173
90 2 4.08997 7.76154 12.5211
37 4 6.38069 8.553 16.3627
263 2 9.33266 6.66331 16.4375
128 1 4.34066 7.69663 11.3766
236 3 6.4525 11.4324 12.5864
176 3 0.96016 11.3435 12.8123
244 3 4.5479 10.8343 14.017
251 2 7.20248 11.8608 10.0488
135 1 6.70375 7.66938 8.75273
109 2 7.73307 7.92104 9.3309
187 3 2.6511 10.8592 10.6412
188 3 7.65504 6.8091 11.939
189 3 8.96948 8.7955 13.462
190 3 5.09468 10.2212 10.4139
191 3 7.49265 9.32311 11.2353
241 4 4.00697 9.53703 14.699
242 2 2.81452 8.95782 13.6231
243 3 5.24688 8.45658 14.8092
31 4 1.3125 10.4697 11.4551
34 4 6.28985 5.87416 8.96227
262 2 10.1308 6.21346 14.8141
26 4 1.80787 9.19452 16.7561
85 2 6.52003 5.29687 13.4463
186 3 4.3558 12.4022 9.18912
269 2 7.24641 11.8496 8.39059
ITEM: TIMESTEP
300
ITEM: NUMBER OF ATOMS
271
ITEM: BOX BOUNDS xy xz yz pp pp pp
-7.2018999999999993e+00 1.4748699999999999e+01 -6.1971999999999996e+00
-1.8606000000000000e+00 1.3431800000000001e+01 -1.0046999999999999e+00
0.0000000000000000e+00 1.6775696000000000e+01 -1.8606000000000000e+00
ITEM: ATOMS id type x y z
3 4 0.984447 1.25011 5.22472
4 4 0.379268 3.55196 7.59091
218 3 5.78936 0.472454 6.91003
21 4 3.17644 5.86751 4.67396
41 2 2.42908 1.54883 4.27418
50 2 3.91226 3.29353 1.41646
52 2 4.01297 4.4489 5.23077
246 2 3.30764 0.325042 2.84252
193 4 5.63231 1.68423 5.65604
68 2 -1.38504 4.67267 5.95262
69 2 0.0967742 5.6594 6.44539
82 2 -1.4294 4.98142 2.589
83 2 0.307395 4.3847 1.2277
80 2 2.95533 5.2363 0.494009
120 1 -0.720121 5.00494 6.83431
126 1 -0.629556 5.47098 1.97718
138 3 -0.115767 0.93327 4.12791
139 3 1.22161 -0.0714941 6.04299
140 3 0.738906 2.49435 6.24635
19 4 1.22732 5.87278 2.217
256 2 -1.54646 4.56758 0.382284
155 3 2.17249 5.45798 3.51573
201 2 5.12547 1.02633 3.54852
202 2 3.82441 2.42725 5.00119
203 2 4.21375 0.0644148 4.99045
206 2 4.09336 3.77993 6.82788
213 1 4.28527 1.01547 4.3823
14 4 6.29774 -0.544734 8.04434
67 2 -1.31934 5.42689 7.66298
229 2 2.177 3.34798 0.771479
230 3 2.19611 0.703257 0.558487
84 2 -1.08674 6.07383 1.11701
125 1 3.66575 4.39634 0.141394
153 3 1.64496 4.36505 8.37999
15 4 3.13554 0.746662 9.71955
66 2 -1.75729 3.28861 8.71249
17 4 5.04532 0.838842 12.1944
42 2 -0.53402 4.14364 11.5355
48 2 2.04849 2.11308 10.0097
266 2 3.98491 3.29584 16.1007
64 2 -0.182878 2.84516 9.83994
228 2 1.73273 0.358599 15.2379
65 2 -1.0328 1.52328 8.71684
53 2 3.59467 4.24879 14.6813
76 2 3.00205 3.30661 8.99131
149 3 2.62107 -0.0192303 8.44031
141 3 -2.61158 4.97748 10.1985
91 2 1.83941 4.24884 14.9323
119 1 -0.804669 2.6369 8.81291
123 1 3.76541 2.51243 9.27649
231 3 -0.766596 0.267445 16.1779
150 3 3.82761 0.189478 10.9869
151 3 5.49399 -0.141753 13.4019
81 2 2.19331 1.89519 16.0821
75 2 4.45637 2.85927 10.2094
270 2 -0.420711 -0.316176 9.2093
6 4 -1.26365 5.42467 10.9237
227 4 0.747415 0.126278 16.5475
156 3 4.63991 2.32951 12.8939
255 2 -2.51447 2.5831 15.205
74 2 4.50101 2.04396 8.41928
7 4 -4.98495 10.498 3.0834
253 2 -1.37401 12.1868 1.25517
8 4 -1.70137 8.53141 7.01485
9 4 -2.35483 10.6889 4.96895
61 2 -4.63898 10.0726 6.9023
165 3 2.48179 6.63313 5.87143
170 3 1.8144 9.44492 6.51095
25 4 0.206377 11.4087 3.46159
27 4 2.21452 7.8117 7.08268
2 4 -3.97551 12.5462 6.95654
44 2 -1.01307 7.00571 6.77535
45 2 -3.26866 8.09137 7.23076
51 2 -0.170595 6.83015 3.06696
166 3 -1.10205 9.22959 8.25579
62 2 -6.04192 11.3423 7.44032
1 4 -3.5711 12.9357 1.47236
93 2 -0.158001 9.13685 2.53842
94 2 1.38297 9.35505 3.58661
95 2 1.48395 9.75077 1.81359
117 1 -2.21281 12.0448 0.44995
118 1 -4.93695 10.9641 7.57985
130 1 0.790693 9.74425 2.68838
142 3 -4.51686 11.8684 2.1702
143 3 -3.75203 10.2585 4.10141
144 3 -1.74732 9.32621 5.74152
145 3 -2.85293 11.8523 6.02815
159 3 1.88547 6.87604 1.18478
160 3 0.467289 12.722 2.20862
161 3 -1.35076 11.2175 3.75102
169 3 1.13908 11.4259 4.76416
162 3 2.7206 9.60304 0.409079
60 2 -2.70366 11.0386 0.310825
72 2 -4.8998 11.3253 13.2423
237 4 -5.61085 8.79121 15.0824
10 4 -2.25441 7.46484 13.0959
11 4 -3.3167 9.97903 11.4804
20 4 1.4097 5.97851 9.28523
28 4 -1.19242 10.5322 9.37018
30 4 -0.857409 9.26944 15.025
43 2 -4.12105 6.97867 9.73329
46 2 -3.61872 6.88919 13.9569
47 2 -5.06478 9.98862 11.5632
129 1 2.03927 5.3198 15.0624
63 2 -4.53334 10.9648 8.66192
31 4 1.23487 10.3437 11.5469
101 2 1.27774 8.66168 13.3076
55 2 -1.8854 9.00613 16.3816
92 2 2.1419 5.8736 14.0787
252 2 -2.99847 10.7345 16.2584
100 2 0.65368 7.96971 11.614
121 1 -4.09744 11.4401 12.4629
267 2 0.453967 6.14822 15.2407
132 1 1.47477 8.56019 12.1982
239 2 -3.90197 6.93677 15.7077
146 3 -1.65818 6.31778 12.1684
147 3 -2.79424 8.7263 12.2753
154 3 -0.227353 5.98452 9.79424
157 3 2.24696 5.92704 10.6968
167 3 -1.05752 11.9344 8.49996
168 3 -2.66186 10.3708 10.06
172 3 -1.13526 7.90242 14.1521
173 3 0.534356 9.44412 15.7295
174 3 -1.23645 10.7188 14.1053
175 3 -0.00326004 10.44 10.5415
71 2 -3.05929 11.7234 12.9019
238 2 -4.43804 9.92264 15.6495
164 3 1.65407 7.39856 8.4624
16 4 -0.155703 11.8569 13.8456
70 2 -4.43516 12.1325 11.6118
24 4 1.60705 6.12302 16.7648
198 2 12.9712 2.20872 2.60635
224 3 11.1074 0.81013 7.4044
211 2 8.53095 1.84133 7.36652
73 2 9.63698 3.05435 1.83208
56 2 6.15194 5.0206 7.31569
106 2 6.97975 4.64901 4.51201
13 4 8.07983 2.60611 0.236731
223 3 9.53632 1.14744 5.28266
112 2 7.87769 5.9118 1.2676
134 1 6.8701 5.75792 4.73894
122 1 9.64945 3.57612 0.760324
152 3 6.77226 3.46416 0.616273
177 3 5.72195 5.43714 2.17464
192 4 13.0848 1.05298 3.75802
222 3 12.1684 1.47586 4.95655
194 4 8.46435 1.86091 4.25451
196 4 10.9382 1.6506 5.93078