LAMMPS (2 Aug 2023 - Update 2)
  using 2 OpenMP thread(s) per MPI task
# Initialization
units           real
dimension       3
boundary        p p p
atom_style      full

variable       timestep equal 0.5   # fs
variable       T equal 300.0   # low temperature
variable       Td equal 100*${timestep}  # damping time
variable       Td equal 100*0.5  
# variable       P equal 1.0  # pressure
# variable       Pd equal 10*${Td}  # pressure

variable       nevery equal 1000
variable       nrepeat equal 1
variable       nfreq equal ${nevery}*${nrepeat}
variable       nfreq equal 1000*${nrepeat}
variable       nfreq equal 1000*1
variable       nthermo equal ${nfreq}/10
variable       nthermo equal 1000/10
variable       nequil equal 2000*${nthermo}  # 2000: 100 ps
variable       nequil equal 2000*100  

variable       seed string 123456
variable       structure string 333-RV-32
variable       FF string "* * SiOCHN_2018.ff C H O Si"          # force field args for pair_coeff
# pair_coeff * * CHONSSi.ff C H O Si
# pair_coeff * * CHOSiNa.ff C H O Si
# pair_coeff * * SiOCHN_2018.ff C H O Si
# pair_coeff * * PDMSDecomp.ff C H O Si
# pair_coeff * * CHONSi.ff C H O Si
# pair_coeff * * CHOFe.ff O Si

timestep        ${timestep}
timestep        0.5

# box tilt large
# Read the initial sctructure
read_data       ${structure}.data
read_data       333-RV-32.data
Reading data file ...
  triclinic box = (0 0 0) to (15.7087 13.0868 17.5248) with tilt (-8.2042 -0.1458 -2.0056)
WARNING: Triclinic box skew is large. LAMMPS will run inefficiently. (src/domain.cpp:220)
  2 by 1 by 2 MPI processor grid
  reading atoms ...
  331 atoms
Finding 1-2 1-3 1-4 neighbors ...
  special bond factors lj:    0        0        0       
  special bond factors coul:  0        0        0       
     0 = max # of 1-2 neighbors
     0 = max # of 1-3 neighbors
     0 = max # of 1-4 neighbors
     1 = max # of special neighbors
  special bonds CPU = 0.000 seconds
  read_data CPU = 0.006 seconds

# Assign the force field
pair_style reaxff NULL safezone 3.0 mincap 150
pair_coeff ${FF}
pair_coeff * * SiOCHN_2018.ff C H O Si
WARNING: Van der Waals parameters for element SI indicate inner wall+shielding, but earlier atoms indicate a different van der Waals method. This may cause division-by-zero errors. Keeping van der Waals setting for earlier atoms. (src/REAXFF/reaxff_ffield.cpp:251)
# Charge equilibration for ReaxFF
fix myqeq all qeq/reaxff 1 0.0 10.0 1.0e-6 reaxff maxiter 400

neighbor        2 bin
neigh_modify    every 10 delay 0 check yes

# Energy minimization
print "*****Minimization starts.*****"
*****Minimization starts.*****
# Print system info
thermo          ${nthermo}
thermo          100
thermo_style    custom step temp press density vol pe etotal
dump dump_opt all custom 1 dump/dump_opt.lammpstrj id type q x y z
minimize 1.0e-6 1.0e-6 100 1000

CITE-CITE-CITE-CITE-CITE-CITE-CITE-CITE-CITE-CITE-CITE-CITE-CITE

Your simulation uses code contributions which should be cited:

- pair reaxff command: doi:10.1016/j.parco.2011.08.005

@Article{Aktulga12,
 author = {H. M. Aktulga and J. C. Fogarty and S. A. Pandit and A. Y. Grama},
 title = {Parallel Reactive Molecular Dynamics: {N}umerical Methods and Algorithmic Techniques},
 journal = {Parallel Computing},
 year =    2012,
 volume =  38,
 number =  {4--5},
 pages =   {245--259}
}

- fix qeq/reaxff command: doi:10.1016/j.parco.2011.08.005

@Article{Aktulga12,
 author = {H. M. Aktulga and J. C. Fogarty and S. A. Pandit and A. Y. Grama},
 title = {Parallel Reactive Molecular Dynamics: {N}umerical Methods and Algorithmic Techniques},
 journal = {Parallel Computing},
 year =    2012,
 volume =  38,
 pages =   {245--259}
}

CITE-CITE-CITE-CITE-CITE-CITE-CITE-CITE-CITE-CITE-CITE-CITE-CITE

Switching to 'neigh_modify every 1 delay 0 check yes' setting during minimization
WARNING: Fix qeq/reaxff group is not charge neutral, net charge = 27.88 (src/REAXFF/fix_qeq_reaxff.cpp:392)
Neighbor list info ...
  update: every = 1 steps, delay = 0 steps, check = yes
  max neighbors/atom: 2000, page size: 100000
  master list distance cutoff = 12
  ghost atom cutoff = 12
  binsize = 6, bins = 5 3 3
  2 neighbor lists, perpetual/occasional/extra = 2 0 0
  (1) pair reaxff, perpetual
      attributes: half, newton off, ghost
      pair build: half/bin/newtoff/ghost
      stencil: full/ghost/bin/3d
      bin: standard
  (2) fix qeq/reaxff, perpetual, copy from (1)
      attributes: half, newton off
      pair build: copy
      stencil: none
      bin: none
Per MPI rank memory allocation (min/avg/max) = 157 | 158.2 | 159.1 Mbytes
   Step          Temp          Press         Density         Volume         PotEng         TotEng    
         0   0              169612.15      1.400369       3602.6891     -25709.856     -25709.856    
        19   0              17164.647      1.400369       3602.6891     -28282.963     -28282.963    
Loop time of 2.28592 on 8 procs for 19 steps with 331 atoms

96.5% CPU use with 4 MPI tasks x 2 OpenMP threads

Minimization stats:
  Stopping criterion = energy tolerance
  Energy initial, next-to-last, final = 
     -25709.8561704197  -28282.9618237572  -28282.9629761401
  Force two-norm initial, final = 4313.5197 542.08393
  Force max component initial, final = 525.11622 190.8201
  Final line search alpha, max atom move = 0.00026023841 0.04965872
  Iterations, force evaluations = 19 39

MPI task timing breakdown:
Section |  min time  |  avg time  |  max time  |%varavg| %total
---------------------------------------------------------------
Pair    | 1.5044     | 1.6855     | 1.7931     |   8.5 | 73.73
Bond    | 0.00010721 | 0.00011321 | 0.00011831 |   0.0 |  0.00
Neigh   | 0          | 0          | 0          |   0.0 |  0.00
Comm    | 0.044486   | 0.15213    | 0.33319    |  28.3 |  6.66
Output  | 0.005813   | 0.0072761  | 0.0081381  |   1.1 |  0.32
Modify  | 0.43597    | 0.43602    | 0.43609    |   0.0 | 19.07
Other   |            | 0.004882   |            |       |  0.21

Nlocal:          82.75 ave          87 max          79 min
Histogram: 1 0 1 0 0 0 1 0 0 1
Nghost:        3996.75 ave        4019 max        3960 min
Histogram: 1 0 0 0 0 0 1 0 1 1
Neighs:        51835.2 ave       54180 max       49661 min
Histogram: 1 0 1 0 0 0 1 0 0 1

Total # of neighbors = 207341
Ave neighs/atom = 626.40785
Ave special neighs/atom = 0
Neighbor list builds = 0
Dangerous builds = 0
min_style cg
# Save the optimized structure
write_data ${structure}_opt.data
write_data 333-RV-32_opt.data
System init for write_data ...
undump dump_opt
reset_timestep 0

velocity        all create ${T} ${seed} dist gaussian
velocity        all create 300 ${seed} dist gaussian
velocity        all create 300 123456 dist gaussian
# equilibration at low T
print "##### Equilibration starts.##### "
##### Equilibration starts.##### 
velocity        all create ${T} 12345
velocity        all create 300 12345
fix             equil1 all nvt temp ${T} ${T} ${Td}
fix             equil1 all nvt temp 300 ${T} ${Td}
fix             equil1 all nvt temp 300 300 ${Td}
fix             equil1 all nvt temp 300 300 50
# fix             equil1 all npt temp ${T} ${T} ${Td} tri ${P} ${P} ${Pd}

# out put bonds and species information
fix bondinfo all reaxff/bonds ${nthermo} bonds/bonds.reaxff
fix bondinfo all reaxff/bonds 100 bonds/bonds.reaxff
# fix speciesinfo all reaxff/species ${nevery} ${nrepeat} ${nthermo} bonds/species.out

# compute MSD and RDF
compute msd1 all msd
fix myMSD all ave/time 10 10 ${nthermo} c_msd1[1] c_msd1[2] c_msd1[3] c_msd1[4] c_thermo_temp     file msd.out     title2 "# TimeStep MSD_X MSD_Y MSD_Z MSD_Total Temperture"
fix myMSD all ave/time 10 10 100 c_msd1[1] c_msd1[2] c_msd1[3] c_msd1[4] c_thermo_temp     file msd.out     title2 "# TimeStep MSD_X MSD_Y MSD_Z MSD_Total Temperture"
# C-C C-Si Si-O C-H Si-Si
compute rdf1 all rdf 200 1 1 1 4 3 4 1 2 4 4 cutoff 5.0
fix myRDF all ave/time ${nevery} ${nrepeat} ${nfreq} c_rdf1[*]     file rdf.out mode vector     title3 "# Row r g1(r) coor1(r) ..."
fix myRDF all ave/time 1000 ${nrepeat} ${nfreq} c_rdf1[*]     file rdf.out mode vector     title3 "# Row r g1(r) coor1(r) ..."
fix myRDF all ave/time 1000 1 ${nfreq} c_rdf1[*]     file rdf.out mode vector     title3 "# Row r g1(r) coor1(r) ..."
fix myRDF all ave/time 1000 1 1000 c_rdf1[*]     file rdf.out mode vector     title3 "# Row r g1(r) coor1(r) ..."

thermo_style    custom step temp press pe etotal
# Save trajectory
dump dump_eq all custom/gz ${nthermo} dump/dump_eq.lammpstrj.gz id type x y z q
dump dump_eq all custom/gz 100 dump/dump_eq.lammpstrj.gz id type x y z q

run ${nequil}
run 200000
WARNING: Compute rdf cutoff less than neighbor cutoff - forcing a needless neighbor list build (src/compute_rdf.cpp:179)
Neighbor list info ...
  update: every = 10 steps, delay = 0 steps, check = yes
  max neighbors/atom: 2000, page size: 100000
  master list distance cutoff = 12
  ghost atom cutoff = 12
  binsize = 6, bins = 5 3 3
  3 neighbor lists, perpetual/occasional/extra = 2 1 0
  (1) pair reaxff, perpetual
      attributes: half, newton off, ghost
      pair build: half/bin/newtoff/ghost
      stencil: full/ghost/bin/3d
      bin: standard
  (2) compute rdf, occasional
      attributes: half, newton on, cut 7
      pair build: half/bin/newton/tri
      stencil: half/bin/3d/tri
      bin: standard
  (3) fix qeq/reaxff, perpetual, copy from (1)
      attributes: half, newton off
      pair build: copy
      stencil: none
      bin: none
Per MPI rank memory allocation (min/avg/max) = 162.2 | 163.4 | 164.4 Mbytes
   Step          Temp          Press          PotEng         TotEng    
         0   300            20908.445     -28282.963     -27987.863    
       100   252.7794       15546.012     -28200.406     -27951.755    
       200   271.48067      16150.935     -28175.985     -27908.938    
       300   346.23255     -4315.3642     -28220.293     -27879.715    
       400   302.68791      4596.8591     -28192.911     -27895.167    
       500   347.70513      25613.471     -28290.152     -27948.126    
       600   344.95459      14474.414     -28353.8       -28014.48     
       700   318.34558      5925.2008     -28385.548     -28072.402    
       800   289.06064      9993.6719     -28398.264     -28113.924    
       900   287.35653      937.79748     -28409.275     -28126.612    
      1000   308.15598      3709.8452     -28430.117     -28126.994    
      1100   333.92273      2454.3479     -28464.977     -28136.508    
      1200   327.5874       5370.5239     -28507.505     -28185.268    
      1300   335.10088      7329.6228     -28562.079     -28232.452    
      1400   307.90284      11477.346     -28576.633     -28273.759    
      1500   300.23507      8363.8938     -28598.075     -28302.744    
      1600   320.98431      6480.9025     -28632.565     -28316.823    
      1700   294.09728      4331.7452     -28629.215     -28339.921    
      1800   324.31148      15086.508     -28683.105     -28364.09     
      1900   307.99143     -455.25537     -28692.613     -28389.652    
      2000   380.4915       21397.194     -28785.468     -28411.191    
      2100   309.74464      1543.4482     -28754.403     -28449.717    
      2200   307.91149     -1119.3206     -28809.106     -28506.223    
      2300   365.04313      6837.0311     -28951.356     -28592.275    
      2400   339.54923      23087.812     -29004.936     -28670.932    
      2500   366.48148      9690.0773     -29094.146     -28733.65     
      2600   311.96536      12100.496     -29079.337     -28772.467    
      2700   295.15668      7521.8475     -29074.807     -28784.471    
      2800   317.80285     -4193.5717     -29088.204     -28775.591    
      2900   322.12448      11558.354     -29097.278     -28780.414    
      3000   315.89788      13121.19      -29120.614     -28809.875    
      3100   285.80098      694.13955     -29125.879     -28844.746    
      3200   299.43409      9447.2387     -29161.836     -28867.293    
      3300   304.23235      921.85141     -29197.36      -28898.096    
      3400   300.82293      2901.3652     -29225.735     -28929.825    
      3500   338.3636      -3915.2544     -29287.734     -28954.897    
      3600   270.8256      -2577.1289     -29243.853     -28977.451    
      3700   311.83063      417.5628      -29303.02      -28996.283    
      3800   315.70958      12107.651     -29317.104     -29006.551    
      3900   275.91581      10454.318     -29272.546     -29001.137    
      4000   305.32417      3932.682      -29258.926     -28958.588    
      4100   328.49625      3319.0771     -29283.331     -28960.2      
      4200   305.74761      8558.7968     -29284.1       -28983.346    
      4300   275.93938     -2470.1057     -29282.206     -29010.773    
      4400   327.98602      17020.265     -29348.535     -29025.905    
      4500   317.9288       7226.2167     -29351.706     -29038.97     
      4600   277.10923      11742.728     -29338.825     -29066.242    
      4700   311.26592      10123.009     -29392.751     -29086.569    
      4800   324.21793     -1941.0737     -29423.384     -29104.461    
      4900   328.05772      18639.665     -29458.879     -29136.179    
      5000   287.70924      12096.524     -29459.389     -29176.379    
      5100   300.94109      14630.738     -29497.104     -29201.078    
      5200   346.03878     -5390.149      -29557.286     -29216.899    
      5300   298.6944       3125.5943     -29557.557     -29263.741    
      5400   262.25145     -4835.4401     -29553.693     -29295.724    
      5500   325.31018      18837.644     -29651.066     -29331.069    
      5600   289.8038       9914.5521     -29648.394     -29363.323    
      5700   325.59426      2539.2851     -29708.137     -29387.86     
      5800   296.01995      5924.679      -29705.211     -29414.026    
      5900   306.33088      9852.1741     -29722.901     -29421.573    
      6000   337.276        14417.147     -29779.19      -29447.422    
      6100   278.67329      11887.329     -29736.637     -29462.515    
      6200   255.94198      3515.959      -29711.882     -29460.121    
      6300   272.80907      2534.1321     -29722.606     -29454.253    
      6400   330.73078     -595.78205     -29781.553     -29456.224    
      6500   330.12468      8668.06       -29790.269     -29465.536    
      6600   357.3862       2139.9219     -29845.794     -29494.245    
      6700   328.79788      20917.574     -29842.338     -29518.91     
      6800   256.63783      23114.368     -29807.154     -29554.708    
      6900   313.57641      16164.059     -29888.41      -29579.955    
      7000   306.67767      5304.2989     -29875.436     -29573.767    
      7100   323.50512      11188.916     -29890.072     -29571.85     
      7200   281.70516     -4452.1308     -29862.127     -29585.023    
      7300   341.14963      8110.8303     -29959.531     -29623.953    
      7400   311.35644      783.69135     -29946.374     -29640.103    
      7500   272.54909      5970.2576     -29916.596     -29648.498    
      7600   289.87168      6296.7241     -29936.829     -29651.691    
      7700   302.35238     -530.53196     -29977.542     -29680.128    
      7800   287.87951      13861.643     -29990.078     -29706.9      
      7900   295.63449      5654.9717     -29994.552     -29703.746    
      8000   293.65626      7243.9792     -29966.503     -29677.642    
      8100   289.32838      958.18928     -29963.082     -29678.479    
      8200   281.52035      21386.874     -29963.89      -29686.968    
      8300   316.2771      -2162.8137     -29998.152     -29687.04     
      8400   335.6512       1881.3471     -30014.132     -29683.963    
      8500   297.0958      -699.23501     -29982.181     -29689.938    
      8600   292.56445      8217.3738     -29998.961     -29711.175    
      8700   293.94507      15713.726     -30005.612     -29716.468    
      8800   292.9428       15951.22      -29993.834     -29705.676    
      8900   301.44213     -8217.7684     -29968.711     -29672.192    
      9000   300.42582      3539.3334     -29972.095     -29676.576    
      9100   276.26561     -6590.6791     -29962.015     -29690.261    
      9200   285.45657      17038.772     -29986.918     -29706.123    
      9300   272.6426       14121.276     -30002.309     -29734.119    
      9400   262.87358      9706.6829     -30003.7       -29745.12     
      9500   257.91677      11403.759     -29968.053     -29714.348    
      9600   317.92184      12034.612     -30010.368     -29697.638    
      9700   296.92718      15977.22      -29980.986     -29688.908    
      9800   309.67593      16335.142     -29989.564     -29684.946    
      9900   348.92308     -2433.2647     -30077.294     -29734.069    
     10000   314.97022     -3261.9673     -30091.173     -29781.347    
     10100   287.88466      2260.6847     -30098.751     -29815.568    
     10200   308.33292      7679.069      -30139.936     -29836.639    
     10300   274.0565       6582.3899     -30108.544     -29838.964    
     10400   325.45125      10200.735     -30157.048     -29836.912    
     10500   302.91368     -9660.9852     -30124.785     -29826.819    
     10600   289.59559      9321.6986     -30107.362     -29822.496    
     10700   305.89587      10899.88      -30137.635     -29836.735    
     10800   306.6544      -3526.9974     -30167.848     -29866.202    
     10900   278.254        10861.027     -30133.314     -29859.605    
     11000   300.6239       19680.046     -30138.052     -29842.339    
     11100   320.04605      2740.8487     -30129.538     -29814.719    
     11200   328.11478      6678.4756     -30107.209     -29784.453    
     11300   345.328        5933.9852     -30093.704     -29754.016    
     11400   294.08758      12247.732     -30080.99      -29791.705    
     11500   320.77246      4383.2637     -30136.595     -29821.062    
     11600   330.6649       9585.5726     -30178.895     -29853.631    
     11700   275.68209      4294.4317     -30138.966     -29867.786    
     11800   277.58983      5356.8543     -30135.256     -29862.2      
     11900   327.05425      3198.1252     -30161.666     -29839.954    
     12000   327.40223      12134.24      -30147.905     -29825.85     
     12100   288.32895      16899.187     -30125.113     -29841.493    
     12200   291.71107      9516.9362     -30165.826     -29878.88     
     12300   296.35599      13658.15      -30165.246     -29873.73     
     12400   313.18814      1389.8739     -30167.618     -29859.545    
     12500   290.28778      8401.984      -30134.933     -29849.386    
     12600   309.50871      7961.7113     -30126.939     -29822.485    
     12700   326.29412      6990.8747     -30127.908     -29806.943    
     12800   303.82505     -774.06837     -30128.381     -29829.518    
     12900   309.3122       17799.623     -30164.006     -29859.746    
     13000   318.62994      6554.0529     -30179.921     -29866.496    
     13100   292.41083     -4546.0022     -30153.69      -29866.055    
     13200   316.51535      11484.493     -30169.236     -29857.891    
     13300   330.34138      10594.232     -30166.776     -29841.83     
     13400   303.25135      4966.9904     -30117.222     -29818.924    
     13500   325.69843     -853.27257     -30139.263     -29818.884    
     13600   299.46536      11415.825     -30152.188     -29857.614    
     13700   299.04908      5385.1095     -30158.682     -29864.517    
     13800   291.13781     -8190.5062     -30149.363     -29862.98     
     13900   331.79405      3952.415      -30178.747     -29852.372    
     14000   297.57333      8242.3464     -30161.69      -29868.977    
     14100   318.25368      11139.766     -30219.55      -29906.494    
     14200   303.5465       6047.5276     -30214.401     -29915.812    
     14300   262.70921     -240.2695      -30172.721     -29914.303    
     14400   311.33512      4814.7342     -30224.223     -29917.973    
     14500   296.6642       22525.065     -30221.737     -29929.918    
     14600   282.21752      9558.3113     -30221.906     -29944.297    
     14700   299.08103      3846.8821     -30245.606     -29951.41     
     14800   269.6544       12786.669     -30218.786     -29953.536    
     14900   320.51105      13999.668     -30244.302     -29929.025    
     15000   293.36311      3186.2702     -30199.486     -29910.914    
     15100   294.52312      5827.0218     -30205.756     -29916.043    
     15200   317.0821       12594.397     -30269.026     -29957.122    
     15300   366.92278      5167.6019     -30349.798     -29988.869    
     15400   257.62397     -8421.7633     -30271.438     -30018.021    
     15500   301.33005      291.29633     -30338.279     -30041.871    
     15600   350.37765     -1970.806      -30413.329     -30068.674    
     15700   320.81816      2192.529      -30396.143     -30080.564    
     15800   348.79137      3346.7863     -30421.01      -30077.915    
     15900   351.78597      6852.2999     -30407.667     -30061.627    
     16000   267.1885       22190.459     -30290.576     -30027.752    
     16100   360.04613     -1172.9317     -30384.006     -30029.841    
     16200   264.27697      2426.7674     -30312.189     -30052.229    
     16300   264.97257      1234.8952     -30325.759     -30065.115    
     16400   280.82155      1437.6995     -30340.387     -30064.152    
     16500   266.52726     -159.89506     -30328.155     -30065.981    
     16600   308.36864      10567.707     -30381.821     -30078.489    
     16700   267.01214      11009.971     -30365.437     -30102.786    
     16800   255.18678     -7051.442      -30364.663     -30113.644    
     16900   331.69324     -3527.4349     -30418.369     -30092.094    
     17000   258.72388      4180.7455     -30321.588     -30067.09     
     17100   356.2846       4855.6441     -30415.695     -30065.229    
     17200   301.49709      14298.017     -30368.511     -30071.938    
     17300   276.18653     -3277.8485     -30368.382     -30096.706    
     17400   310.46028     -6434.2472     -30418.769     -30113.38     
     17500   278.82508      1030.3966     -30376.451     -30102.18     
     17600   302.45617      1239.3436     -30376.708     -30079.192    
     17700   267.39715      5042.2769     -30341.591     -30078.561    
     17800   337.2909      -4717.3267     -30420.75      -30088.968    
     17900   312.07061      16214.101     -30405.83      -30098.856    
     18000   288.12576      173.58317     -30387.552     -30104.132    
     18100   294.5962       14116.446     -30387.354     -30097.57     
     18200   279.51084      12927.014     -30348.214     -30073.268    
     18300   343.33962      15928.591     -30398.161     -30060.429    
     18400   278.07227     -1433.0039     -30348.667     -30075.136    
     18500   283.48513     -953.70405     -30379.917     -30101.062    
     18600   309.4173       1046.8812     -30407.086     -30102.723    
     18700   254.70381      4056.2508     -30349.814     -30099.271    
     18800   338.57226      2288.1318     -30419.834     -30086.791    
     18900   347.03985     -1332.7482     -30402.799     -30061.428    
     19000   379.46322      5689.0187     -30419.179     -30045.913    
     19100   273.38662      8443.5252     -30309.42      -30040.498    
     19200   310.70464     -7705.6793     -30381.208     -30075.578    
     19300   290.43104      10518.766     -30385.543     -30099.856    
     19400   278.17936     -11549.574     -30374.165     -30100.529    
     19500   332.66986      5857.9229     -30410.422     -30083.186    
     19600   288.16561      5756.5086     -30347.162     -30063.703    
     19700   315.62669     -3065.471      -30380.631     -30070.159    
     19800   291.86329      1718.6448     -30393.159     -30106.062    
     19900   274.53057      777.94549     -30381.412     -30111.365    
     20000   258.55762     -1178.4459     -30353.04      -30098.705    
     20100   316.20503      6622.3667     -30388.826     -30077.786    
     20200   325.88413      8654.5811     -30372.49      -30051.928    
     20300   313.59967      10194.05      -30392.81      -30084.332    
     20400   310.5359       1913.6786     -30419.35      -30113.886    
     20500   336.06026      2440.2184     -30436.126     -30105.554    
     20600   296.05429      7467.6067     -30383.599     -30092.38     
     20700   324.8076      -4012.7008     -30415.404     -30095.902    
     20800   285.97629      5879.6515     -30381.14      -30099.834    
     20900   259.20495      7973.3072     -30365.055     -30110.084    
     21000   308.9796      -3461.2299     -30404.231     -30100.298    
     21100   316.09072      5738.1107     -30410.716     -30099.788    
     21200   312.71068     -823.78253     -30440.72      -30133.117    
     21300   300.33595      4880.4331     -30440.063     -30144.632    
     21400   289.55747      7829.7135     -30421.085     -30136.257    
     21500   313.54338      5126.1863     -30424.426     -30116.004    
     21600   301.59962      13761.951     -30392.666     -30095.992    
     21700   312.28689      1804.2372     -30386.212     -30079.026    
     21800   284.01194      1222.2981     -30391.311     -30111.938    
     21900   268.1314       2546.0073     -30398.993     -30135.241    
     22000   276.52005      11948.251     -30421.8       -30149.796    
     22100   254.37521     -1218.6811     -30413.225     -30163.005    
     22200   269.19814      14672.295     -30419.47      -30154.668    
     22300   290.03626      675.35652     -30405.244     -30119.945    
     22400   299.45637      18117.767     -30406.615     -30112.049    
     22500   304.21531     -4345.1461     -30434.001     -30134.755    
     22600   277.23315      9625.0456     -30422.262     -30149.557    
     22700   298.95178      2736.9207     -30433.321     -30139.252    
     22800   284.34748      3984.6054     -30401.866     -30122.162    
     22900   293.1803       3590.213      -30408.392     -30120        
     23000   286.80184      65.321077     -30420.649     -30138.531    
     23100   274.91798     -1789.3336     -30437.182     -30166.754    
     23200   307.71941      1751.0777     -30463.031     -30160.337    
     23300   328.63421      5502.2579     -30458.046     -30134.779    
     23400   299.37349      13418.165     -30416.027     -30121.543    
     23500   332.37327      9869.4077     -30449.047     -30122.103    
     23600   310.95111      7932.6707     -30434.497     -30128.625    
     23700   288.15211      2745.2321     -30446.972     -30163.526    
     23800   275.96462      4422.0664     -30440.099     -30168.641    
     23900   326.9289       2850.1684     -30463.911     -30142.321    
     24000   313.25151      7974.2691     -30439.947     -30131.812    
     24100   351.17408      4230.4568     -30493.564     -30148.125    
     24200   319.55801      6233.7578     -30489.975     -30175.636    
     24300   292.40619      16924.67      -30467.221     -30179.59     
     24400   299.53532     -4152.3405     -30464.809     -30170.166    
     24500   320.48197      6979.8706     -30478.753     -30163.505    
     24600   344.63912     -969.90113     -30470.327     -30131.317    
     24700   314.51138      9324.9958     -30432.842     -30123.467    
     24800   328.17463      2751.2358     -30478.742     -30155.928    
     24900   310.31468      7841.3423     -30475.469     -30170.223    
     25000   317.09231      7798.9494     -30484.121     -30172.208    
     25100   293.15933     -7135.1783     -30475.589     -30187.217    
     25200   242.35718      7815.2567     -30436.156     -30197.758    
     25300   309.17021      2554.7367     -30471.805     -30167.685    
     25400   345.87318      6793.1586     -30489.03      -30148.806    
     25500   285.38134      18.691468     -30427.558     -30146.838    
     25600   316.18714     -201.18331     -30474.992     -30163.969    
     25700   290.94216     -3162.6037     -30472.952     -30186.762    
     25800   281.20279      5268.2261     -30462.693     -30186.083    
     25900   286.41053      4691.9579     -30428.276     -30146.544    
     26000   305.09661     -700.49449     -30442.819     -30142.706    
     26100   340.70685     -6023.3843     -30500.325     -30165.183    
     26200   270.03682     -1482.5038     -30449.862     -30184.236    
     26300   241.29615      447.03295     -30419.953     -30182.597    
     26400   328.26766      8220.487      -30492.598     -30169.692    
     26500   299.95044     -509.50607     -30442.361     -30147.309    
     26600   298.58343     -6150.9326     -30413.062     -30119.355    
     26700   348.45835     -1601.9571     -30475.993     -30133.226    
     26800   310.97976      1380.2161     -30474.325     -30168.424    
     26900   292.34514      10930.029     -30486.635     -30199.065    
     27000   371.86294      2736.5346     -30606.007     -30240.217    
     27100   319.54107      9564.5565     -30603.008     -30288.686    
     27200   284.26174      2100.9886     -30600.529     -30320.91     
     27300   268.10566      7249.3246     -30609.553     -30345.826    
     27400   258.43248      805.04707     -30596.026     -30341.814    
     27500   282.04074      8537.9859     -30596.435     -30319.001    
     27600   264.91256      468.88887     -30558.409     -30297.824    
     27700   325.70239      1719.9223     -30625.095     -30304.712    
     27800   257.28689      1605.5326     -30582.819     -30329.734    
     27900   268.28093     -1591.9458     -30615.433     -30351.533    
     28000   316.86194      4514.9416     -30660.269     -30348.582    
     28100   260.13406      2647.4747     -30593.166     -30337.281    
     28200   287.68293      2746.4905     -30608.011     -30325.026    
     28300   286.81783      2292.8157     -30582.165     -30300.031    
     28400   353.63866      9364.8482     -30643.112     -30295.249    
     28500   362.2575       3256.5358     -30697.875     -30341.534    
     28600   239.3286       10310.638     -30585.793     -30350.374    
     28700   322.98592      9512.1521     -30675.729     -30358.018    
     28800   325.64051      4015.7816     -30673.363     -30353.041    
     28900   265.47085      9031.1975     -30592.084     -30330.949    
     29000   343.74917      11223.092     -30652.64      -30314.505    
     29100   318.61499     -12745.779     -30632.116     -30318.705    
     29200   256.77428      5143.6137     -30611.063     -30358.482    
     29300   300.15892      18542.335     -30659.47      -30364.213    
     29400   308.80286      7531.0321     -30660.757     -30356.997    
     29500   290.60299      12283.844     -30618.095     -30332.238    
     29600   333.1284       6497.2512     -30640.405     -30312.718    
     29700   279.72604     -274.68179     -30595.935     -30320.778    
     29800   291.43395     -4122.5294     -30620.994     -30334.32     
     29900   272.82813     -372.18894     -30617.212     -30348.839    
     30000   265.90732      3287.2079     -30621.79      -30360.226    
     30100   313.0845       4921.0436     -30671.301     -30363.33     
     30200   326.44297      10646.526     -30649.021     -30327.91     
     30300   311.83936     -3855.3638     -30616.525     -30309.779    
     30400   318.58958      9336.6427     -30643.698     -30330.312    
     30500   336.27138      4685.7044     -30682.109     -30351.33     
     30600   263.95654     -2488.2408     -30611.221     -30351.576    
     30700   280.01348      10822.212     -30630.353     -30354.912    
     30800   292.6499       4351.046      -30638.956     -30351.086    
     30900   288.60586      6453.2541     -30633.99      -30350.098    
     31000   322.96356      13422.809     -30675.093     -30357.404    
     31100   329.76315      7099.293      -30684.062     -30359.685    
     31200   333.57351     -1277.9237     -30685.423     -30357.297    
     31300   338.06342      4674.8986     -30673.298     -30340.756    
     31400   326.85046      15945.296     -30650.494     -30328.982    
     31500   315.12483     -2178.255      -30638.688     -30328.71     
     31600   311.3803       9099.4628     -30666.09      -30359.795    
     31700   282.9645       6133.9816     -30639.753     -30361.41     
     31800   312.25492      14568.33      -30662.82      -30355.665    
     31900   343.44154      9765.0604     -30671.045     -30333.213    
     32000   327.64372      14527.188     -30638.399     -30316.106    
     32100   310.04481      10865.196     -30643.284     -30338.303    
     32200   326.9364       2651.2718     -30684.605     -30363.009    
     32300   261.92038      6616.6624     -30614.025     -30356.382    
     32400   270.26387      12255.193     -30613.419     -30347.569    
     32500   356.38296      22576.126     -30702.227     -30351.664    
     32600   275.52909      5605.808      -30625.3       -30354.271    
     32700   292.86266      9346.9107     -30642.824     -30354.744    
     32800   280.90022     -7569.224      -30623.068     -30346.755    
     32900   371.03919      11805.839     -30690.772     -30325.793    
     33000   275.49882      7061.7408     -30591.505     -30320.506    
     33100   320.10138      9279.0732     -30665.871     -30350.998    
     33200   322.15944      3892.4295     -30690.233     -30373.335    
     33300   264.99389     -2043.8043     -30624.986     -30364.321    
     33400   279.10531     -6759.6024     -30626.906     -30352.359    
     33500   298.8898       202.22216     -30636.124     -30342.116    
     33600   294.44507      10465.139     -30606.727     -30317.091    
     33700   330.38577      7284.963      -30640.365     -30315.375    
     33800   266.47801     -2169.9723     -30608.833     -30346.707    
     33900   306.11779      4884.9527     -30656.231     -30355.113    
     34000   284.85481      4188.1023     -30632.788     -30352.585    
     34100   278.09836      10048.997     -30610.315     -30336.759    
     34200   318.42885      363.31496     -30616.895     -30303.667    
     34300   326.84097      17511.681     -30640.488     -30318.986    
     34400   333.54721      13612.754     -30670.347     -30342.248    
     34500   287.0701       15311.279     -30627.79      -30345.408    
     34600   265.21358     -820.40711     -30597.73      -30336.848    
     34700   326.1342      -4122.2723     -30643.779     -30322.972    
     34800   375.08817      13055.548     -30665.31      -30296.348    
     34900   290.09592      19773.217     -30595.987     -30310.629    
     35000   274.29896      17613.612     -30612.332     -30342.513    
     35100   284.30462     -5341.076      -30633.104     -30353.443    
     35200   296.07424      14628.534     -30645.976     -30354.737    
     35300   346.92552      8940.6843     -30684.046     -30342.787    
     35400   301.63681      7416.5927     -30607.488     -30310.778    
     35500   286.94527      7219.8291     -30601.288     -30319.03     
     35600   344.1352      -4438.1371     -30682.308     -30343.793    
     35700   280.90647      4548.2911     -30622.439     -30346.121    
     35800   296.10987      5145.3779     -30638.173     -30346.899    
     35900   270.15685      3670.9618     -30601.136     -30335.391    
     36000   330.05807      8012.7528     -30638.777     -30314.11     
     36100   295.91445      3534.1688     -30609.715     -30318.634    
     36200   313.33087      9503.9212     -30670.956     -30362.743    
     36300   304.87011      19728.14      -30664.487     -30364.596    
     36400   265.7288      -6901.3329     -30612.644     -30351.255    
     36500   281.35939      4165.8275     -30606.429     -30329.665    
     36600   339.60089      17878.657     -30648.412     -30314.358    
     36700   311.6882       18176.131     -30635.455     -30328.857    
     36800   287.35077      4360.9518     -30619.92      -30337.262    
     36900   288.65665      154.42492     -30633.206     -30349.264    
     37000   337.8167       5020.5758     -30687.589     -30355.29     
     37100   260.3273      -4918.0387     -30598.156     -30342.08     
     37200   337.83652      12932.723     -30652.958     -30320.64     
     37300   297.50324      10088.348     -30614.936     -30322.292    
     37400   291.75533      11319.409     -30637.677     -30350.687    
     37500   324.61168     -199.17878     -30683.835     -30364.525    
     37600   259.78201      3345.3806     -30624.393     -30368.854    
     37700   335.7467       11156.687     -30706.272     -30376.009    
     37800   294.5893       7006.9655     -30668.174     -30378.397    
     37900   275.07797      11052.418     -30647.507     -30376.922    
     38000   293.57411      4371.9878     -30668.683     -30379.903    
     38100   323.85064      5832.4031     -30701.61      -30383.049    
     38200   312.42467      16917.352     -30699.022     -30391.7      
     38300   265.57926      6015.7923     -30648.969     -30387.727    
     38400   295.3807       9989.108      -30658.921     -30368.365    
     38500   297.31067      15309.171     -30643.656     -30351.201    
     38600   329.58172      4413.0768     -30672.186     -30347.988    
     38700   297.17258     -372.82564     -30673.841     -30381.522    
     38800   287.00712     -7280.6913     -30687.923     -30405.604    
     38900   265.0746       39.330594     -30662.261     -30401.516    
     39000   303.98667      3925.1631     -30679.315     -30380.294    
     39100   303.99152      10457.08      -30660.414     -30361.387    
     39200   318.21627      6905.5082     -30675.927     -30362.908    
     39300   318.8758       7232.7093     -30699.438     -30385.77     
     39400   275.22979      12253.7       -30687.878     -30417.143    
     39500   289.64832      6028.6556     -30696.899     -30411.981    
     39600   287.86705      10109.041     -30676.777     -30393.612    
     39700   316.50786      7415.7221     -30687.874     -30376.536    
     39800   291.16611     -201.72932     -30686.441     -30400.03     
     39900   296.00093     -690.14537     -30713.455     -30422.288    
     40000   303.86488      7785.9909     -30727.02      -30428.118    
     40100   334.22846      2408.6736     -30756.536     -30427.767    
     40200   296.79661      7434.2404     -30715.56      -30423.611    
     40300   315.44624      4207.668      -30731.187     -30420.893    
     40400   308.51103      2573.7661     -30727.509     -30424.037    
     40500   276.22627      3740.8856     -30714.944     -30443.229    
     40600   308.69885      13517.792     -30760.931     -30457.274    
     40700   283.88655      19892.087     -30728.169     -30448.919    
     40800   297.61069     -3864.8637     -30706.979     -30414.229    
     40900   304.51072      17753.503     -30714.396     -30414.859    
     41000   323.98056      6318.3884     -30744.801     -30426.112    
     41100   289.43649      8055.8878     -30724.978     -30440.269    
     41200   250.8259       15914.744     -30709.945     -30463.216    
     41300   288.01814      8777.6528     -30761.991     -30478.677    
     41400   312.88093      1160.7927     -30759.291     -30451.52     
     41500   297.09339     -1649.7715     -30721.087     -30428.846    
     41600   298.32377      11081.358     -30711.803     -30418.352    
     41700   319.80845      5660.6187     -30729.341     -30414.756    
     41800   329.61782      5126.9585     -30734.117     -30409.883    
     41900   279.13548      13425.026     -30696.501     -30421.925    
     42000   299.37823      4016.219      -30738.578     -30444.09     
     42100   297.89443      6689.6396     -30743.97      -30450.941    
     42200   312.83476     -5793.895      -30736.756     -30429.031    
     42300   288.14837      9876.1129     -30685.283     -30401.841    
     42400   310.45624      8971.3974     -30713.07      -30407.685    
     42500   297.32699     -4682.6508     -30720.369     -30427.898    
     42600   295.7831       17949.895     -30734.736     -30443.783    
     42700   282.43002      7038.2751     -30716.352     -30438.535    
     42800   330.23996      883.47099     -30753.75      -30428.904    
     42900   285.35126      4836.1695     -30702.08      -30421.389    
     43000   306.7539       18222.551     -30721.853     -30420.109    
     43100   320.29499     -5128.0408     -30730.698     -30415.634    
     43200   296.89335     -5564.6649     -30720.485     -30428.44     
     43300   279.53729      313.28931     -30725.118     -30450.146    
     43400   305.06962      4420.0148     -30745.098     -30445.011    
     43500   304.35739      8518.5341     -30714.157     -30414.771    
     43600   279.63435     -2808.1462     -30679.251     -30404.183    
     43700   315.03343      3045.8353     -30721.18      -30411.292    
     43800   294.8297       2147.3731     -30706.735     -30416.721    
     43900   300.08321      7579.8261     -30720.018     -30424.836    
     44000   326.96597     -3994.8206     -30755.291     -30433.665    
     44100   279.40699      5351.4631     -30746.656     -30471.812    
     44200   267.77359      350.23774     -30737.707     -30474.307    
     44300   282.38497      5267.4034     -30727.56      -30449.787    
     44400   328.03871      6063.2224     -30753.418     -30430.737    
     44500   301.70692      6809.2497     -30716.186     -30419.407    
     44600   274.94174      6012.4542     -30683.583     -30413.132    
     44700   349.57921      10911.263     -30736.264     -30392.395    
     44800   283.92741     -10229.685     -30658.628     -30379.338    
     44900   311.40858      9705.9277     -30719.836     -30413.514    
     45000   302.54838      2395.2624     -30731.686     -30434.079    
     45100   288.47611      6681.6107     -30728.029     -30444.265    
     45200   299.88368     -5210.2769     -30739.44      -30444.454    
     45300   314.65306     -8477.9411     -30734.915     -30425.401    
     45400   311.20281      14582.798     -30703.274     -30397.154    
     45500   326.4929       7391.1883     -30730.576     -30409.416    
     45600   301.48972      6049.1088     -30728.6       -30432.034    
     45700   281.90429      16582.745     -30717.068     -30439.768    
     45800   295.21512     -9998.1116     -30723.349     -30432.955    
     45900   302.66223      7765.855      -30717.956     -30420.237    
     46000   322.29871      4564.3123     -30712.961     -30395.927    
     46100   299.19176      16835.898     -30704.478     -30410.173    
     46200   314.12864      15195.938     -30759.553     -30450.555    
     46300   267.81838      7538.1933     -30712.327     -30448.883    
     46400   311.05339      2944.617      -30731.809     -30425.836    
     46500   311.04052     -5384.3291     -30722.872     -30416.911    
     46600   296.26909      6321.0538     -30719.343     -30427.913    
     46700   273.71154      6655.8205     -30728.824     -30459.583    
     46800   288.05738     -10169.049     -30753.474     -30470.121    
     46900   299.63646      3365.4976     -30749.089     -30454.347    
     47000   264.68236      2359.8853     -30698.716     -30438.357    
     47100   296.03731      5969.9548     -30724.496     -30433.294    
     47200   310.7811      -6968.1425     -30732.862     -30427.157    
     47300   307.42051      10437.134     -30715.882     -30413.482    
     47400   320.26091      4984.1592     -30708.498     -30393.467    
     47500   315.75223      6883.8319     -30725.692     -30415.097    
     47600   275.89294      4499.228      -30710.424     -30439.037    
     47700   307.65127     -2908.0397     -30737.944     -30435.318    
     47800   300.21037     -1882.4523     -30735.514     -30440.207    
     47900   313.00006      13443.947     -30744.391     -30436.503    
     48000   290.22236      6958.6065     -30705.168     -30419.686    
     48100   333.85989      12982.348     -30739.505     -30411.098    
     48200   298.82995     -5561.8659     -30717.347     -30423.398    
     48300   269.91194     -3917.2331     -30713.272     -30447.768    
     48400   293.68305      5572.5905     -30738.958     -30450.072    
     48500   326.5237       9283.7899     -30757.788     -30436.597    
     48600   297.20913      5164.1268     -30692.742     -30400.387    
     48700   299.79943      11274.491     -30696.027     -30401.124    
     48800   317.75424     -2035.6453     -30742.385     -30429.82     
     48900   291.44149     -5445.4555     -30725.629     -30438.947    
     49000   282.84227      6773.9277     -30728.003     -30449.78     
     49100   301.81333      8756.1012     -30732.116     -30435.232    
     49200   318.40811     -1591.1407     -30708.433     -30395.225    
     49300   287.70872      12824.178     -30683.253     -30400.243    
     49400   304.26085      11268.443     -30722.098     -30422.806    
     49500   303.15629      11875.707     -30739.014     -30440.809    
     49600   301.79387      7266.0652     -30746.222     -30449.357    
     49700   265.67067     -1570.3022     -30701.771     -30440.439    
     49800   310.18589      16459.605     -30707.544     -30402.424    
     49900   329.19086      15733.117     -30739.203     -30415.389    
     50000   288.72456      6126.1912     -30715.965     -30431.956    
     50100   280.49744      21789.815     -30723.925     -30448.009    
     50200   293.5695       4763.6768     -30738.63      -30449.855    
     50300   301.48711      2936.8119     -30746.401     -30449.838    
     50400   296.18176      245.21406     -30708.864     -30417.52     
     50500   310.08692     -7866.7908     -30707.793     -30402.771    
     50600   315.93496      7714.3733     -30732.281     -30421.506    
     50700   296.21483      12750.856     -30734.985     -30443.609    
     50800   289.95043      3752.512      -30732.558     -30447.343    
     50900   286.00025      13390.609     -30729.57      -30448.241    
     51000   299.36739      2040.9031     -30733.415     -30438.937    
     51100   336.06046      1268.6083     -30741.132     -30410.56     
     51200   291.37648      4441.24       -30691.369     -30404.751    
     51300   316.65961      2449.3434     -30743.028     -30431.54     
     51400   307.73134     -7329.7968     -30748.411     -30445.706    
     51500   301.89639      9452.0202     -30743.709     -30446.744    
     51600   271.42868      23291.324     -30724.472     -30457.477    
     51700   271.22136     -2121.7932     -30715.053     -30448.261    
     51800   311.18134     -1434.2793     -30722.227     -30416.128    
     51900   340.56189      17450.637     -30748.669     -30413.67     
     52000   317.34328      11118.904     -30748.753     -30436.593    
     52100   286.43809     -2676.1782     -30733.643     -30451.883    
     52200   287.72922      2975.6392     -30732.047     -30449.017    
     52300   292.84552     -6062.2299     -30727.488     -30439.425    
     52400   319.8641       4875.8036     -30738.862     -30424.222    
     52500   320.30561     -761.42245     -30719.335     -30404.261    
     52600   298.00608      25795.412     -30701.047     -30407.908    
     52700   315.36848      2638.3388     -30742.014     -30431.796    
     52800   295.07311      4349.3351     -30744.459     -30454.206    
     52900   286.64491      1829.5787     -30737.91      -30455.947    
     53000   296.4568       19392.395     -30750.747     -30459.133    
     53100   275.90433     -3255.3258     -30740.263     -30468.865    
     53200   330.06121     -3408.2258     -30780.435     -30455.765    
     53300   311.53686      15866.789     -30741.524     -30435.076    
     53400   271.28304     -3336.686      -30687.95      -30421.098    
     53500   355.49201      1976.6051     -30760.805     -30411.12     
     53600   310.36478      8376.6082     -30726.795     -30421.499    
     53700   309.28027     -4692.5523     -30753.535     -30449.306    
     53800   272.11956      6536.6781     -30727.017     -30459.342    
     53900   284.55312      4765.1436     -30724.326     -30444.42     
     54000   335.62397      11631.303     -30747.569     -30417.427    
     54100   295.66688     -2397.2231     -30701.465     -30410.627    
     54200   318.53836      10377.426     -30737.079     -30423.743    
     54300   277.31125      9713.0703     -30714.797     -30442.015    
     54400   311.19525      2855.0628     -30757.166     -30451.054    
     54500   305.54736     -3438.9334     -30762.836     -30462.279    
     54600   280.04848      7527.1188     -30736.322     -30460.848    
     54700   310.77132      1931.3784     -30735.478     -30429.782    
     54800   295.11948      18830.495     -30709.426     -30419.127    
     54900   327.06719      10215.852     -30755.69      -30433.965    
     55000   289.07675      7389.5365     -30745.408     -30461.053    
     55100   294.74414      8594.9613     -30746.74      -30456.81     
     55200   274.05731     -5817.7108     -30714.402     -30444.82     
     55300   295.35627      21679.639     -30734.548     -30444.015    
     55400   323.68768      11780.269     -30752.823     -30434.422    
     55500   306.5991       7748.7077     -30715.22      -30413.628    
     55600   311.28822      3577.0693     -30692.082     -30385.878    
     55700   332.40034      4241.4922     -30728.584     -30401.612    
     55800   308.13512      6426.1688     -30739.746     -30436.644    
     55900   288.02442      18571.221     -30728.444     -30445.124    
     56000   289.11662      8147.3212     -30741.585     -30457.191    
     56100   295.90608      3772.653      -30742.49      -30451.417    
     56200   340.32247      8033.3771     -30764.381     -30429.617    
     56300   299.73608      261.93987     -30704.511     -30409.67     
     56400   299.13214      9051.5983     -30716.85      -30422.604    
     56500   310.71382      10879.413     -30763.936     -30458.297    
     56600   285.09466      6298.3894     -30734.379     -30453.941    
     56700   289.212        16981.266     -30719.906     -30435.418    
     56800   303.57795      11630.014     -30718.769     -30420.15     
     56900   319.45393      9713.6635     -30733.307     -30419.071    
     57000   279.95019      15600.106     -30733.608     -30458.23     
     57100   274.84725      1800.6347     -30733.262     -30462.904    
     57200   299.02325      6525.6912     -30731.842     -30437.702    
     57300   331.44592      15097.562     -30758.167     -30432.134    
     57400   291.87799      5096.4488     -30716.891     -30429.78     
     57500   287.42464      2732.9422     -30725.587     -30442.857    
     57600   278.56998     -2042.187      -30738.628     -30464.608    
     57700   297.88246      13238.963     -30760.888     -30467.871    
     57800   306.12579      4779.9604     -30744.396     -30443.27     
     57900   297.86775      3855.8953     -30715.57      -30422.567    
     58000   290.07397      18645.858     -30711.857     -30426.521    
     58100   330.03495      14410.191     -30760.24      -30435.596    
     58200   289.37819     -4720.7371     -30728.769     -30444.117    
     58300   291.28576      10682.512     -30730.231     -30443.703    
     58400   285.90237      12165.52      -30722.679     -30441.446    
     58500   324.54575      1119.5997     -30758.499     -30439.254    
     58600   297.61399      4153.9968     -30741.049     -30448.296    
     58700   297.39909      2975.7908     -30748.946     -30456.405    
     58800   289.47652      11947.361     -30736.472     -30451.724    
     58900   307.76951      5948.2153     -30730.922     -30428.179    
     59000   319.85351      2106.977      -30726.536     -30411.907    
     59100   304.7722       3500.5836     -30728.397     -30428.603    
     59200   277.93933     -5645.0186     -30732.804     -30459.404    
     59300   311.4658      -5571.792      -30766.789     -30460.41     
     59400   289.17419      2596.4971     -30739.841     -30455.389    
     59500   310.54955      16469.941     -30728.474     -30422.997    
     59600   288.48439      4730.3832     -30697.924     -30414.152    
     59700   321.88736     -3308.7161     -30747.606     -30430.976    
     59800   303.57516     -4143.5149     -30745.115     -30446.498    
     59900   280.52122      3055.931      -30726.601     -30450.662    
     60000   284.66229      14678.995     -30722.329     -30442.316    
     60100   284.40969      15059.187     -30721.811     -30442.047    
     60200   306.37021      8654.2149     -30737.365     -30435.999    
     60300   325.84977      9412.3238     -30713.509     -30392.981    
     60400   310.0175       1209.431      -30696.977     -30392.023    
     60500   319.67294      8661.5633     -30738.58      -30424.128    
     60600   315.59264      12543.431     -30754.454     -30444.016    
     60700   300.14883     -1806.8985     -30754.017     -30458.77     
     60800   281.8378       7685.4365     -30738.991     -30461.757    
     60900   299.25281      1858.2068     -30734.575     -30440.21     
     61000   318.21986     -2079.2243     -30730.577     -30417.555    
     61100   306.44896      9088.8948     -30726.348     -30424.905    
     61200   296.46462      11644.474     -30740.468     -30448.845    
     61300   262.80351     -2207.8712     -30730.221     -30471.71     
     61400   292.47381      9362.1104     -30753.998     -30466.301    
     61500   292.72048      1625.8968     -30734.033     -30446.093    
     61600   303.61222      5117.4988     -30724.099     -30425.446    
     61700   278.80097      11143.465     -30701.825     -30427.577    
     61800   307.94601     -1376.1896     -30757.576     -30454.659    
     61900   297.34973      4068.3013     -30750.739     -30458.246    
     62000   302.94228      5974.878      -30747.251     -30449.257    
     62100   283.65735      12594.552     -30715.82      -30436.795    
     62200   300.61389      6011.9776     -30726.702     -30430.998    
     62300   322.38851      4945.8042     -30755.914     -30438.791    
     62400   280.81339      9877.7794     -30748.237     -30472.01     
     62500   289.98298      6433.4262     -30759.87      -30474.623    
     62600   283.10244      5223.4049     -30731.541     -30453.062    
     62700   306.62226      3836.6475     -30741.824     -30440.21     
     62800   324.04606      25123.726     -30756.53      -30437.777    
     62900   301.74694      6945.6123     -30731.195     -30434.376    
     63000   285.53219      5913.6176     -30711.731     -30430.862    
     63100   295.49805      10033.079     -30718.074     -30427.402    
     63200   311.1193       11999.627     -30739.7       -30433.662    
     63300   296.79639      8559.8525     -30741.292     -30449.343    
     63400   287.71262      9981.9086     -30742.415     -30459.402    
     63500   284.32181      5133.8544     -30764.216     -30484.538    
     63600   275.55702     -12857.384     -30764.427     -30493.371    
     63700   312.6822       13951.344     -30765.916     -30458.341    
     63800   302.17306      23319.603     -30742.209     -30444.971    
     63900   327.45577      9986.6856     -30779.163     -30457.055    
     64000   302.23694      2892.8622     -30770.902     -30473.602    
     64100   285.05812      5034.929      -30769.941     -30489.538    
     64200   282.1125      -661.16225     -30743.123     -30465.618    
     64300   323.70874      11094.242     -30758.387     -30439.965    
     64400   316.61446      5039.0784     -30766.892     -30455.449    
     64500   304.49285      11119.076     -30778.703     -30479.184    
     64600   261.36212      1412.3624     -30742.949     -30485.856    
     64700   306.8223       12410.544     -30776.044     -30474.233    
     64800   320.97879      13746.772     -30753.355     -30437.618    
     64900   312.00947      5291.9801     -30750.658     -30443.745    
     65000   306.55615      7457.2602     -30758.57      -30457.021    
     65100   293.67707      7326.5739     -30763.754     -30474.873    
     65200   275.05836      13795.893     -30752.35      -30481.784    
     65300   288.32996      9730.4953     -30756.166     -30472.545    
     65400   310.58634      9719.8049     -30764.367     -30458.853    
     65500   330.54192      728.78868     -30751.5       -30426.357    
     65600   316.82993      1639.0147     -30745.839     -30434.184    
     65700   279.19422      6997.1534     -30743.032     -30468.398    
     65800   314.33701      7128.9814     -30783.82      -30474.617    
     65900   311.0722       15116.811     -30784.586     -30478.594    
     66000   281.8213       7617.0433     -30755.495     -30478.276    
     66100   288.49746      4615.1326     -30738.472     -30454.686    
     66200   293.91621      3849.8794     -30729.688     -30440.573    
     66300   337.08722     -15.611423     -30793.222     -30461.64     
     66400   336.24827      7003.6793     -30828.054     -30497.298    
     66500   305.79814      13282.887     -30823.061     -30522.258    
     66600   266.57836      4100.9462     -30801.821     -30539.597    
     66700   286.36418      16653.856     -30837.385     -30555.698    
     66800   281.35914      4860.5531     -30840.08      -30563.316    
     66900   290.17612      5449.6084     -30825.378     -30539.941    
     67000   309.82976      4811.9864     -30821.091     -30516.322    
     67100   318.85049     -2705.3233     -30836.251     -30522.608    
     67200   300.63231      12236.822     -30844.556     -30548.834    
     67300   295.4263       8658.7161     -30845.362     -30554.761    
     67400   308.74817      9683.0092     -30857.595     -30553.89     
     67500   303.25543      3704.5191     -30848.581     -30550.278    
     67600   335.37017      8751.9815     -30872.038     -30542.146    
     67700   323.91461      2577.5585     -30839.68      -30521.056    
     67800   333.96262      5008.8704     -30815.649     -30487.14     
     67900   342.00292      1810.9329     -30844.612     -30508.195    
     68000   295.2471       14083.625     -30818.343     -30527.918    
     68100   283.80021      22933.127     -30814.422     -30535.257    
     68200   315.84223      5068.5124     -30851.938     -30541.254    
     68300   282.04328      4363.6646     -30824.101     -30546.664    
     68400   276.89126      7273.304      -30821.128     -30548.759    
     68500   298.60858     -1484.1746     -30825.847     -30532.116    
     68600   323.65936      14156.999     -30834.517     -30516.143    
     68700   275.03972      7351.4911     -30803.277     -30532.729    
     68800   280.59252      6817.4581     -30837.919     -30561.91     
     68900   297.66793      13031.298     -30851.262     -30558.456    
     69000   287.58276      12440.966     -30823.74      -30540.854    
     69100   296.08361      895.93041     -30812.505     -30521.257    
     69200   295.46498      10511.39      -30815.151     -30524.512    
     69300   314.21878      10592.5       -30846.485     -30537.398    
     69400   267.17416      9199.5911     -30816.869     -30554.059    
     69500   254.75113      5842.1308     -30825.585     -30574.995    
     69600   246.94781      5135.3558     -30812.763     -30569.848    
     69700   304.89379     -3085.6302     -30838.616     -30538.702    
     69800   303.91191      11192.584     -30827.633     -30528.685    
     69900   286.41261      16742.61      -30811.203     -30529.468    
     70000   288.77139      9005.5413     -30830.824     -30546.769    
     70100   277.23643      12673.882     -30847.573     -30574.865    
     70200   284.06605      7195.469      -30847.206     -30567.779    
     70300   274.34517      3096.0695     -30812.202     -30542.338    
     70400   281.389        10444.903     -30812.029     -30535.236    
     70500   290.65293      5586.1525     -30818.883     -30532.977    
     70600   292.0653      -3980.9677     -30811.044     -30523.749    
     70700   303.29011      7183.1585     -30820.132     -30521.795    
     70800   274.42483     -6298.4864     -30816.732     -30546.789    
     70900   305.25711      9936.0609     -30865.843     -30565.572    
     71000   309.32037      6521.7392     -30855.204     -30550.936    
     71100   310.75605      6366.62       -30836.032     -30530.352    
     71200   306.30942      10886.989     -30831.072     -30529.765    
     71300   310.1664       11674.375     -30844.055     -30538.954    
     71400   318.6237       10621.321     -30867.355     -30553.935    
     71500   296.96602     -4852.104      -30861.831     -30569.715    
     71600   259.52154     -3880.3904     -30835.118     -30579.835    
     71700   277.51578      6946.7697     -30822.99      -30550.007    
     71800   306.81999      9044.1114     -30833.037     -30531.228    
     71900   298.91509      11163.984     -30823.6       -30529.567    
     72000   264.72576      3137.9182     -30806.45      -30546.047    
     72100   246.48556      4102.8372     -30810.151     -30567.691    
     72200   269.92471      1306.1864     -30839.173     -30573.657    
     72300   272.92616     -446.15893     -30810.931     -30542.462    
     72400   298.60172      8265.2634     -30819.67      -30525.945    
     72500   278.43983      9404.4429     -30801.713     -30527.821    
     72600   300.88996      15781.018     -30840.337     -30544.362    
     72700   256.25592      5101.7495     -30826.036     -30573.965    
     72800   289.71924     -190.47822     -30856.905     -30571.918    
     72900   279.20964     -251.95026     -30828.152     -30553.502    
     73000   295.65003      14240.977     -30838.102     -30547.28     
     73100   284.45053      10746.235     -30823         -30543.195    
     73200   304.85972      2052.5705     -30835.05      -30535.17     
     73300   328.30314     -329.66814     -30830.647     -30507.706    
     73400   311.02863      14593.102     -30801.163     -30495.214    
     73500   290.26657      12240.107     -30814.255     -30528.729    
     73600   275.66959      4013.5178     -30808.898     -30537.731    
     73700   287.62939      1954.8174     -30820.86      -30537.929    
     73800   283.87086      6938.9176     -30825.873     -30546.638    
     73900   288.95963     -1327.3461     -30844.959     -30560.719    
     74000   268.16468      11636.826     -30836.302     -30572.517    
     74100   302.33244      11140.956     -30850.589     -30553.195    
     74200   300.98752      4215.1874     -30822.243     -30526.171    
     74300   319.87004      10437.739     -30841.716     -30527.07     
     74400   291.12976      5881.2682     -30827.139     -30540.764    
     74500   294.74676      9848.973      -30862.53      -30572.598    
     74600   284.96716      7857.2174     -30852.921     -30572.608    
     74700   307.11536      10941.246     -30862.116     -30560.017    
     74800   296.81695     -5286.2258     -30835.639     -30543.67     
     74900   285.01808      1642.2992     -30817.605     -30537.242    
     75000   279.48925      13084.861     -30799.826     -30524.901    
     75100   315.94496      606.6211      -30796.754     -30485.969    
     75200   301.18767     -3114.0817     -30787.925     -30491.657    
     75300   298.00715      5450.2695     -30815.302     -30522.162    
     75400   290.27989      10245.321     -30822.332     -30536.793    
     75500   280.48925      13210.073     -30831.7       -30555.792    
     75600   285.35785      5996.7551     -30849.198     -30568.5      
     75700   268.23905      5283.4176     -30819.455     -30555.597    
     75800   314.79764      2261.9948     -30830.615     -30520.959    
     75900   290.0141       10379.783     -30806.777     -30521.499    
     76000   293.20437      8852.3216     -30829.073     -30540.658    
     76100   288.68454      8349.1835     -30841.502     -30557.532    
     76200   275.70734      6170.7682     -30824.77      -30553.566    
     76300   290.67544      14557.96      -30800.295     -30514.367    
     76400   282.06416     -808.50364     -30777.735     -30500.278    
     76500   296.75169      8437.9135     -30809.893     -30517.988    
     76600   290.52765      7149.4563     -30826.959     -30541.176    
     76700   297.90528      13527.163     -30842.526     -30549.486    
     76800   297.07152      12221.223     -30834.896     -30542.676    
     76900   319.8582       11266.569     -30828.831     -30514.197    
     77000   304.09362     -278.51445     -30814.235     -30515.108    
     77100   277.08789      2564.5396     -30797.951     -30525.388    
     77200   272.2242       13418.762     -30803.642     -30535.864    
     77300   269.742        3026.8591     -30821.259     -30555.922    
     77400   277.22196      6415.9194     -30844.868     -30572.174    
     77500   299.13903      8122.0996     -30842.212     -30547.959    
     77600   311.29403      6526.9148     -30825.85      -30519.64     
     77700   304.79273      3782.159      -30827.563     -30527.748    
     77800   275.6136       1575.1856     -30819.693     -30548.581    
     77900   269.06527      16803.528     -30814.218     -30549.548    
     78000   276.0926      -12567.753     -30799.779     -30528.195    
     78100   311.96316      1119.5735     -30805.295     -30498.427    
     78200   326.72544      8857.3272     -30835.14      -30513.751    
     78300   320.23491      14946.628     -30848.338     -30533.333    
     78400   316.96215     -1770.4969     -30851.525     -30539.739    
     78500   301.8047       4273.0222     -30836.448     -30539.572    
     78600   326.84871      14255.058     -30849.4       -30527.89     
     78700   319.17654      17639.463     -30805.436     -30491.472    
     78800   312.31964      16453.75      -30805.571     -30498.352    
     78900   289.00471      4879.1023     -30816.117     -30531.832    
     79000   289.44942      7638.8827     -30828.869     -30544.148    
     79100   284.7735      -925.45783     -30831.795     -30551.673    
     79200   306.71359      2993.0931     -30846.445     -30544.741    
     79300   327.21791      8892.1248     -30839.853     -30517.979    
     79400   324.16587      941.6015      -30821.763     -30502.891    
     79500   299.47288      14184.172     -30819.335     -30524.753    
     79600   300.77876      6074.4976     -30833.194     -30537.328    
     79700   314.16746      6371.2964     -30852.543     -30543.507    
     79800   313.66055      8587.8351     -30857.098     -30548.561    
     79900   311.62257      7206.9111     -30867.976     -30561.443    
     80000   297.13018      11059.524     -30863.382     -30571.104    
     80100   295.9987       8249.4406     -30837.649     -30546.484    
     80200   305.91662      2083.7946     -30825.563     -30524.643    
     80300   282.28378      4153.9185     -30793.587     -30515.914    
     80400   292.37659      8271.4395     -30817.552     -30529.951    
     80500   291.18346      7608.8137     -30844.083     -30557.656    
     80600   287.20824      4122.0373     -30843.026     -30560.508    
     80700   293.21464      4693.9423     -30839.939     -30551.513    
     80800   298.92147      14860.935     -30842.849     -30548.81     
     80900   290.41454      10617.889     -30830.477     -30544.806    
     81000   281.284       -8664.7911     -30803.753     -30527.063    
     81100   323.86637      9442.2343     -30822.812     -30504.235    
     81200   306.93463      199.02704     -30817.395     -30515.473    
     81300   324.89176     -3817.7919     -30871.354     -30551.768    
     81400   280.7514       11941.729     -30828.7       -30552.534    
     81500   307.38291      2238.6008     -30841.043     -30538.68     
     81600   315.82897      7967.3629     -30830.488     -30519.818    
     81700   334.92815      7876.4559     -30838.237     -30508.78     
     81800   318.20631     -1149.384      -30847.488     -30534.479    
     81900   290.80034      12381.737     -30845.315     -30559.264    
     82000   296.08336      15152.668     -30847.655     -30556.408    
     82100   307.44096      6785.4222     -30835.366     -30532.947    
     82200   319.46716      2296.0683     -30834.428     -30520.179    
     82300   334.66756      1234.0739     -30857.613     -30528.412    
     82400   283.56672     -5598.6568     -30846.126     -30567.191    
     82500   278.70452      2565.8946     -30851.779     -30577.626    
     82600   290.95437      17373.513     -30843.037     -30556.835    
     82700   284.46134      6873.3621     -30814.784     -30534.968    
     82800   307.04499      1932.2849     -30826.953     -30524.923    
     82900   322.24228      6026.1465     -30843.657     -30526.677    
     83000   301.02322      1616.4618     -30847.701     -30551.594    
     83100   294.75088     -9555.5815     -30866.958     -30577.022    
     83200   312.99447      12431.097     -30871.881     -30563.999    
     83300   291.15564      15165.851     -30828.227     -30541.827    
     83400   309.75648     -5057.9685     -30832.049     -30527.352    
     83500   283.8708       5304.9771     -30808.241     -30529.007    
     83600   279.06731      8862.996      -30815.411     -30540.902    
     83700   291.41945      15241.016     -30839.999     -30553.339    
     83800   282.48884      3192.0558     -30853.831     -30575.956    
     83900   270.0041       2221.5477     -30833.857     -30568.262    
     84000   297.45346      7453.3071     -30829.361     -30536.765    
     84100   306.01315      11339.034     -30825.63      -30524.614    
     84200   291.1389       6525.7736     -30811.932     -30525.549    
     84300   292.50348      7728.5161     -30834.866     -30547.14     
     84400   268.70544      4220.125      -30833.254     -30568.937    
     84500   256.43481     -6738.3382     -30813.732     -30561.486    
     84600   274.05926      4237.1467     -30813.999     -30544.416    
     84700   300.24157      3298.0482     -30837.807     -30542.469    
     84800   297.09909      8092.8055     -30834.738     -30542.491    
     84900   302.23236      5409.9926     -30826.146     -30528.85     
     85000   313.56575      17606.082     -30816.53      -30508.086    
     85100   287.71537     -5613.7419     -30786.485     -30503.469    
     85200   299.98384      4696.5895     -30832.152     -30537.068    
     85300   319.07278      3605.9134     -30865.897     -30552.035    
     85400   313.02727      662.93115     -30860.021     -30552.106    
     85500   316.52327     -7309.4523     -30852.478     -30541.125    
     85600   340.04314      5938.6795     -30841.384     -30506.895    
     85700   306.17242      12066.698     -30818.445     -30517.273    
     85800   295.22807      2002.2617     -30821.466     -30531.06     
     85900   303.29857      145.44589     -30839.218     -30540.873    
     86000   303.05722     -856.60025     -30849.154     -30551.047    
     86100   310.59445      1854.6274     -30856.207     -30550.685    
     86200   321.42855      14019.284     -30842.871     -30526.693    
     86300   317.66443      8565.6183     -30805.989     -30493.513    
     86400   312.49454      808.9532      -30825.031     -30517.641    
     86500   280.04511      8286.1997     -30822.317     -30546.846    
     86600   285.93302     -4309.9436     -30836.709     -30555.446    
     86700   304.47966      3416.5125     -30837.085     -30537.578    
     86800   308.81333      9922.9538     -30824.1       -30520.331    
     86900   311.23717      17511.595     -30826.978     -30520.824    
     87000   286.27731     -1016.7117     -30818.853     -30537.251    
     87100   283.56714      2940.4775     -30820.502     -30541.567    
     87200   275.05718      3119.6604     -30806.781     -30536.217    
     87300   323.78501      6158.5642     -30841.414     -30522.918    
     87400   325.26079      12180.803     -30838.792     -30518.844    
     87500   275.82177      6768.3484     -30820.657     -30549.34     
     87600   293.50054     -4271.527      -30851.987     -30563.28     
     87700   282.05226      3317.4788     -30831.687     -30554.241    
     87800   298.45815     -11470.459     -30834.639     -30541.056    
     87900   296.34325      14316.286     -30797.46      -30505.957    
     88000   315.85094      8114.0391     -30810.547     -30499.854    
     88100   302.33994      5052.3806     -30824.962     -30527.56     
     88200   308.58334     -5825.9023     -30841.253     -30537.709    
     88300   309.8002       12187.44      -30850.76      -30546.019    
     88400   292.90529      12567.31      -30840.962     -30552.841    
     88500   290.73264      1787.7314     -30830.439     -30544.455    
     88600   316.24172     -2847.1655     -30833.595     -30522.519    
     88700   296.92877      172.03424     -30814.675     -30522.596    
     88800   276.9042       2070.7035     -30816.47      -30544.089    
     88900   283.73332      14565.822     -30842.946     -30563.846    
     89000   286.12357      4423.2716     -30837.543     -30556.093    
     89100   299.1079      -3924.1033     -30820.315     -30526.092    
     89200   335.20408      830.30506     -30852.594     -30522.865    
     89300   320.83296     -426.50743     -30851.936     -30536.343    
     89400   321.16597      4717.4945     -30862.05      -30546.13     
     89500   307.70366      17896.88      -30846.746     -30544.068    
     89600   338.70843      7593.546      -30869.752     -30536.575    
     89700   311.90296      5389.1328     -30842.102     -30535.293    
     89800   299.77972      3309.8933     -30856.829     -30561.946    
     89900   296.12573      12309.077     -30865.239     -30573.95     
     90000   294.10809      3517.3088     -30846.101     -30556.796    
     90100   306.26353      6518.9306     -30833.318     -30532.056    
     90200   293.35144      7393.581      -30815.333     -30526.773    
     90300   306.96831      8663.5273     -30830.19      -30528.235    
     90400   299.56676      7635.0553     -30841.516     -30546.842    
     90500   312.36271     -1334.5167     -30878.697     -30571.436    
     90600   291.78735      11144.876     -30860.108     -30573.086    
     90700   323.59815      1863.3725     -30846.808     -30528.495    
     90800   337.69302      7433.5873     -30856.584     -30524.406    
     90900   297.98573      12561.792     -30826.016     -30532.897    
     91000   292.94142      7436.0202     -30819.488     -30531.331    
     91100   285.36078      3991.8009     -30818.023     -30537.323    
     91200   297.88676     -10888.943     -30847.901     -30554.879    
     91300   292.60989      13925.129     -30847.078     -30559.247    
     91400   332.02923      7094.3356     -30856.731     -30530.125    
     91500   331.87242      7083.3122     -30843.147     -30516.695    
     91600   306.77323      6820.8077     -30827.578     -30525.816    
     91700   311.09078      9353.1359     -30838.227     -30532.217    
     91800   283.60959      6060.5038     -30847.661     -30568.683    
     91900   284.34701      9066.3081     -30859.449     -30579.746    
     92000   272.30516      8891.2346     -30827.443     -30559.586    
     92100   315.37031      137.38796     -30852.112     -30541.892    
     92200   276.31023      3469.0002     -30809.08      -30537.283    
     92300   319.78347      6602.5214     -30846.023     -30531.462    
     92400   289.90675      9560.9254     -30809.594     -30524.422    
     92500   301.32578      3304.4592     -30828.988     -30532.584    
     92600   285.33945      7231.3672     -30835.782     -30555.103    
     92700   281.53807      18028.151     -30829.708     -30552.769    
     92800   317.72516      3307.2858     -30837.6       -30525.064    
     92900   317.6278       10747.486     -30823.877     -30511.437    
     93000   335.35431      15027.138     -30851.551     -30521.674    
     93100   328.50125      686.19234     -30860.089     -30536.953    
     93200   308.77054      1989.1203     -30850.584     -30546.857    
     93300   319.52691      9269.589      -30860.734     -30546.426    
     93400   328.08736     -3185.2279     -30856.22      -30533.491    
     93500   340.43809      8370.3145     -30836.524     -30501.646    
     93600   329.73558      8372.905      -30830.735     -30506.385    
     93700   322.73842      14902.118     -30853.6       -30536.133    
     93800   322.87446      6815.5834     -30864.137     -30546.536    
     93900   321.65089      5027.4179     -30868.011     -30551.614    
     94000   291.84177      148.72029     -30846.369     -30559.294    
     94100   315.19606     -3972.1256     -30871.286     -30561.238    
     94200   317.9034       20156.661     -30867.357     -30554.646    
     94300   323.40686      14336.966     -30852.025     -30533.9      
     94400   341.63215      10692.524     -30852.186     -30516.133    
     94500   328.10293      4920.6713     -30847.088     -30524.344    
     94600   314.68491      6351.3788     -30867.674     -30558.129    
     94700   304.7544       7388.8019     -30860.814     -30561.037    
     94800   331.54163      13270.981     -30880.468     -30554.342    
     94900   317.45587     -568.25651     -30851.097     -30538.826    
     95000   326.55472      541.43639     -30834.882     -30513.661    
     95100   319.89689     -2583.5843     -30811.418     -30496.746    
     95200   311.93527      1593.8037     -30832.071     -30525.23     
     95300   307.05359      23506.899     -30854.726     -30552.687    
     95400   303.13956      8201.9832     -30860.439     -30562.25     
     95500   308.07518      586.42582     -30865.177     -30562.133    
     95600   311.72036     -9579.2437     -30846.185     -30539.555    
     95700   343.59989      4915.7339     -30858.428     -30520.44     
     95800   290.46646     -196.42181     -30818.844     -30533.121    
     95900   273.62722      3863.3905     -30835.98      -30566.822    
     96000   282.5077       5081.9089     -30854.189     -30576.295    
     96100   270.90773     -4681.6124     -30834.594     -30568.111    
     96200   281.02493      6083.0641     -30830.518     -30554.083    
     96300   289.22557      11221.16      -30820.604     -30536.102    
     96400   304.00947      5160.768      -30829.457     -30530.413    
     96500   303.38794      12698.986     -30845.687     -30547.255    
     96600   274.56023     -2498.8807     -30851.948     -30581.872    
     96700   281.18297      3001.3728     -30853.627     -30577.036    
     96800   297.4874       12826.175     -30843.852     -30551.223    
     96900   302.85265      5731.67       -30832.969     -30535.063    
     97000   294.5737      -1233.2384     -30831.374     -30541.611    
     97100   307.16754      4306.2599     -30849.175     -30547.024    
     97200   279.13389      17512.204     -30846.406     -30571.831    
     97300   287.04782      5017.1739     -30868.678     -30586.318    
     97400   234.12994      8036.6692     -30805.303     -30574.997    
     97500   295.67322      6258.8462     -30829.498     -30538.653    
     97600   289.69817     -3827.844      -30814.998     -30530.031    
[...]
    174500   292.24409      2872.3516     -30990.624     -30703.153    
    174600   315.40501      4800.7668     -31020.007     -30709.753    
    174700   273.58919      8598.472      -31006.591     -30737.47     
    174800   280.34956     -2876.5132     -31014.325     -30738.554    
    174900   302.56163     -4927.0724     -31003.915     -30706.295    
    175000   311.14532      219.87384     -31004.628     -30698.564    
    175100   314.53745     -1637.4046     -31014.679     -30705.279    
    175200   293.03454      1812.9235     -31001.913     -30713.665    
    175300   279.99426      6066.7086     -31004.104     -30728.682    
    175400   284.64567      7499.2766     -31020.626     -30740.629    
    175500   280.19756     -1967.0691     -30998.911     -30723.29     
    175600   312.02565     -6423.2661     -31004.403     -30697.474    
    175700   307.63588      16601.494     -30992.899     -30690.288    
    175800   305.4529       1076.3296     -31010.108     -30709.644    
    175900   276.49487      6621.0341     -30994.652     -30722.673    
    176000   286.4593      -673.77517     -31003.5       -30721.719    
    176100   291.82903      2675.3206     -30976.609     -30689.547    
    176200   336.56497      3947.0246     -30991.845     -30660.777    
    176300   288.41066     -2390.9443     -30968.956     -30685.256    
    176400   311.12379      3195.6626     -31012.751     -30706.709    
    176500   271.08764      17158.443     -30988.808     -30722.148    
    176600   286.33804     -5814.0871     -31000.815     -30719.154    
    176700   311.96265     -395.68487     -30995.264     -30688.397    
    176800   302.91249      4400.5105     -30964.363     -30666.398    
    176900   328.56198     -2596.2692     -31001.23      -30678.035    
    177000   299.61093      5624.7389     -30987.22      -30692.502    
    177100   281.22834      11688.361     -30981.49      -30704.855    
    177200   298.17243      12071.385     -31003.364     -30710.061    
    177300   308.27037      7246.942      -31007.094     -30703.858    
    177400   329.35647     -3352.6946     -30994.381     -30670.403    
    177500   311.17656      8520.885      -30983.686     -30677.592    
    177600   307.15316      6937.1825     -31004.769     -30702.633    
    177700   296.92014      3310.8636     -31000.729     -30708.658    
    177800   295.25997     -5435.809      -30993.997     -30703.56     
    177900   310.89965      4806.2662     -31006.575     -30700.753    
    178000   297.90816     -3633.7492     -31014.56      -30721.517    
    178100   275.82402     -1282.1017     -31011.823     -30740.504    
    178200   290.49238      5198.0233     -31007.69      -30721.942    
    178300   297.10058      12098.254     -30990.293     -30698.045    
    178400   302.16738      2751.7134     -30990.648     -30693.416    
    178500   312.64748     -1498.5037     -31008.106     -30700.565    
    178600   281.3969      -223.5406      -31010.187     -30733.386    
    178700   264.6667       3240.8001     -31000.087     -30739.744    
    178800   308.31802     -4129.1395     -31027.565     -30724.283    
    178900   303.12674     -3143.0697     -31007.156     -30708.98     
    179000   301.66691      3953.4119     -30996.779     -30700.039    
    179100   325.81254      733.36327     -31016.869     -30696.378    
    179200   309.64401     -5067.8631     -30981.98      -30677.393    
    179300   296.84349     -2694.8873     -30962.909     -30670.914    
    179400   305.90311      11130.94      -30997.095     -30696.188    
    179500   280.57851      8669.0323     -30991.037     -30715.041    
    179600   292.44266     -3251.1305     -31008.564     -30720.898    
    179700   309.15358      23374.425     -31025.634     -30721.53     
    179800   309.28978      3813.9856     -30987.21      -30682.972    
    179900   320.08047     -7588.4806     -30982.836     -30667.983    
    180000   317.04193      9149.2484     -31004.01      -30692.146    
    180100   290.5824       8094.0015     -30994.662     -30708.826    
    180200   290.84294      3340.2776     -30997.087     -30710.995    
    180300   311.49826     -10306.487     -31011.094     -30704.684    
    180400   311.70249     -728.51473     -30978         -30671.389    
    180500   318.87468      3191.4487     -30971.923     -30658.256    
    180600   311.91625     -1170.8122     -30999.686     -30692.864    
    180700   287.94628      13575.616     -30993.364     -30710.12     
    180800   295.95579      5516.8608     -31001.691     -30710.569    
    180900   322.60893      3191.266      -31011.984     -30694.644    
    181000   303.99163      2078.0701     -30978.318     -30679.291    
    181100   295.31636      6183.2588     -30983.848     -30693.355    
    181200   312.55634      4604.0758     -31036.073     -30728.622    
    181300   285.63437      3313.8603     -31007.164     -30726.195    
    181400   294.37143     -788.14451     -31005.272     -30715.709    
    181500   316.14025      6708.9189     -31007.377     -30696.401    
    181600   342.19895      8475.6338     -31004.164     -30667.554    
    181700   301.99802      8511.7263     -30977.3       -30680.234    
    181800   307.49457     -3438.4991     -30996.598     -30694.126    
    181900   295.42427      3338.7242     -30992.226     -30701.626    
    182000   293.85519      6863.3681     -30988.033     -30698.977    
    182100   302.60738     -7517.7554     -30988.114     -30690.449    
    182200   337.22821      6302.379      -31004.023     -30672.302    
    182300   293.38856      23414.638     -30976.426     -30687.83     
    182400   292.344        7078.7482     -31000.524     -30712.954    
    182500   310.0919       417.8323      -31026.64      -30721.613    
    182600   279.39272      13658.361     -30995.709     -30720.879    
    182700   305.94437      8778.4308     -30986.577     -30685.629    
    182800   304.02178     -12412.461     -30970.929     -30671.873    
    182900   301.83004      7315.6977     -30983.377     -30686.476    
    183000   292.4081       13051.926     -30997.129     -30709.497    
    183100   275.95117      3146.7284     -30989.838     -30718.394    
    183200   306.98067     -8104.2606     -31009.26      -30707.293    
    183300   310.50848      15620.842     -31007.744     -30702.307    
    183400   289.28994     -1923.4242     -30986.69      -30702.125    
    183500   293.44921     -1825.9175     -30990.835     -30702.179    
    183600   309.71499     -7933.9575     -31013.04      -30708.383    
    183700   285.04461      565.02497     -31015.886     -30735.497    
    183800   279.10491      8411.0231     -31027.323     -30752.777    
    183900   299.44196     -2963.885      -31025.988     -30731.436    
    184000   306.92037      6037.1822     -31009.23      -30707.323    
    184100   300.02801      10294.515     -30998.904     -30703.776    
    184200   306.65115     -14355.444     -31003.56      -30701.918    
    184300   305.19384      4880.0528     -30991.075     -30690.866    
    184400   302.25483      6313.4252     -30962.699     -30665.381    
    184500   294.79639     -9062.3741     -30963.118     -30673.137    
    184600   297.92828     -1030.5754     -31003.804     -30710.742    
    184700   300.21763      547.41565     -31013.993     -30718.679    
    184800   285.51413     -6803.5785     -30994.459     -30713.608    
    184900   309.02928     -8111.1505     -31000.314     -30696.332    
    185000   315.73172      1424.3251     -30993.448     -30682.873    
    185100   289.61662     -5006.61       -30983.825     -30698.939    
    185200   294.27515      6392.2058     -31017.232     -30727.763    
    185300   286.53935      12277.334     -31007.229     -30725.37     
    185400   311.94879      4696.7495     -31008.725     -30701.871    
    185500   288.25036      4644.7696     -30972.498     -30688.956    
    185600   315.45763      1619.1531     -30998.618     -30688.313    
    185700   294.668       -6288.5582     -30980.74      -30690.885    
    185800   304.21956      8214.0559     -30994.176     -30694.925    
    185900   301.39465      499.49954     -31006.077     -30709.605    
    186000   283.79081      6034.7845     -31013.113     -30733.957    
    186100   283.50546      18679.605     -31030.075     -30751.2      
    186200   308.726       -658.32999     -31033.715     -30730.031    
    186300   312.60681     -865.84507     -31007.014     -30699.513    
    186400   313.03374     -477.61214     -30999.825     -30691.904    
    186500   302.02175     -5524.8659     -31005.331     -30708.242    
    186600   278.03174      3122.1119     -30999.934     -30726.443    
    186700   284.41365     -7818.5378     -31008.818     -30729.05     
    186800   306.61696     -5202.3244     -31000.227     -30698.618    
    186900   333.57728      9042.0177     -31008.471     -30680.341    
    187000   299.40618      7868.4068     -30994.063     -30699.547    
    187100   283.04624      2055.5504     -30993.501     -30715.078    
    187200   279.86573     -8766.948      -30993.064     -30717.769    
    187300   295.47473      749.46991     -30997.244     -30706.595    
    187400   311.46689      2616.8567     -30975.722     -30669.342    
    187500   316.93509      7100.6022     -30981.936     -30670.177    
    187600   314.06487      15030.445     -31007.887     -30698.952    
    187700   306.85045     -525.67719     -31011.932     -30710.093    
    187800   274.49624     -8624.4936     -30982.092     -30712.079    
    187900   297.14892     -2428.7091     -30994.512     -30702.216    
    188000   340.88636      3602.8327     -31004.477     -30669.158    
    188100   312.51067     -3108.1007     -30968.861     -30661.455    
    188200   302.05563      867.91566     -30986.132     -30689.01     
    188300   307.38818      2479.7171     -31009.326     -30706.958    
    188400   300.82449     -3729.6454     -31011.857     -30715.946    
    188500   288.96144     -4489.7982     -30989.496     -30705.254    
    188600   338.50449      3448.4258     -31013.621     -30680.645    
    188700   300.00655      5812.5637     -30974.037     -30678.93     
    188800   307.42696     -9242.2192     -30991.435     -30689.029    
    188900   324.20085      5626.839      -31017.249     -30698.343    
    189000   283.42463     -7606.2646     -30985.83      -30707.035    
    189100   309.4352       1086.0349     -31019.912     -30715.531    
    189200   286.25409      8163.4993     -31008.638     -30727.059    
    189300   270.84893      6880.6436     -30998.15      -30731.725    
    189400   292.58134      2297.8258     -30990.95      -30703.148    
    189500   329.12033     -2672.9108     -31016.626     -30692.881    
    189600   304.52891      12739.732     -31004.223     -30704.667    
    189700   307.64369     -11393.528     -31026.344     -30723.725    
    189800   282.8531       1194.4391     -31020.019     -30741.785    
    189900   258.8082       3388.8216     -31014.133     -30759.552    
    190000   288.29362      9884.0391     -31017.291     -30733.706    
    190100   291.34844      1851.7665     -30993.492     -30706.902    
    190200   296.63093      3621.9051     -30983.932     -30692.146    
    190300   343.5868      -6882.4431     -31031.209     -30693.234    
    190400   280.61888      15258.159     -30987.848     -30711.812    
    190500   272.97265      2591.9053     -31002.802     -30734.288    
    190600   293.5698       4380.5274     -31023.779     -30735.004    
    190700   297.26491     -1265.2162     -30984.295     -30691.885    
    190800   329.50873      102.95247     -31009.546     -30685.419    
    190900   311.46466      4136.3848     -31003.505     -30697.127    
    191000   292.15464      3570.264      -30994.679     -30707.296    
    191100   288.6351       6897.5474     -31012.2       -30728.279    
    191200   285.31253      5270.3176     -31021.207     -30740.554    
    191300   282.33         11477.503     -30988.822     -30711.103    
    191400   303.52648      6935.5587     -30990.007     -30691.438    
    191500   307.95835      16589.711     -30985.631     -30682.703    
    191600   293.22292     -6867.7334     -30978.611     -30690.177    
    191700   299.33529      4654.1291     -31017.465     -30723.019    
    191800   282.77673     -1399.9464     -31012.164     -30734.006    
    191900   292.31394      10739.857     -31008.97      -30721.431    
    192000   294.99114      9522.6883     -30996.257     -30706.084    
    192100   309.20907      7357.5298     -31001.981     -30697.822    
    192200   299.69461     -3542.1988     -30996.344     -30701.544    
    192300   289.248        1998.1166     -30988.028     -30703.504    
    192400   322.22825      1320.8775     -31012.277     -30695.312    
    192500   300.13069      3528.953      -30992.399     -30697.171    
    192600   312.71896      5301.1128     -31030.681     -30723.07     
    192700   284.35008     -251.59574     -31025.545     -30745.839    
    192800   295.49302      1500.7476     -31020.939     -30730.272    
    192900   297.98186      5294.4672     -30996.556     -30703.441    
    193000   300.21882     -6066.2905     -30987.257     -30691.941    
    193100   315.11989      6759.9459     -30995.53      -30685.557    
    193200   314.07726      9690.9044     -31012.037     -30703.089    
    193300   279.9814       2530.8111     -31008.798     -30733.389    
    193400   272.49413      3169.5078     -30997.865     -30729.822    
    193500   291.47112      9966.0954     -31005.95      -30719.239    
    193600   302.93556     -1315.1808     -31005.427     -30707.439    
    193700   279.67896     -347.57477     -30969.043     -30693.932    
    193800   338.61879     -2172.7096     -31012.84      -30679.751    
    193900   302.64564      1976.0099     -30988.771     -30691.068    
    194000   311.63057      2824.5502     -31028.879     -30722.338    
    194100   284.75549      3616.2714     -31012.052     -30731.948    
    194200   300.43837     -930.56461     -31003.262     -30707.731    
    194300   316.19453     -7621.2725     -31000.74      -30689.71     
    194400   309.96209     -10974.109     -30996.06      -30691.16     
    194500   298.87931      1771.083      -30997.431     -30703.433    
    194600   289.0693      -1331.1399     -31002.142     -30717.794    
    194700   271.35634      9198.7907     -31016.393     -30749.469    
    194800   295.11767     -3397.0028     -31031.562     -30741.264    
    194900   316.18502     -1706.8493     -31022.466     -30711.445    
    195000   308.1327       8126.5935     -31004.678     -30701.578    
    195100   280.94487      8313.1766     -30977.258     -30700.902    
    195200   294.45491      1160.0186     -30995.108     -30705.462    
    195300   294.33538      6643.1887     -31001.642     -30712.114    
    195400   283.96384      9551.926      -30985.731     -30706.405    
    195500   309.37231      6512.3662     -30996.213     -30691.894    
    195600   322.06741      8624.724      -30993.97      -30677.162    
    195700   307.29099      12321.639     -30974.322     -30672.049    
    195800   307.84924      1486.9283     -31003.163     -30700.342    
    195900   279.83141      3188.7379     -30993.474     -30718.213    
    196000   289.6063       11360.196     -30997.653     -30712.777    
    196100   313.06304      3627.7019     -30996.921     -30688.971    
    196200   290.13788     -7534.9326     -30964.91      -30679.511    
    196300   310.00623      11092.507     -30983.673     -30678.73     
    196400   320.1759       672.42682     -31013.167     -30698.22     
    196500   298.1902       13347.644     -31014.253     -30720.934    
    196600   305.47506      15195.684     -31031.236     -30730.75     
    196700   295.26247      1199.913      -30999.886     -30709.446    
    196800   296.42534      2501.7563     -30976.927     -30685.343    
    196900   305.6262       12155.354     -30988.436     -30687.801    
    197000   307.25439      13388.891     -31001.938     -30699.702    
    197100   292.16665      4755.8331     -31005.914     -30718.52     
    197200   300.47103      9305.1706     -31030.256     -30734.693    
    197300   279.49359      7079.8501     -31017.237     -30742.308    
    197400   291.88602      8989.7402     -31000.996     -30713.877    
    197500   303.35788      10129.807     -30990.992     -30692.589    
    197600   311.83561     -3277.2404     -30997.708     -30690.966    
    197700   276.03         2645.4172     -30980.279     -30708.757    
    197800   282.85508      2955.7013     -31002.079     -30723.843    
    197900   288.32787      2193.2025     -30996.825     -30713.207    
    198000   290.01324     -156.26649     -30966.107     -30680.831    
    198100   322.99427      8740.2968     -30989.791     -30672.072    
    198200   286.0471      -11558.176     -30966.969     -30685.594    
    198300   279.66179     -2373.9523     -30988.098     -30713.003    
    198400   304.0516      -3233.0282     -31016.593     -30717.507    
    198500   284.5108       12762.119     -30989.696     -30709.832    
    198600   290.1157      -1272.4392     -30986.156     -30700.778    
    198700   320.19544     -9346.2673     -31001.191     -30686.225    
    198800   306.76132      4050.2345     -30971.191     -30669.44     
    198900   336.8661       5130.4738     -30962.497     -30631.133    
    199000   319.62728      7649.226      -30950.246     -30635.839    
    199100   299.41167      13151.908     -30970.774     -30676.252    
    199200   305.84469     -2941.6836     -30995.516     -30694.666    
    199300   291.17736      7134.535      -30993.939     -30707.517    
    199400   306.59385     -5607.5734     -31014.159     -30712.573    
    199500   326.0529       3003.6014     -31023.002     -30702.274    
    199600   312.63192      14045.415     -30988.333     -30680.807    
    199700   313.1371       11443.135     -30980.03      -30672.008    
    199800   304.28218     -5387.438      -31002.409     -30703.097    
    199900   292.49324     -2374.3101     -31010.208     -30722.492    
    200000   286.86183      1168.2003     -30999.808     -30717.632    
Loop time of 17077.3 on 8 procs for 200000 steps with 331 atoms

Performance: 0.506 ns/day, 47.437 hours/ns, 11.711 timesteps/s, 3.876 katom-step/s
83.6% CPU use with 4 MPI tasks x 2 OpenMP threads

MPI task timing breakdown:
Section |  min time  |  avg time  |  max time  |%varavg| %total
---------------------------------------------------------------
Pair    | 9943.1     | 10227      | 10496      | 215.1 | 59.89
Bond    | 0.7183     | 0.7505     | 0.80709    |   4.0 |  0.00
Neigh   | 177.08     | 180.84     | 184.22     |  19.7 |  1.06
Comm    | 3711.9     | 3978.7     | 4274.6     | 350.6 | 23.30
Output  | 6.3874     | 8.2522     | 10.775     |  65.0 |  0.05
Modify  | 2637.6     | 2645.2     | 2657.5     |  15.9 | 15.49
Other   |            | 36.3       |            |       |  0.21

Nlocal:          82.75 ave          90 max          78 min
Histogram: 1 1 0 0 1 0 0 0 0 1
Nghost:           3990 ave        4030 max        3946 min
Histogram: 1 0 0 0 1 0 1 0 0 1
Neighs:          51868 ave       56212 max       48884 min
Histogram: 1 1 0 0 1 0 0 0 0 1

Total # of neighbors = 207472
Ave neighs/atom = 626.80363
Ave special neighs/atom = 0
Neighbor list builds = 3861
Dangerous builds = 0
# Save the equilibrated structure
write_data ${structure}_eq.data
write_data 333-RV-32_eq.data
System init for write_data ...
WARNING: Compute rdf cutoff less than neighbor cutoff - forcing a needless neighbor list build (src/compute_rdf.cpp:179)
undump dump_eq
unfix myMSD
unfix myRDF
Total wall time: 4:44:39
