LAMMPS (2 Aug 2023 - Update 2)
OMP_NUM_THREADS environment is not set. Defaulting to 1 thread. (src/comm.cpp:98)
  using 1 OpenMP thread(s) per MPI task
Reading data file ...
  triclinic box = (0 0 0) to (15.724 13.9031 17.2465) with tilt (-7.584 0.1778 0.4371)
WARNING: Triclinic box skew is large. LAMMPS will run inefficiently. (src/domain.cpp:220)
  1 by 1 by 1 MPI processor grid
  reading atoms ...
  366 atoms
Finding 1-2 1-3 1-4 neighbors ...
  special bond factors lj:    0        0        0       
  special bond factors coul:  0        0        0       
     0 = max # of 1-2 neighbors
     0 = max # of 1-3 neighbors
     0 = max # of 1-4 neighbors
     1 = max # of special neighbors
  special bonds CPU = 0.000 seconds
  read_data CPU = 0.005 seconds
*****Minimization starts.*****

CITE-CITE-CITE-CITE-CITE-CITE-CITE-CITE-CITE-CITE-CITE-CITE-CITE

Your simulation uses code contributions which should be cited:
- pair reaxff command: doi:10.1016/j.parco.2011.08.005
- fix qeq/reaxff command: doi:10.1016/j.parco.2011.08.005
The log file lists these citations in BibTeX format.

CITE-CITE-CITE-CITE-CITE-CITE-CITE-CITE-CITE-CITE-CITE-CITE-CITE

Switching to 'neigh_modify every 1 delay 0 check yes' setting during minimization
WARNING: Fix qeq/reaxff group is not charge neutral, net charge = -29.52 (src/REAXFF/fix_qeq_reaxff.cpp:392)
Neighbor list info ...
  update: every = 1 steps, delay = 0 steps, check = yes
  max neighbors/atom: 2000, page size: 100000
  master list distance cutoff = 12
  ghost atom cutoff = 12
  binsize = 6, bins = 4 3 3
  2 neighbor lists, perpetual/occasional/extra = 2 0 0
  (1) pair reaxff, perpetual
      attributes: half, newton off, ghost
      pair build: half/bin/newtoff/ghost
      stencil: full/ghost/bin/3d
      bin: standard
  (2) fix qeq/reaxff, perpetual, copy from (1)
      attributes: half, newton off
      pair build: copy
      stencil: none
      bin: none
Setting up cg style minimization ...
  Unit style    : real
  Current step  : 0
Per MPI rank memory allocation (min/avg/max) = 266.7 | 266.7 | 266.7 Mbytes
   Step          Temp          Press         Density         PotEng         TotEng    
         0   0              39442.068      1.8952586     -43579.409     -43579.409    
        34   0             -6780.0777      1.8952586     -44450.235     -44450.235    
Loop time of 55.7632 on 1 procs for 34 steps with 366 atoms

21.9% CPU use with 1 MPI tasks x 1 OpenMP threads

Minimization stats:
  Stopping criterion = energy tolerance
  Energy initial, next-to-last, final = 
     -43579.4088464771  -44450.2216976499  -44450.2350364582
  Force two-norm initial, final = 1077.9481 173.6803
  Force max component initial, final = 155.70774 60.295224
  Final line search alpha, max atom move = 0.0013855813 0.083543936
  Iterations, force evaluations = 34 93

MPI task timing breakdown:
Section |  min time  |  avg time  |  max time  |%varavg| %total
---------------------------------------------------------------
Pair    | 46.111     | 46.111     | 46.111     |   0.0 | 82.69
Bond    | 5.5294e-05 | 5.5294e-05 | 5.5294e-05 |   0.0 |  0.00
Neigh   | 0          | 0          | 0          |   0.0 |  0.00
Comm    | 0.0061434  | 0.0061434  | 0.0061434  |   0.0 |  0.01
Output  | 0          | 0          | 0          |   0.0 |  0.00
Modify  | 9.6424     | 9.6424     | 9.6424     |   0.0 | 17.29
Other   |            | 0.003441   |            |       |  0.01

Nlocal:            366 ave         366 max         366 min
Histogram: 1 0 0 0 0 0 0 0 0 0
Nghost:           6440 ave        6440 max        6440 min
Histogram: 1 0 0 0 0 0 0 0 0 0
Neighs:         212677 ave      212677 max      212677 min
Histogram: 1 0 0 0 0 0 0 0 0 0

Total # of neighbors = 212677
Ave neighs/atom = 581.0847
Ave special neighs/atom = 0
Neighbor list builds = 0
Dangerous builds not checked
System init for write_data ...
*****Equilibration starts.*****
Setting up Verlet run ...
  Unit style    : real
  Current step  : 0
  Time step     : 0.5
Per MPI rank memory allocation (min/avg/max) = 265.1 | 265.1 | 265.1 Mbytes
   Step          Temp          Press         Density         PotEng         TotEng    
         0   300           -2822.9716      1.8952586     -44450.235     -44123.836    
       100   201.98677      7215.5942      1.9038683     -44312.989     -44093.228    
       200   274.04039     -571.74634      1.8994527     -44330.321     -44032.166    
       300   319.83836      9591.0471      1.9249583     -44326.794     -43978.811    
       400   329.64952      537.42845      1.9095665     -44318.764     -43960.107    
       500   320.8684      -4166.5844      1.911435      -44329.141     -43980.038    
       600   305.46128      7466.1189      1.9061693     -44349.12      -44016.78     
       700   293.9402       11.324891      1.8891493     -44348.859     -44029.053    
       800   287.7187       8925.9918      1.9011217     -44326.086     -44013.05     
       900   301.24989      162.04845      1.8952795     -44318.478     -43990.719    
      1000   295.09054     -9629.6699      1.9041247     -44319.964     -43998.907    
      1100   297.19223      6876.2024      1.9230289     -44347.451     -44024.107    
      1200   285.98726     -12272.013      1.9163008     -44345.941     -44034.788    
      1300   302.27923      892.57211      1.9190477     -44356.668     -44027.789    
      1400   307.07545     -2588.5071      1.8893914     -44357.69      -44023.594    
      1500   279.19138     -1839.2548      1.8905477     -44338.709     -44034.95     
      1600   283.52704     -4859.0168      1.8995904     -44342.62      -44034.144    
      1700   313.48815     -8493.1875      1.9119332     -44373.312     -44032.239    
      1800   303.007        5254.8594      1.906117      -44376.775     -44047.104    
      1900   286.7898      -4040.5537      1.9154497     -44389.274     -44077.248    
      2000   284.73273     -3043.1487      1.9401906     -44394.083     -44084.295    
      2100   288.1466      -6512.3498      1.9294712     -44383.704     -44070.202    
