LAMMPS (2 Aug 2023 - Update 2)
  using 2 OpenMP thread(s) per MPI task
Reading data file ...
  triclinic box = (0 0 0) to (15.4861 14.0699 16.771) with tilt (-7.3915 0.9919 1.0308)
WARNING: Triclinic box skew is large. LAMMPS will run inefficiently. (src/domain.cpp:220)
  2 by 2 by 2 MPI processor grid
  reading atoms ...
  274 atoms
Finding 1-2 1-3 1-4 neighbors ...
  special bond factors lj:    0        0        0       
  special bond factors coul:  0        0        0       
     0 = max # of 1-2 neighbors
     0 = max # of 1-3 neighbors
     0 = max # of 1-4 neighbors
     1 = max # of special neighbors
  special bonds CPU = 0.001 seconds
  read_data CPU = 0.006 seconds
WARNING: Van der Waals parameters for element SI indicate inner wall+shielding, but earlier atoms indicate a different van der Waals method. This may cause division-by-zero errors. Keeping van der Waals setting for earlier atoms. (src/REAXFF/reaxff_ffield.cpp:251)
*****Minimization starts.*****

CITE-CITE-CITE-CITE-CITE-CITE-CITE-CITE-CITE-CITE-CITE-CITE-CITE

Your simulation uses code contributions which should be cited:
- pair reaxff command: doi:10.1016/j.parco.2011.08.005
- fix qeq/reaxff command: doi:10.1016/j.parco.2011.08.005
The log file lists these citations in BibTeX format.

CITE-CITE-CITE-CITE-CITE-CITE-CITE-CITE-CITE-CITE-CITE-CITE-CITE

WARNING: Fix qeq/reaxff group is not charge neutral, net charge = -8.2 (src/REAXFF/fix_qeq_reaxff.cpp:392)
Neighbor list info ...
  update: every = 1 steps, delay = 0 steps, check = yes
  max neighbors/atom: 2000, page size: 100000
  master list distance cutoff = 12
  ghost atom cutoff = 12
  binsize = 6, bins = 4 3 3
  2 neighbor lists, perpetual/occasional/extra = 2 0 0
  (1) pair reaxff, perpetual
      attributes: half, newton off, ghost
      pair build: half/bin/newtoff/ghost
      stencil: full/ghost/bin/3d
      bin: standard
  (2) fix qeq/reaxff, perpetual, copy from (1)
      attributes: half, newton off
      pair build: copy
      stencil: none
      bin: none
Setting up cg style minimization ...
  Unit style    : real
  Current step  : 0
Per MPI rank memory allocation (min/avg/max) = 110.4 | 111 | 111.7 Mbytes
   Step          Temp          E_pair         E_mol          TotEng         Press     
         0   0             -22642.034      0             -22642.034      120366.14    
        79   0             -26891.381      0             -26891.381     -8217.5966    
Loop time of 4.9542 on 16 procs for 79 steps with 274 atoms

96.9% CPU use with 8 MPI tasks x 2 OpenMP threads

Minimization stats:
  Stopping criterion = energy tolerance
  Energy initial, next-to-last, final = 
     -22642.0339738646  -26891.3772688388  -26891.3813391581
  Force two-norm initial, final = 3974.6545 88.08711
  Force max component initial, final = 534.07164 59.006713
  Final line search alpha, max atom move = 0.0029558372 0.17441424
  Iterations, force evaluations = 79 146

MPI task timing breakdown:
Section |  min time  |  avg time  |  max time  |%varavg| %total
---------------------------------------------------------------
Pair    | 2.7331     | 3.2759     | 3.669      |  17.6 | 66.12
Bond    | 4.515e-05  | 6.4511e-05 | 9.1066e-05 |   0.0 |  0.00
Neigh   | 0.016231   | 0.019647   | 0.023147   |   2.1 |  0.40
Comm    | 0.20044    | 0.59274    | 1.1354     |  41.3 | 11.96
Output  | 0.013432   | 0.02121    | 0.027035   |   3.3 |  0.43
Modify  | 1.0252     | 1.0287     | 1.0321     |   0.3 | 20.77
Other   |            | 0.01587    |            |       |  0.32

Nlocal:          34.25 ave          39 max          27 min
Histogram: 1 0 1 0 0 3 0 0 1 2
Nghost:        2619.88 ave        2650 max        2592 min
Histogram: 2 1 0 1 0 0 2 0 0 2
Neighs:          18002 ave       20352 max       14338 min
Histogram: 1 0 1 0 0 2 1 0 1 2

Total # of neighbors = 144016
Ave neighs/atom = 525.60584
Ave special neighs/atom = 0
Neighbor list builds = 1
Dangerous builds = 0
System init for write_data ...
WARNING: Van der Waals parameters for element SI indicate inner wall+shielding, but earlier atoms indicate a different van der Waals method. This may cause division-by-zero errors. Keeping van der Waals setting for earlier atoms. (src/REAXFF/reaxff_ffield.cpp:251)
WARNING: New thermo_style command, previous thermo_modify settings will be lost (src/output.cpp:903)
Neighbor list info ...
  update: every = 10 steps, delay = 0 steps, check = no
  max neighbors/atom: 2000, page size: 100000
  master list distance cutoff = 12
  ghost atom cutoff = 12
  binsize = 6, bins = 4 3 3
  2 neighbor lists, perpetual/occasional/extra = 2 0 0
  (1) pair reaxff, perpetual
      attributes: half, newton off, ghost
      pair build: half/bin/newtoff/ghost
      stencil: full/ghost/bin/3d
      bin: standard
  (2) fix qeq/reaxff, perpetual, copy from (1)
      attributes: half, newton off
      pair build: copy
      stencil: none
      bin: none
Setting up Verlet run ...
  Unit style    : real
  Current step  : 0
  Time step     : 0.5
Per MPI rank memory allocation (min/avg/max) = 104.3 | 104.8 | 105.5 Mbytes
   Step          Temp          PotEng         Press         Density         Volume    
         0   300           -26891.382     -5164.0906      1.3867102      3654.1976    
       100   216.79235     -26792.891     -7571.847       1.3867102      3654.1976    
       200   253.01861     -26774.938     -5686.1287      1.3867102      3654.1976    
       300   341.14638     -26819.541      10820.337      1.3867102      3654.1976    
       400   339.78148     -26839.423     -6991.9814      1.3867102      3654.1976    
       500   298.39666     -26852.065     -17486.876      1.3867102      3654.1976    
       600   273.32467     -26854.635     -3474.0338      1.3867102      3654.1976    
       700   301.14191     -26889.722      1753.6346      1.3867102      3654.1976    
       800   310.7935      -26914.634     -4763.5703      1.3867102      3654.1976    
       900   336.05428     -26963.948     -8851.4043      1.3867102      3654.1976    
      1000   266.98217     -26923.802     -57.443153      1.3867102      3654.1976    
      1100   291.90573     -26937.568      2349.9605      1.3867102      3654.1976    
      1200   304.06001     -26931.426      3835.8316      1.3867102      3654.1976    
      1300   339.41644     -26950.009      1691.7149      1.3867102      3654.1976    
      1400   431.68881     -27077.213      12419.187      1.3867102      3654.1976    
      1500   412.69388     -27131.273     -2330.0687      1.3867102      3654.1976    
      1600   331.02846     -27136.761     -1096.5356      1.3867102      3654.1976    
      1700   319.15521     -27175.988      1532.9441      1.3867102      3654.1976    
      1800   308.95189     -27199.592      6927.5959      1.3867102      3654.1976    
      1900   275.34089     -27192.098      3556.3011      1.3867102      3654.1976    
      2000   308.16174     -27218.438     -5383.3698      1.3867102      3654.1976    
      2100   297.986       -27222.436     -3657.085       1.3867102      3654.1976    
      2200   297.12938     -27230.778     -7700.6462      1.3867102      3654.1976    
      2300   291.94976     -27229.382     -5909.0467      1.3867102      3654.1976    
      2400   295.03089     -27240.442     -19813.83       1.3867102      3654.1976    
      2500   326.16497     -27273.56      -5611.6614      1.3867102      3654.1976    
      2600   419.42998     -27388.212     -2573.2686      1.3867102      3654.1976    
      2700   398.05419     -27413.128      2186.3028      1.3867102      3654.1976    
      2800   284.17582     -27366.522     -11271.43       1.3867102      3654.1976    
      2900   332.30429     -27438.692     -4554.1851      1.3867102      3654.1976    
      3000   248.35941     -27390.278     -6565.6585      1.3867102      3654.1976    
      3100   286.41421     -27434.059     -6687.7505      1.3867102      3654.1976    
      3200   339.95993     -27480.319     -5815.4717      1.3867102      3654.1976    
      3300   258.41483     -27426.626     -9706.1814      1.3867102      3654.1976    
      3400   282.11151     -27450.664      4043.4108      1.3867102      3654.1976    
      3500   340.40144     -27484.934     -10536.89       1.3867102      3654.1976    
      3600   313.95033     -27435.467      2544.1255      1.3867102      3654.1976    
      3700   327.11993     -27439.572      947.95805      1.3867102      3654.1976    
      3800   293.66023     -27431.059     -10147.121      1.3867102      3654.1976    
      3900   350.30599     -27494.734     -5170.6957      1.3867102      3654.1976    
      4000   320.68956     -27476.883     -3477.388       1.3867102      3654.1976    
      4100   268.73847     -27435.967     -3756.0039      1.3867102      3654.1976    
      4200   303.77708     -27474.042     -8435.9079      1.3867102      3654.1976    
      4300   305.86465     -27509.599     -8402.2683      1.3867102      3654.1976    
      4400   286.08358     -27507.984     -2053.45        1.3867102      3654.1976    
      4500   338.68691     -27559.087     -2521.3939      1.3867102      3654.1976    
      4600   295.34338     -27525.188      1090.8645      1.3867102      3654.1976    
      4700   258.34045     -27523.244     -3860.3621      1.3867102      3654.1976    
      4800   281.0047      -27554.567      2354.7982      1.3867102      3654.1976    
      4900   328.0641      -27580.412     -12511.906      1.3867102      3654.1976    
      5000   296.88543     -27536.878     -1744.4906      1.3867102      3654.1976    
Loop time of 169.552 on 16 procs for 5000 steps with 274 atoms

Performance: 1.274 ns/day, 18.839 hours/ns, 29.489 timesteps/s, 8.080 katom-step/s
99.2% CPU use with 8 MPI tasks x 2 OpenMP threads

MPI task timing breakdown:
Section |  min time  |  avg time  |  max time  |%varavg| %total
---------------------------------------------------------------
Pair    | 115.91     | 120.57     | 127.27     |  36.6 | 71.11
Bond    | 0.0013551  | 0.0016959  | 0.0022401  |   0.7 |  0.00
Neigh   | 10.699     | 10.912     | 11.192     |   5.0 |  6.44
Comm    | 12.256     | 18.774     | 23.603     |  92.6 | 11.07
Output  | 0.027956   | 0.031947   | 0.036553   |   1.9 |  0.02
Modify  | 17.734     | 18.235     | 18.584     |   6.2 | 10.75
Other   |            | 1.024      |            |       |  0.60

Nlocal:          34.25 ave          44 max          26 min
Histogram: 1 0 2 1 1 0 1 1 0 1
Nghost:        2576.12 ave        2605 max        2545 min
Histogram: 1 2 1 0 0 0 0 0 2 2
Neighs:          17978 ave       22730 max       13857 min
Histogram: 1 0 2 1 1 0 1 1 0 1

Total # of neighbors = 143824
Ave neighs/atom = 524.90511
Ave special neighs/atom = 0
Neighbor list builds = 500
Dangerous builds not checked
System init for write_data ...
System init for write_restart ...
  using 2 OpenMP thread(s) per MPI task
Reading restart file ...
  restart file = 2 Aug 2023, LAMMPS = 2 Aug 2023
  restoring atom style full from restart
  triclinic box = (0 0 0) to (15.4861 14.0699 16.771) with tilt (-7.3915 0.9919 1.0308)
WARNING: Triclinic box skew is large. LAMMPS will run inefficiently. (src/domain.cpp:220)
  2 by 2 by 2 MPI processor grid
  pair style reaxff stores no restart info
  274 atoms
Finding 1-2 1-3 1-4 neighbors ...
  special bond factors lj:    0        0        0       
  special bond factors coul:  0        0        0       
     0 = max # of 1-2 neighbors
     0 = max # of 1-3 neighbors
     0 = max # of 1-4 neighbors
     1 = max # of special neighbors
  special bonds CPU = 0.000 seconds
  read_restart CPU = 0.003 seconds
*****Positive-deform 1 starts.*****
WARNING: Van der Waals parameters for element SI indicate inner wall+shielding, but earlier atoms indicate a different van der Waals method. This may cause division-by-zero errors. Keeping van der Waals setting for earlier atoms. (src/REAXFF/reaxff_ffield.cpp:251)
Resetting global fix info from restart file:
  fix style: nvt, fix ID: fnvt
All restart file global fix info was re-assigned
Unused restart file peratom fix info:
  fix style: STORE/ATOM, fix ID: msd1_COMPUTE_STORE
Neighbor list info ...
  update: every = 10 steps, delay = 0 steps, check = no
  max neighbors/atom: 2000, page size: 100000
  master list distance cutoff = 12
  ghost atom cutoff = 12
  binsize = 6, bins = 4 3 3
  2 neighbor lists, perpetual/occasional/extra = 2 0 0
  (1) pair reaxff, perpetual
      attributes: half, newton off, ghost
      pair build: half/bin/newtoff/ghost
      stencil: full/ghost/bin/3d
      bin: standard
  (2) fix qeq/reaxff, perpetual, copy from (1)
      attributes: half, newton off
      pair build: copy
      stencil: none
      bin: none
Setting up Verlet run ...
  Unit style    : real
  Current step  : 0
  Time step     : 0.5
Per MPI rank memory allocation (min/avg/max) = 105.8 | 107.1 | 108.3 Mbytes
   Step          Temp          PotEng         Press          Volume           Lx             Ly             Lz      
         0   296.88543     -27536.878     -1744.3564      3654.1976      15.4861        14.0699        16.771       
       100   342.65329     -27576.416      10234.684      3727.2816      15.795822      14.0699        16.771       
       200   387.49574     -27463.724     -6488.8376      3800.3655      16.105544      14.0699        16.771       
       300   418.97807     -27409.514     -9379.4643      3873.4495      16.415266      14.0699        16.771       
       400   456.92875     -27371.845     -13117.766      3946.5334      16.724988      14.0699        16.771       
       500   403.09034     -27331.547     -14038.21       4019.6174      17.03471       14.0699        16.771       
       600   444.90796     -27387.95      -23646.275      4092.7013      17.344432      14.0699        16.771       
       700   455.20136     -27345.365     -19258.988      4165.7853      17.654154      14.0699        16.771       
       800   421.3899      -27300.621     -10954.095      4238.8692      17.963876      14.0699        16.771       
       900   406.84447     -27288.651     -14119.607      4311.9532      18.273598      14.0699        16.771       
      1000   450.42661     -27340.598     -18814.609      4385.0371      18.58332       14.0699        16.771       
      1100   398.37101     -27277.559     -17375.431      4458.1211      18.893042      14.0699        16.771       
      1200   451.57247     -27308.016     -15527.796      4531.205       19.202764      14.0699        16.771       
      1300   438.75956     -27333.647     -16639.118      4604.289       19.512486      14.0699        16.771       
      1400   497.66323     -27384.734     -14682.213      4677.3729      19.822208      14.0699        16.771       
      1500   348.36067     -27322.121     -14086.638      4750.4569      20.13193       14.0699        16.771       
      1600   413.41537     -27382.296     -17089.228      4823.5408      20.441652      14.0699        16.771       
      1700   429.08512     -27336.966     -9316.1834      4896.6248      20.751374      14.0699        16.771       
      1800   388.03345     -27324.976     -12151.833      4969.7087      21.061096      14.0699        16.771       
      1900   393.11739     -27342.631     -15903.366      5042.7927      21.370818      14.0699        16.771       
      2000   384.81506     -27347.906     -15234.103      5115.8767      21.68054       14.0699        16.771       
      2100   391.97075     -27345.385     -13521.029      5188.9606      21.990262      14.0699        16.771       
      2200   348.14294     -27412.968     -19990.512      5262.0446      22.299984      14.0699        16.771       
      2300   360.18169     -27444.803     -8014.5029      5335.1285      22.609706      14.0699        16.771       
      2400   368.07049     -27455.836     -9629.9662      5408.2125      22.919428      14.0699        16.771       
      2500   322.15616     -27465.301     -12798.329      5481.2964      23.22915       14.0699        16.771       
      2600   369.63138     -27493.885     -14847.734      5554.3804      23.538872      14.0699        16.771       
      2700   326.8972      -27472.314     -11412.556      5627.4643      23.848594      14.0699        16.771       
      2800   295.99601     -27447.984     -17747.855      5700.5483      24.158316      14.0699        16.771       
      2900   356.93054     -27506.625     -7856.1292      5773.6322      24.468038      14.0699        16.771       
      3000   265.35384     -27481.505     -5547.0561      5846.7162      24.77776       14.0699        16.771       
      3100   316.08683     -27514.224     -11782.709      5919.8001      25.087482      14.0699        16.771       
      3200   339.27178     -27529.342     -16090.432      5992.8841      25.397204      14.0699        16.771       
      3300   426.15143     -27556.012     -6437.9942      6065.968       25.706926      14.0699        16.771       
      3400   321.693       -27519.921     -8879.3284      6139.052       26.016648      14.0699        16.771       
      3500   338.58791     -27493.114     -8781.9864      6212.1359      26.32637       14.0699        16.771       
      3600   290.66402     -27457.805     -18074.308      6285.2199      26.636092      14.0699        16.771       
      3700   351.52495     -27523.23      -14327.253      6358.3038      26.945814      14.0699        16.771       
      3800   409.826       -27592.348     -10717.86       6431.3878      27.255536      14.0699        16.771       
      3900   332.02445     -27549.701     -7166.4027      6504.4717      27.565258      14.0699        16.771       
      4000   364.1196      -27564.157     -7284.9453      6577.5557      27.87498       14.0699        16.771       
      4100   362.32669     -27583.83      -12916.456      6650.6396      28.184702      14.0699        16.771       
      4200   310.53185     -27519.244     -9460.125       6723.7236      28.494424      14.0699        16.771       
      4300   338.74259     -27508.299     -5922.982       6796.8076      28.804146      14.0699        16.771       
      4400   375.40279     -27529.53      -4157.8028      6869.8915      29.113868      14.0699        16.771       
      4500   340.21078     -27501.055     -2211.3813      6942.9755      29.42359       14.0699        16.771       
      4600   328.17406     -27469.019     -6767.0055      7016.0594      29.733312      14.0699        16.771       
      4700   302.2728      -27442.249     -9771.819       7089.1434      30.043034      14.0699        16.771       
      4800   334.70801     -27490.322     -14480.31       7162.2273      30.352756      14.0699        16.771       
      4900   366.73933     -27481.308     -14439.686      7235.3113      30.662478      14.0699        16.771       
      5000   330.8782      -27452.008     -11176.917      7308.3952      30.9722        14.0699        16.771       
Loop time of 129.49 on 16 procs for 5000 steps with 274 atoms

Performance: 1.668 ns/day, 14.388 hours/ns, 38.613 timesteps/s, 10.580 katom-step/s
99.4% CPU use with 8 MPI tasks x 2 OpenMP threads

MPI task timing breakdown:
Section |  min time  |  avg time  |  max time  |%varavg| %total
---------------------------------------------------------------
Pair    | 82.134     | 88.897     | 95.134     |  46.3 | 68.65
Bond    | 0.0013496  | 0.0016791  | 0.0021731  |   0.6 |  0.00
Neigh   | 6.0984     | 6.4103     | 6.6955     |   8.2 |  4.95
Comm    | 10.76      | 16.879     | 23.525     | 106.2 | 13.04
Output  | 0.024803   | 0.030321   | 0.034008   |   1.7 |  0.02
Modify  | 15.611     | 16.098     | 16.512     |   6.6 | 12.43
Other   |            | 1.172      |            |       |  0.91

Nlocal:          34.25 ave          60 max          15 min
Histogram: 2 0 0 1 3 0 0 1 0 1
Nghost:        1922.75 ave        2089 max        1780 min
Histogram: 1 1 1 1 1 0 1 0 1 1
Neighs:        8517.62 ave       14809 max        4128 min
Histogram: 2 0 0 3 1 0 1 0 0 1

Total # of neighbors = 68141
Ave neighs/atom = 248.68978
Ave special neighs/atom = 0
Neighbor list builds = 500
Dangerous builds not checked
  using 2 OpenMP thread(s) per MPI task
Reading restart file ...
  restart file = 2 Aug 2023, LAMMPS = 2 Aug 2023
  restoring atom style full from restart
  triclinic box = (0 0 0) to (15.4861 14.0699 16.771) with tilt (-7.3915 0.9919 1.0308)
WARNING: Triclinic box skew is large. LAMMPS will run inefficiently. (src/domain.cpp:220)
  2 by 2 by 2 MPI processor grid
  pair style reaxff stores no restart info
  274 atoms
Finding 1-2 1-3 1-4 neighbors ...
  special bond factors lj:    0        0        0       
  special bond factors coul:  0        0        0       
     0 = max # of 1-2 neighbors
     0 = max # of 1-3 neighbors
     0 = max # of 1-4 neighbors
     1 = max # of special neighbors
  special bonds CPU = 0.001 seconds
  read_restart CPU = 0.005 seconds
*****Positive-deform 2 starts.*****
WARNING: Van der Waals parameters for element SI indicate inner wall+shielding, but earlier atoms indicate a different van der Waals method. This may cause division-by-zero errors. Keeping van der Waals setting for earlier atoms. (src/REAXFF/reaxff_ffield.cpp:251)
Resetting global fix info from restart file:
  fix style: nvt, fix ID: fnvt
All restart file global fix info was re-assigned
Unused restart file peratom fix info:
  fix style: STORE/ATOM, fix ID: msd1_COMPUTE_STORE
Neighbor list info ...
  update: every = 10 steps, delay = 0 steps, check = no
  max neighbors/atom: 2000, page size: 100000
  master list distance cutoff = 12
  ghost atom cutoff = 12
  binsize = 6, bins = 4 3 3
  2 neighbor lists, perpetual/occasional/extra = 2 0 0
  (1) pair reaxff, perpetual
      attributes: half, newton off, ghost
      pair build: half/bin/newtoff/ghost
      stencil: full/ghost/bin/3d
      bin: standard
  (2) fix qeq/reaxff, perpetual, copy from (1)
      attributes: half, newton off
      pair build: copy
      stencil: none
      bin: none
Setting up Verlet run ...
  Unit style    : real
  Current step  : 0
  Time step     : 0.5
Per MPI rank memory allocation (min/avg/max) = 105.8 | 107.1 | 108.3 Mbytes
   Step          Temp          PotEng         Press          Volume           Lx             Ly             Lz      
         0   296.88543     -27536.878     -1744.3564      3654.1976      15.4861        14.0699        16.771       
       100   342.55936     -27576.952      10382.118      3727.2816      15.4861        14.351298      16.771       
       200   356.1553      -27475.758     -15794.557      3800.3655      15.4861        14.632696      16.771       
       300   389.44814     -27398.673     -7251.1824      3873.4495      15.4861        14.914094      16.771       
       400   415.25679     -27424.507     -4411.3147      3946.5334      15.4861        15.195492      16.771       
       500   421.89261     -27443.939     -13068.461      4019.6174      15.4861        15.47689       16.771       
       600   393.1995      -27439.75      -26186.659      4092.7013      15.4861        15.758288      16.771       
       700   374.01193     -27386.151     -8164.0161      4165.7853      15.4861        16.039686      16.771       
       800   389.39224     -27422.914     -14016.41       4238.8692      15.4861        16.321084      16.771       
       900   323.49228     -27376.637     -18092.831      4311.9532      15.4861        16.602482      16.771       
      1000   403.28493     -27386.2       -27111.973      4385.0371      15.4861        16.88388       16.771       
      1100   379.13177     -27361.845     -24018.136      4458.1211      15.4861        17.165278      16.771       
      1200   382.43054     -27343.281     -14681.781      4531.205       15.4861        17.446676      16.771       
      1300   412.0906      -27356.22      -25662.616      4604.289       15.4861        17.728074      16.771       
      1400   346.85314     -27287.812     -21930.843      4677.3729      15.4861        18.009472      16.771       
      1500   404.90885     -27337.255     -15972.88       4750.4569      15.4861        18.29087       16.771       
      1600   413.34962     -27365.848     -19265.69       4823.5408      15.4861        18.572268      16.771       
      1700   397.03661     -27420.679     -14919.433      4896.6248      15.4861        18.853666      16.771       
      1800   363.91025     -27403.636     -21347.537      4969.7087      15.4861        19.135064      16.771       
      1900   401.00941     -27414.384     -20519.906      5042.7927      15.4861        19.416462      16.771       
      2000   383.98959     -27387.075     -30201.251      5115.8767      15.4861        19.69786       16.771       
      2100   435.7301      -27440.666     -17834.645      5188.9606      15.4861        19.979258      16.771       
      2200   390.32412     -27420.248     -9833.5692      5262.0446      15.4861        20.260656      16.771       
      2300   378.1715      -27468.954     -14837.813      5335.1285      15.4861        20.542054      16.771       
      2400   389.61139     -27470.957     -18453.09       5408.2125      15.4861        20.823452      16.771       
      2500   313.03208     -27388.586     -16903.834      5481.2964      15.4861        21.10485       16.771       
      2600   407.67688     -27413.306     -16861.691      5554.3804      15.4861        21.386248      16.771       
      2700   399.08751     -27375.986     -16218.678      5627.4643      15.4861        21.667646      16.771       
      2800   424.96106     -27397.176     -17694.77       5700.5483      15.4861        21.949044      16.771       
      2900   387.50813     -27373.341     -16880.686      5773.6322      15.4861        22.230442      16.771       
      3000   394.94695     -27365.596     -23209.445      5846.7162      15.4861        22.51184       16.771       
      3100   383.73906     -27367.391     -19552.975      5919.8001      15.4861        22.793238      16.771       
      3200   318.60985     -27301.592     -20196.777      5992.8841      15.4861        23.074636      16.771       
      3300   353.36619     -27312.51      -29023.751      6065.968       15.4861        23.356034      16.771       
      3400   335.39965     -27308.222     -23678.77       6139.052       15.4861        23.637432      16.771       
      3500   391.20732     -27354.063     -18064.993      6212.1359      15.4861        23.91883       16.771       
      3600   353.12853     -27347.554     -6890.9575      6285.2199      15.4861        24.200228      16.771       
      3700   388.33708     -27405.462     -12489.891      6358.3038      15.4861        24.481626      16.771       
      3800   380.16317     -27458.921     -6639.3991      6431.3878      15.4861        24.763024      16.771       
      3900   373.50115     -27520.198      827.94096      6504.4717      15.4861        25.044422      16.771       
      4000   361.05265     -27568.345     -2284.1758      6577.5557      15.4861        25.32582       16.771       
      4100   327.97419     -27591.205     -7657.4475      6650.6396      15.4861        25.607218      16.771       
      4200   280.08254     -27533.007     -12330.767      6723.7236      15.4861        25.888616      16.771       
      4300   355.41912     -27569.291     -9330.1756      6796.8076      15.4861        26.170014      16.771       
      4400   345.25705     -27568.546     -1650.9532      6869.8915      15.4861        26.451412      16.771       
      4500   272.28269     -27535.783     -7116.5289      6942.9755      15.4861        26.73281       16.771       
      4600   292.65778     -27544.841     -3792.0849      7016.0594      15.4861        27.014208      16.771       
      4700   323.50045     -27553.525     -6415.6298      7089.1434      15.4861        27.295606      16.771       
      4800   308.81375     -27550.657     -9164.4872      7162.2273      15.4861        27.577004      16.771       
      4900   321.78884     -27559.387     -4121.0162      7235.3113      15.4861        27.858402      16.771       
      5000   309.11376     -27584.645     -5150.799       7308.3952      15.4861        28.1398        16.771       
Loop time of 114.306 on 16 procs for 5000 steps with 274 atoms

Performance: 1.890 ns/day, 12.701 hours/ns, 43.742 timesteps/s, 11.985 katom-step/s
99.7% CPU use with 8 MPI tasks x 2 OpenMP threads

MPI task timing breakdown:
Section |  min time  |  avg time  |  max time  |%varavg| %total
---------------------------------------------------------------
Pair    | 75.122     | 78.354     | 80.449     |  19.9 | 68.55
Bond    | 0.0013979  | 0.0016706  | 0.0020921  |   0.5 |  0.00
Neigh   | 5.9248     | 6.0439     | 6.1901     |   3.8 |  5.29
Comm    | 11.47      | 13.68      | 16.775     |  47.3 | 11.97
Output  | 0.022435   | 0.026776   | 0.030418   |   1.7 |  0.02
Modify  | 14.792     | 15.023     | 15.283     |   5.0 | 13.14
Other   |            | 1.176      |            |       |  1.03

Nlocal:          34.25 ave          59 max          16 min
Histogram: 1 2 1 0 0 1 2 0 0 1
Nghost:           1467 ave        1546 max        1401 min
Histogram: 2 1 0 1 0 0 2 0 1 1
Neighs:        8522.88 ave       14166 max        3856 min
Histogram: 1 1 2 0 0 0 3 0 0 1

Total # of neighbors = 68183
Ave neighs/atom = 248.84307
Ave special neighs/atom = 0
Neighbor list builds = 500
Dangerous builds not checked
  using 2 OpenMP thread(s) per MPI task
Reading restart file ...
  restart file = 2 Aug 2023, LAMMPS = 2 Aug 2023
  restoring atom style full from restart
  triclinic box = (0 0 0) to (15.4861 14.0699 16.771) with tilt (-7.3915 0.9919 1.0308)
WARNING: Triclinic box skew is large. LAMMPS will run inefficiently. (src/domain.cpp:220)
  2 by 2 by 2 MPI processor grid
  pair style reaxff stores no restart info
  274 atoms
Finding 1-2 1-3 1-4 neighbors ...
  special bond factors lj:    0        0        0       
  special bond factors coul:  0        0        0       
     0 = max # of 1-2 neighbors
     0 = max # of 1-3 neighbors
     0 = max # of 1-4 neighbors
     1 = max # of special neighbors
  special bonds CPU = 0.000 seconds
  read_restart CPU = 0.003 seconds
*****Positive-deform 3 starts.*****
WARNING: Van der Waals parameters for element SI indicate inner wall+shielding, but earlier atoms indicate a different van der Waals method. This may cause division-by-zero errors. Keeping van der Waals setting for earlier atoms. (src/REAXFF/reaxff_ffield.cpp:251)
Resetting global fix info from restart file:
  fix style: nvt, fix ID: fnvt
All restart file global fix info was re-assigned
Unused restart file peratom fix info:
  fix style: STORE/ATOM, fix ID: msd1_COMPUTE_STORE
Neighbor list info ...
  update: every = 10 steps, delay = 0 steps, check = no
  max neighbors/atom: 2000, page size: 100000
  master list distance cutoff = 12
  ghost atom cutoff = 12
  binsize = 6, bins = 4 3 3
  2 neighbor lists, perpetual/occasional/extra = 2 0 0
  (1) pair reaxff, perpetual
      attributes: half, newton off, ghost
      pair build: half/bin/newtoff/ghost
      stencil: full/ghost/bin/3d
      bin: standard
  (2) fix qeq/reaxff, perpetual, copy from (1)
      attributes: half, newton off
      pair build: copy
      stencil: none
      bin: none
Setting up Verlet run ...
  Unit style    : real
  Current step  : 0
  Time step     : 0.5
Per MPI rank memory allocation (min/avg/max) = 105.8 | 107.1 | 108.3 Mbytes
   Step          Temp          PotEng         Press          Volume           Lx             Ly             Lz      
         0   296.88543     -27536.878     -1744.3564      3654.1976      15.4861        14.0699        16.771       
       100   342.9157      -27576.997      9819.038       3727.2816      15.4861        14.0699        17.10642     
       200   395.97803     -27493.346     -19173.329      3800.3655      15.4861        14.0699        17.44184     
       300   401.45534     -27429.772     -13861.651      3873.4495      15.4861        14.0699        17.77726     
       400   534.85331     -27496.594      15121.541      3946.5334      15.4861        14.0699        18.11268     
       500   478.69566     -27483.716     -4518.2013      4019.6174      15.4861        14.0699        18.4481      
       600   474.82146     -27482.258     -10212.702      4092.7013      15.4861        14.0699        18.78352     
       700   466.43205     -27469.339     -17090.653      4165.7853      15.4861        14.0699        19.11894     
       800   462.93989     -27455.04      -20646.181      4238.8692      15.4861        14.0699        19.45436     
       900   473.40363     -27450.662     -12935.553      4311.9532      15.4861        14.0699        19.78978     
      1000   373.17328     -27405.767     -20227.616      4385.0371      15.4861        14.0699        20.1252      
      1100   423.35749     -27458.288     -19947.35       4458.1211      15.4861        14.0699        20.46062     
      1200   388.04715     -27434.034     -18074.48       4531.205       15.4861        14.0699        20.79604     
      1300   362.59384     -27448.38      -5314.3159      4604.289       15.4861        14.0699        21.13146     
      1400   346.48286     -27454.612     -8523.401       4677.3729      15.4861        14.0699        21.46688     
      1500   298.25839     -27421.952     -6132.4568      4750.4569      15.4861        14.0699        21.8023      
      1600   339.00736     -27473.642     -13923.189      4823.5408      15.4861        14.0699        22.13772     
      1700   347.21122     -27454.503     -12540.999      4896.6248      15.4861        14.0699        22.47314     
      1800   384.42447     -27508.561     -1300.5131      4969.7087      15.4861        14.0699        22.80856     
      1900   376.15672     -27524.363     -4794.9693      5042.7927      15.4861        14.0699        23.14398     
      2000   352.3055      -27520.242     -15413.934      5115.8767      15.4861        14.0699        23.4794      
      2100   332.8059      -27533.507     -14506.703      5188.9606      15.4861        14.0699        23.81482     
      2200   356.72378     -27540.53      -16323.066      5262.0446      15.4861        14.0699        24.15024     
      2300   327.17934     -27529.939     -12112.743      5335.1285      15.4861        14.0699        24.48566     
      2400   327.60725     -27527.285     -13729.569      5408.2125      15.4861        14.0699        24.82108     
      2500   324.92016     -27511.456     -10682.929      5481.2964      15.4861        14.0699        25.1565      
      2600   340.74445     -27506.555     -15166.873      5554.3804      15.4861        14.0699        25.49192     
      2700   396.64694     -27507.234     -15338.545      5627.4643      15.4861        14.0699        25.82734     
      2800   369.94506     -27448.157     -17530.439      5700.5483      15.4861        14.0699        26.16276     
      2900   353.91063     -27432.608     -20195.04       5773.6322      15.4861        14.0699        26.49818     
      3000   254.17959     -27364.988     -20346.519      5846.7162      15.4861        14.0699        26.8336      
      3100   257.8466      -27362.265     -24900.478      5919.8001      15.4861        14.0699        27.16902     
      3200   301.0246      -27290.214     -23933.61       5992.8841      15.4861        14.0699        27.50444     
      3300   323.25144     -27256.909     -24490.076      6065.968       15.4861        14.0699        27.83986     
      3400   485.38399     -27309.047     -20691.424      6139.052       15.4861        14.0699        28.17528     
      3500   364.8828      -27227.268     -15051.69       6212.1359      15.4861        14.0699        28.5107      
      3600   394.79457     -27317.666     -14566.741      6285.2199      15.4861        14.0699        28.84612     
      3700   427.68991     -27433.986     -8645.0757      6358.3038      15.4861        14.0699        29.18154     
      3800   357.86185     -27481.391     -9618.9212      6431.3878      15.4861        14.0699        29.51696     
      3900   290.5219      -27484.023     -8357.7025      6504.4717      15.4861        14.0699        29.85238     
      4000   298.18277     -27547.669     -6955.9291      6577.5557      15.4861        14.0699        30.1878      
      4100   273.0691      -27553.338     -10396.126      6650.6396      15.4861        14.0699        30.52322     
      4200   260.86375     -27577.922     -4253.5712      6723.7236      15.4861        14.0699        30.85864     
      4300   320.92312     -27574.332     -809.69756      6796.8076      15.4861        14.0699        31.19406     
      4400   330.46474     -27542.521     -6395.5384      6869.8915      15.4861        14.0699        31.52948     
      4500   294.52188     -27539.28      -10235.837      6942.9755      15.4861        14.0699        31.8649      
      4600   285.26246     -27599.632     -10160.663      7016.0594      15.4861        14.0699        32.20032     
      4700   281.68089     -27634.774     -1855.2534      7089.1434      15.4861        14.0699        32.53574     
      4800   286.25901     -27621.444     -6366.275       7162.2273      15.4861        14.0699        32.87116     
      4900   281.90857     -27600.103     -7645.1978      7235.3113      15.4861        14.0699        33.20658     
      5000   297.71894     -27625.299     -9085.1382      7308.3952      15.4861        14.0699        33.542       
Loop time of 125.82 on 16 procs for 5000 steps with 274 atoms

Performance: 1.717 ns/day, 13.980 hours/ns, 39.739 timesteps/s, 10.889 katom-step/s
99.4% CPU use with 8 MPI tasks x 2 OpenMP threads

MPI task timing breakdown:
Section |  min time  |  avg time  |  max time  |%varavg| %total
---------------------------------------------------------------
Pair    | 77.575     | 83.364     | 92.414     |  53.3 | 66.26
Bond    | 0.0012735  | 0.0016341  | 0.0020922  |   0.6 |  0.00
Neigh   | 5.9182     | 6.3025     | 6.7274     |  10.5 |  5.01
Comm    | 9.7511     | 19.028     | 24.963     | 113.8 | 15.12
Output  | 0.025048   | 0.029325   | 0.032498   |   1.4 |  0.02
Modify  | 15.391     | 15.979     | 16.432     |   9.4 | 12.70
Other   |            | 1.116      |            |       |  0.89

Nlocal:          34.25 ave          66 max           9 min
Histogram: 2 0 1 0 0 3 1 0 0 1
Nghost:        1679.62 ave        1943 max        1408 min
Histogram: 2 1 1 0 0 0 0 0 2 2
Neighs:        9793.75 ave       20445 max        1942 min
Histogram: 2 1 1 0 0 1 2 0 0 1

Total # of neighbors = 78350
Ave neighs/atom = 285.94891
Ave special neighs/atom = 0
Neighbor list builds = 500
Dangerous builds not checked
  using 2 OpenMP thread(s) per MPI task
Reading restart file ...
  restart file = 2 Aug 2023, LAMMPS = 2 Aug 2023
  restoring atom style full from restart
  triclinic box = (0 0 0) to (15.4861 14.0699 16.771) with tilt (-7.3915 0.9919 1.0308)
WARNING: Triclinic box skew is large. LAMMPS will run inefficiently. (src/domain.cpp:220)
  2 by 2 by 2 MPI processor grid
  pair style reaxff stores no restart info
  274 atoms
Finding 1-2 1-3 1-4 neighbors ...
  special bond factors lj:    0        0        0       
  special bond factors coul:  0        0        0       
     0 = max # of 1-2 neighbors
     0 = max # of 1-3 neighbors
     0 = max # of 1-4 neighbors
     1 = max # of special neighbors
  special bonds CPU = 0.000 seconds
  read_restart CPU = 0.003 seconds
*****Positive-deform 4 starts.*****
WARNING: Van der Waals parameters for element SI indicate inner wall+shielding, but earlier atoms indicate a different van der Waals method. This may cause division-by-zero errors. Keeping van der Waals setting for earlier atoms. (src/REAXFF/reaxff_ffield.cpp:251)
Resetting global fix info from restart file:
  fix style: nvt, fix ID: fnvt
All restart file global fix info was re-assigned
Unused restart file peratom fix info:
  fix style: STORE/ATOM, fix ID: msd1_COMPUTE_STORE
Neighbor list info ...
  update: every = 10 steps, delay = 0 steps, check = no
  max neighbors/atom: 2000, page size: 100000
  master list distance cutoff = 12
  ghost atom cutoff = 12
  binsize = 6, bins = 4 3 3
  2 neighbor lists, perpetual/occasional/extra = 2 0 0
  (1) pair reaxff, perpetual
      attributes: half, newton off, ghost
      pair build: half/bin/newtoff/ghost
      stencil: full/ghost/bin/3d
      bin: standard
  (2) fix qeq/reaxff, perpetual, copy from (1)
      attributes: half, newton off
      pair build: copy
      stencil: none
      bin: none
Setting up Verlet run ...
  Unit style    : real
  Current step  : 0
  Time step     : 0.5
Per MPI rank memory allocation (min/avg/max) = 105.8 | 107.1 | 108.3 Mbytes
   Step          Temp          PotEng         Press          Volume           Lx             Ly             Lz      
         0   296.88543     -27536.878     -1744.3564      3654.1976      15.4861        14.0699        16.771       
       100   343.31344     -27575.284      10340.385      3654.1976      15.4861        14.0699        16.771       
       200   436.96999     -27551.615     -11259.613      3654.1976      15.4861        14.0699        16.771       
       300   348.23683     -27506.519     -696.58783      3654.1976      15.4861        14.0699        16.771       
       400   375.78837     -27561.199      5609.0497      3654.1976      15.4861        14.0699        16.771       
       500   391.95555     -27583.497      9038.6671      3654.1976      15.4861        14.0699        16.771       
       600   408.65203     -27606.057     -3931.3088      3654.1976      15.4861        14.0699        16.771       
       700   414.22205     -27597.03       2544.3086      3654.1976      15.4861        14.0699        16.771       
       800   369.0453      -27576.304      1188.6735      3654.1976      15.4861        14.0699        16.771       
       900   378.35901     -27520.561     -7656.0838      3654.1976      15.4861        14.0699        16.771       
      1000   319.47955     -27480.544      1990.8762      3654.1976      15.4861        14.0699        16.771       
      1100   296.19685     -27505.894     -3391.7894      3654.1976      15.4861        14.0699        16.771       
      1200   303.51764     -27489.666      3263.2464      3654.1976      15.4861        14.0699        16.771       
      1300   321.79235     -27475.985      13468.276      3654.1976      15.4861        14.0699        16.771       
      1400   373.40573     -27523.593     -5923.5088      3654.1976      15.4861        14.0699        16.771       
      1500   377.05859     -27590.874     -2490.844       3654.1976      15.4861        14.0699        16.771       
      1600   308.6058      -27528.655     -9473.4551      3654.1976      15.4861        14.0699        16.771       
      1700   324.71721     -27580.717     -2626.6875      3654.1976      15.4861        14.0699        16.771       
      1800   323.46817     -27619.561     -10535.228      3654.1976      15.4861        14.0699        16.771       
      1900   271.96732     -27615.767     -8336.6467      3654.1976      15.4861        14.0699        16.771       
      2000   266.82271     -27629.865     -3182.546       3654.1976      15.4861        14.0699        16.771       
      2100   256.96626     -27615.717     -7569.2678      3654.1976      15.4861        14.0699        16.771       
      2200   333.44874     -27616.894      5760.0922      3654.1976      15.4861        14.0699        16.771       
      2300   384.95237     -27649.241     -3107.24        3654.1976      15.4861        14.0699        16.771       
      2400   315.08913     -27614.423     -8150.6808      3654.1976      15.4861        14.0699        16.771       
      2500   331.4672      -27615.97      -14200.942      3654.1976      15.4861        14.0699        16.771       
      2600   323.93914     -27559.509     -10838.542      3654.1976      15.4861        14.0699        16.771       
      2700   310.65233     -27556.311     -9711.4586      3654.1976      15.4861        14.0699        16.771       
      2800   296.64703     -27474.119     -6386.9982      3654.1976      15.4861        14.0699        16.771       
      2900   387.81402     -27441.916     -1409.5307      3654.1976      15.4861        14.0699        16.771       
      3000   414.03605     -27528.759     -7572.2116      3654.1976      15.4861        14.0699        16.771       
      3100   427.00564     -27570.87      -13930.795      3654.1976      15.4861        14.0699        16.771       
      3200   396.759       -27602.843     -8140.8708      3654.1976      15.4861        14.0699        16.771       
      3300   371.32963     -27633.453     -16688.88       3654.1976      15.4861        14.0699        16.771       
      3400   324.12911     -27604.443     -24339.023      3654.1976      15.4861        14.0699        16.771       
      3500   463.28763     -27720.108     -20064.731      3654.1976      15.4861        14.0699        16.771       
      3600   334.75217     -27650.879     -23202.258      3654.1976      15.4861        14.0699        16.771       
      3700   363.43941     -27703.363     -27987.681      3654.1976      15.4861        14.0699        16.771       
      3800   371.47562     -27725.009     -2085.7012      3654.1976      15.4861        14.0699        16.771       
      3900   316.43311     -27668.382     -20685.417      3654.1976      15.4861        14.0699        16.771       
      4000   351.8846      -27750.692     -19527.231      3654.1976      15.4861        14.0699        16.771       
      4100   359.7885      -27779.655     -9862.9127      3654.1976      15.4861        14.0699        16.771       
      4200   335.66469     -27780.653     -2740.7143      3654.1976      15.4861        14.0699        16.771       
      4300   325.97243     -27793.065     -21.305517      3654.1976      15.4861        14.0699        16.771       
      4400   301.76473     -27740.682     -12900.085      3654.1976      15.4861        14.0699        16.771       
      4500   331.66705     -27776.727     -23884.607      3654.1976      15.4861        14.0699        16.771       
      4600   348.83632     -27808.216     -27048.753      3654.1976      15.4861        14.0699        16.771       
      4700   296.49948     -27805.115     -3185.4719      3654.1976      15.4861        14.0699        16.771       
      4800   317.63868     -27756.364      11572.06       3654.1976      15.4861        14.0699        16.771       
      4900   361.85605     -27827.631     -9860.1919      3654.1976      15.4861        14.0699        16.771       
      5000   308.31641     -27802         -15029.892      3654.1976      15.4861        14.0699        16.771       
Loop time of 192.409 on 16 procs for 5000 steps with 274 atoms

Performance: 1.123 ns/day, 21.379 hours/ns, 25.986 timesteps/s, 7.120 katom-step/s
99.2% CPU use with 8 MPI tasks x 2 OpenMP threads

MPI task timing breakdown:
Section |  min time  |  avg time  |  max time  |%varavg| %total
---------------------------------------------------------------
Pair    | 138.14     | 140.82     | 142.23     |  13.6 | 73.19
Bond    | 0.0013643  | 0.0017155  | 0.0020636  |   0.5 |  0.00
Neigh   | 12.351     | 12.589     | 12.722     |   2.8 |  6.54
Comm    | 17.557     | 19.118     | 22.019     |  37.2 |  9.94
Output  | 0.025241   | 0.030478   | 0.034492   |   1.9 |  0.02
Modify  | 18.33      | 18.66      | 18.834     |   3.8 |  9.70
Other   |            | 1.195      |            |       |  0.62

Nlocal:          34.25 ave          41 max          21 min
Histogram: 1 0 0 0 0 1 2 1 1 2
Nghost:        3762.62 ave        3827 max        3687 min
Histogram: 1 1 0 1 0 1 1 1 0 2
Neighs:          17961 ave       21514 max       11283 min
Histogram: 1 0 0 0 0 2 1 2 0 2

Total # of neighbors = 143688
Ave neighs/atom = 524.40876
Ave special neighs/atom = 0
Neighbor list builds = 500
Dangerous builds not checked
  using 2 OpenMP thread(s) per MPI task
Reading restart file ...
  restart file = 2 Aug 2023, LAMMPS = 2 Aug 2023
  restoring atom style full from restart
  triclinic box = (0 0 0) to (15.4861 14.0699 16.771) with tilt (-7.3915 0.9919 1.0308)
WARNING: Triclinic box skew is large. LAMMPS will run inefficiently. (src/domain.cpp:220)
  2 by 2 by 2 MPI processor grid
  pair style reaxff stores no restart info
  274 atoms
Finding 1-2 1-3 1-4 neighbors ...
  special bond factors lj:    0        0        0       
  special bond factors coul:  0        0        0       
     0 = max # of 1-2 neighbors
     0 = max # of 1-3 neighbors
     0 = max # of 1-4 neighbors
     1 = max # of special neighbors
  special bonds CPU = 0.000 seconds
  read_restart CPU = 0.003 seconds
*****Positive-deform 5 starts.*****
WARNING: Van der Waals parameters for element SI indicate inner wall+shielding, but earlier atoms indicate a different van der Waals method. This may cause division-by-zero errors. Keeping van der Waals setting for earlier atoms. (src/REAXFF/reaxff_ffield.cpp:251)
Resetting global fix info from restart file:
  fix style: nvt, fix ID: fnvt
All restart file global fix info was re-assigned
Unused restart file peratom fix info:
  fix style: STORE/ATOM, fix ID: msd1_COMPUTE_STORE
Neighbor list info ...
  update: every = 10 steps, delay = 0 steps, check = no
  max neighbors/atom: 2000, page size: 100000
  master list distance cutoff = 12
  ghost atom cutoff = 12
  binsize = 6, bins = 4 3 3
  2 neighbor lists, perpetual/occasional/extra = 2 0 0
  (1) pair reaxff, perpetual
      attributes: half, newton off, ghost
      pair build: half/bin/newtoff/ghost
      stencil: full/ghost/bin/3d
      bin: standard
  (2) fix qeq/reaxff, perpetual, copy from (1)
      attributes: half, newton off
      pair build: copy
      stencil: none
      bin: none
Setting up Verlet run ...
  Unit style    : real
  Current step  : 0
  Time step     : 0.5
Per MPI rank memory allocation (min/avg/max) = 105.8 | 107.1 | 108.3 Mbytes
   Step          Temp          PotEng         Press          Volume           Lx             Ly             Lz      
         0   296.88543     -27536.878     -1744.3564      3654.1976      15.4861        14.0699        16.771       
       100   345.13392     -27575.772      9922.5678      3654.1976      15.4861        14.0699        16.771       
       200   345.2993      -27554.765     -9853.202       3654.1976      15.4861        14.0699        16.771       
       300   313.77633     -27509.74      -9714.8704      3654.1976      15.4861        14.0699        16.771       
       400   279.17115     -27489.935     -6852.1927      3654.1976      15.4861        14.0699        16.771       
       500   339.88032     -27503.773     -8673.3019      3654.1976      15.4861        14.0699        16.771       
       600   343.38418     -27562.287      1690.7693      3654.1976      15.4861        14.0699        16.771       
       700   368.84239     -27625.101     -5949.0757      3654.1976      15.4861        14.0699        16.771       
       800   360.10592     -27609.739     -10178.778      3654.1976      15.4861        14.0699        16.771       
       900   376.99531     -27648.254     -12460.397      3654.1976      15.4861        14.0699        16.771       
      1000   380.40456     -27640.125      2172.427       3654.1976      15.4861        14.0699        16.771       
      1100   444.19856     -27649.543     -2079.6186      3654.1976      15.4861        14.0699        16.771       
      1200   347.66278     -27608.095      6890.245       3654.1976      15.4861        14.0699        16.771       
      1300   391.1803      -27714.841      322.51979      3654.1976      15.4861        14.0699        16.771       
      1400   362.80663     -27632.991      8500.0233      3654.1976      15.4861        14.0699        16.771       
      1500   339.14827     -27657.248     -7972.731       3654.1976      15.4861        14.0699        16.771       
      1600   423.98721     -27714.804     -14196.348      3654.1976      15.4861        14.0699        16.771       
      1700   406.01924     -27670.39      -3181.3031      3654.1976      15.4861        14.0699        16.771       
      1800   370.06771     -27709.53      -913.48362      3654.1976      15.4861        14.0699        16.771       
      1900   313.35148     -27698.474     -5568.713       3654.1976      15.4861        14.0699        16.771       
      2000   279.32395     -27702.183     -1535.0128      3654.1976      15.4861        14.0699        16.771       
      2100   347.22378     -27760.326     -17035.07       3654.1976      15.4861        14.0699        16.771       
      2200   338.2541      -27748.6       -11270.347      3654.1976      15.4861        14.0699        16.771       
      2300   310.57164     -27774.242     -3796.3782      3654.1976      15.4861        14.0699        16.771       
      2400   272.85407     -27760.871     -2255.2633      3654.1976      15.4861        14.0699        16.771       
      2500   300.08394     -27746.404     -6590.568       3654.1976      15.4861        14.0699        16.771       
      2600   286.98915     -27708.771     -11490.895      3654.1976      15.4861        14.0699        16.771       
      2700   317.95899     -27729.27      -6373.011       3654.1976      15.4861        14.0699        16.771       
      2800   394.39994     -27762.076     -13155.692      3654.1976      15.4861        14.0699        16.771       
      2900   365.06318     -27723.813     -5149.3319      3654.1976      15.4861        14.0699        16.771       
      3000   336.28387     -27705.379      2150.9498      3654.1976      15.4861        14.0699        16.771       
      3100   412.25322     -27754.038      3610.396       3654.1976      15.4861        14.0699        16.771       
      3200   388.42255     -27781.306     -7198.0146      3654.1976      15.4861        14.0699        16.771       
      3300   348.94849     -27772.615     -3767.5694      3654.1976      15.4861        14.0699        16.771       
      3400   323.11856     -27810.938     -9121.23        3654.1976      15.4861        14.0699        16.771       
      3500   340.28139     -27825.946     -14817.259      3654.1976      15.4861        14.0699        16.771       
      3600   364.007       -27833.52      -12670.293      3654.1976      15.4861        14.0699        16.771       
      3700   328.98618     -27803.235     -17981.524      3654.1976      15.4861        14.0699        16.771       
      3800   300.76225     -27775.068     -28065.685      3654.1976      15.4861        14.0699        16.771       
      3900   331.72014     -27748.864     -21712.657      3654.1976      15.4861        14.0699        16.771       
      4000   389.16147     -27771.375     -11286.554      3654.1976      15.4861        14.0699        16.771       
      4100   401.1483      -27801.645     -8671.7751      3654.1976      15.4861        14.0699        16.771       
      4200   345.98514     -27797.692     -5137.3396      3654.1976      15.4861        14.0699        16.771       
      4300   333.30226     -27791.421     -7795.7216      3654.1976      15.4861        14.0699        16.771       
      4400   385.21513     -27802.782     -4221.8231      3654.1976      15.4861        14.0699        16.771       
      4500   375.29462     -27732.393     -10346.271      3654.1976      15.4861        14.0699        16.771       
      4600   344.62969     -27718.985     -14004.647      3654.1976      15.4861        14.0699        16.771       
      4700   421.40108     -27786.347     -16355.015      3654.1976      15.4861        14.0699        16.771       
      4800   311.21739     -27698.69      -20571.683      3654.1976      15.4861        14.0699        16.771       
      4900   321.00557     -27728.39      -13734.214      3654.1976      15.4861        14.0699        16.771       
      5000   308.01538     -27739.714     -23950.549      3654.1976      15.4861        14.0699        16.771       
Loop time of 184.246 on 16 procs for 5000 steps with 274 atoms

Performance: 1.172 ns/day, 20.472 hours/ns, 27.138 timesteps/s, 7.436 katom-step/s
99.1% CPU use with 8 MPI tasks x 2 OpenMP threads

MPI task timing breakdown:
Section |  min time  |  avg time  |  max time  |%varavg| %total
---------------------------------------------------------------
Pair    | 131.05     | 136.04     | 140.22     |  30.2 | 73.84
Bond    | 0.0014017  | 0.00177    | 0.0023068  |   0.6 |  0.00
Neigh   | 10.663     | 10.869     | 11.137     |   5.3 |  5.90
Comm    | 13.288     | 17.647     | 22.483     |  83.7 |  9.58
Output  | 0.021386   | 0.023872   | 0.02636    |   1.1 |  0.01
Modify  | 18.01      | 18.573     | 18.932     |   7.3 | 10.08
Other   |            | 1.09       |            |       |  0.59

Nlocal:          34.25 ave          43 max          17 min
Histogram: 1 0 0 0 0 0 4 1 0 2
Nghost:         3188.5 ave        3254 max        3119 min
Histogram: 1 0 0 2 1 0 2 1 0 1
Neighs:        17897.6 ave       22053 max        9178 min
Histogram: 1 0 0 0 0 0 3 2 0 2

Total # of neighbors = 143181
Ave neighs/atom = 522.55839
Ave special neighs/atom = 0
Neighbor list builds = 500
Dangerous builds not checked
  using 2 OpenMP thread(s) per MPI task
Reading restart file ...
  restart file = 2 Aug 2023, LAMMPS = 2 Aug 2023
  restoring atom style full from restart
  triclinic box = (0 0 0) to (15.4861 14.0699 16.771) with tilt (-7.3915 0.9919 1.0308)
WARNING: Triclinic box skew is large. LAMMPS will run inefficiently. (src/domain.cpp:220)
  2 by 2 by 2 MPI processor grid
  pair style reaxff stores no restart info
  274 atoms
Finding 1-2 1-3 1-4 neighbors ...
  special bond factors lj:    0        0        0       
  special bond factors coul:  0        0        0       
     0 = max # of 1-2 neighbors
     0 = max # of 1-3 neighbors
     0 = max # of 1-4 neighbors
     1 = max # of special neighbors
  special bonds CPU = 0.000 seconds
  read_restart CPU = 0.004 seconds
*****Positive-deform 6 starts.*****
WARNING: Van der Waals parameters for element SI indicate inner wall+shielding, but earlier atoms indicate a different van der Waals method. This may cause division-by-zero errors. Keeping van der Waals setting for earlier atoms. (src/REAXFF/reaxff_ffield.cpp:251)
Resetting global fix info from restart file:
  fix style: nvt, fix ID: fnvt
All restart file global fix info was re-assigned
Unused restart file peratom fix info:
  fix style: STORE/ATOM, fix ID: msd1_COMPUTE_STORE
Neighbor list info ...
  update: every = 10 steps, delay = 0 steps, check = no
  max neighbors/atom: 2000, page size: 100000
  master list distance cutoff = 12
  ghost atom cutoff = 12
  binsize = 6, bins = 4 3 3
  2 neighbor lists, perpetual/occasional/extra = 2 0 0
  (1) pair reaxff, perpetual
      attributes: half, newton off, ghost
      pair build: half/bin/newtoff/ghost
      stencil: full/ghost/bin/3d
      bin: standard
  (2) fix qeq/reaxff, perpetual, copy from (1)
      attributes: half, newton off
      pair build: copy
      stencil: none
      bin: none
Setting up Verlet run ...
  Unit style    : real
  Current step  : 0
  Time step     : 0.5
Per MPI rank memory allocation (min/avg/max) = 105.8 | 107.1 | 108.3 Mbytes
   Step          Temp          PotEng         Press          Volume           Lx             Ly             Lz      
         0   296.88543     -27536.878     -1744.3564      3654.1976      15.4861        14.0699        16.771       
       100   343.26385     -27576.332      10665.979      3654.1976      15.4861        14.0699        16.771       
       200   355.89637     -27525.278     -4925.8917      3654.1976      15.4861        14.0699        16.771       
       300   386.98923     -27508.41      -5936.8371      3654.1976      15.4861        14.0699        16.771       
       400   367.36035     -27466.985      7944.7127      3654.1976      15.4861        14.0699        16.771       
       500   399.12269     -27522.48      -9222.7051      3654.1976      15.4861        14.0699        16.771       
       600   435.02024     -27526.797     -6693.6289      3654.1976      15.4861        14.0699        16.771       
       700   406.88734     -27585.564     -2812.6533      3654.1976      15.4861        14.0699        16.771       
       800   356.68456     -27589.035      7663.7135      3654.1976      15.4861        14.0699        16.771       
       900   422.77521     -27623.344      7997.5342      3654.1976      15.4861        14.0699        16.771       
      1000   378.15723     -27562.802     -1751.8848      3654.1976      15.4861        14.0699        16.771       
      1100   468.12585     -27544.768     -6715.8654      3654.1976      15.4861        14.0699        16.771       
      1200   376.38203     -27487.31      -13790.425      3654.1976      15.4861        14.0699        16.771       
      1300   335.55475     -27472.931     -3764.6506      3654.1976      15.4861        14.0699        16.771       
      1400   368.49754     -27533.997     -3391.078       3654.1976      15.4861        14.0699        16.771       
      1500   322.46596     -27538.422      727.52925      3654.1976      15.4861        14.0699        16.771       
      1600   315.14725     -27510.786     -14262.555      3654.1976      15.4861        14.0699        16.771       
      1700   331.39902     -27542.063     -11372.223      3654.1976      15.4861        14.0699        16.771       
      1800   287.1791      -27522.852     -355.32538      3654.1976      15.4861        14.0699        16.771       
      1900   359.16681     -27533.568     -4485.1504      3654.1976      15.4861        14.0699        16.771       
      2000   377.90127     -27476.796     -1138.9556      3654.1976      15.4861        14.0699        16.771       
      2100   355.38409     -27468.595     -6533.929       3654.1976      15.4861        14.0699        16.771       
      2200   359.7062      -27474.418     -12077.256      3654.1976      15.4861        14.0699        16.771       
      2300   384.0475      -27486.513     -10587.487      3654.1976      15.4861        14.0699        16.771       
      2400   408.80171     -27512.021     -8362.7629      3654.1976      15.4861        14.0699        16.771       
      2500   351.6645      -27504.372     -13668.378      3654.1976      15.4861        14.0699        16.771       
      2600   274.48974     -27413.101     -9013.3277      3654.1976      15.4861        14.0699        16.771       
      2700   265.24284     -27399.681     -13540.171      3654.1976      15.4861        14.0699        16.771       
      2800   353.91672     -27445.242     -16398.256      3654.1976      15.4861        14.0699        16.771       
      2900   367.24933     -27470.62      -20749.557      3654.1976      15.4861        14.0699        16.771       
      3000   345.37395     -27412.72      -24415.733      3654.1976      15.4861        14.0699        16.771       
      3100   306.20429     -27440.856     -8487.0202      3654.1976      15.4861        14.0699        16.771       
      3200   328.90386     -27442.45      -16014.575      3654.1976      15.4861        14.0699        16.771       
      3300   322.95784     -27376.951     -8808.5566      3654.1976      15.4861        14.0699        16.771       
      3400   353.05332     -27405.741     -34.299465      3654.1976      15.4861        14.0699        16.771       
      3500   329.58389     -27340.603     -13086.809      3654.1976      15.4861        14.0699        16.771       
      3600   315.6126      -27336.772     -18955.163      3654.1976      15.4861        14.0699        16.771       
      3700   334.33433     -27322.655     -22610.358      3654.1976      15.4861        14.0699        16.771       
      3800   448.35098     -27373.14      -6777.5811      3654.1976      15.4861        14.0699        16.771       
      3900   427.88533     -27425.078      907.64717      3654.1976      15.4861        14.0699        16.771       
      4000   489.95725     -27500.298     -15044.392      3654.1976      15.4861        14.0699        16.771       
      4100   398.0281      -27424.57      -9523.0981      3654.1976      15.4861        14.0699        16.771       
      4200   425.33673     -27493.052     -10731.999      3654.1976      15.4861        14.0699        16.771       
      4300   346.03753     -27458.142     -14523.608      3654.1976      15.4861        14.0699        16.771       
      4400   365.205       -27499.932     -2246.5946      3654.1976      15.4861        14.0699        16.771       
      4500   333.41751     -27491.517     -14643.945      3654.1976      15.4861        14.0699        16.771       
      4600   345.23845     -27480.746     -7617.4137      3654.1976      15.4861        14.0699        16.771       
      4700   468.0029      -27458.868     -4864.6966      3654.1976      15.4861        14.0699        16.771       
      4800   367.1315      -27434.938     -20791.341      3654.1976      15.4861        14.0699        16.771       
      4900   357.50755     -27507.974     -21947.399      3654.1976      15.4861        14.0699        16.771       
      5000   360.22522     -27454.957     -12397.321      3654.1976      15.4861        14.0699        16.771       
Loop time of 171.037 on 16 procs for 5000 steps with 274 atoms

Performance: 1.263 ns/day, 19.004 hours/ns, 29.233 timesteps/s, 8.010 katom-step/s
99.3% CPU use with 8 MPI tasks x 2 OpenMP threads

MPI task timing breakdown:
Section |  min time  |  avg time  |  max time  |%varavg| %total
---------------------------------------------------------------
Pair    | 119.4      | 124.29     | 127.87     |  27.5 | 72.67
Bond    | 0.0014341  | 0.0017651  | 0.002234   |   0.6 |  0.00
Neigh   | 9.673      | 9.935      | 10.077     |   3.7 |  5.81
Comm    | 14.177     | 17.625     | 22.363     |  72.4 | 10.31
Output  | 0.023014   | 0.027162   | 0.030794   |   1.6 |  0.02
Modify  | 17.742     | 18.051     | 18.466     |   5.2 | 10.55
Other   |            | 1.102      |            |       |  0.64

Nlocal:          34.25 ave          41 max          25 min
Histogram: 2 1 0 0 0 0 1 0 1 3
Nghost:        2746.62 ave        2790 max        2710 min
Histogram: 2 2 0 0 0 1 0 1 0 2
Neighs:        17790.9 ave       21088 max       13336 min
Histogram: 2 1 0 0 0 0 0 2 0 3

Total # of neighbors = 142327
Ave neighs/atom = 519.44161
Ave special neighs/atom = 0
Neighbor list builds = 500
Dangerous builds not checked
Total wall time: 0:18:12
