LAMMPS (2 Aug 2023 - Update 2)
  using 1 OpenMP thread(s) per MPI task
# Initialization
units           real
dimension       3
boundary        p p p
atom_style      full
timestep        0.5   # fs

variable       nevery equal 1000
variable       nrepeat equal 1
variable       nfreq equal ${nevery}*${nrepeat}
variable       nfreq equal 1000*${nrepeat}
variable       nfreq equal 1000*1
variable       nthermo equal ${nfreq}/10
variable       nthermo equal 1000/10
variable       nrun equal 1200*${nthermo}          # stpes of equilibrated run 1000 (30 min)
variable       nrun equal 1200*100          

variable temp equal 300.0                # temperature of initial sample
variable tdamp equal 50.0                 # time constant for thermostat
variable seed equal 123456                # seed for thermostat
variable ufac equal 1.01325e-4         # pressure unit conversion, from atm to Gpa
variable up equal .6                  # the deformation magnitude 0.01

variable FF string "SiOCHN_2018.ff C H O Si"   # force field args for pair_coeff
# pair_coeff * * CHONSSi.ff O Si
# pair_coeff * * CHOSiNa.ff O Si
# 2019: pair_coeff * * SiOCHN_2018.ff C H O Si
# pair_coeff * * PDMSDecomp.ff Si O
# 2020: pair_coeff * * CHONSi.ff C H O Si
# pair_coeff * * CHOFe.ff O Si
variable structure string 333-RV-32-vasp

# Read the initial sctructure
# box tilt large
read_data       ${structure}.data
read_data       333-RV-32-vasp.data
Reading data file ...
  triclinic box = (0 0 0) to (15.7087 13.0868 17.5248) with tilt (-8.2042 -0.1458 -2.0056)
WARNING: Triclinic box skew is large. LAMMPS will run inefficiently. (src/domain.cpp:220)
  2 by 2 by 2 MPI processor grid
  reading atoms ...
  331 atoms
Finding 1-2 1-3 1-4 neighbors ...
  special bond factors lj:    0        0        0       
  special bond factors coul:  0        0        0       
     0 = max # of 1-2 neighbors
     0 = max # of 1-3 neighbors
     0 = max # of 1-4 neighbors
     1 = max # of special neighbors
  special bonds CPU = 0.001 seconds
  read_data CPU = 0.009 seconds

# Assign the force field
pair_style reaxff NULL safezone 3.0 mincap 150
pair_coeff * * ${FF}
pair_coeff * * SiOCHN_2018.ff C H O Si
WARNING: Van der Waals parameters for element SI indicate inner wall+shielding, but earlier atoms indicate a different van der Waals method. This may cause division-by-zero errors. Keeping van der Waals setting for earlier atoms. (src/REAXFF/reaxff_ffield.cpp:251)
# charge method for reaxff
fix myqeq all qeq/reaxff 1 0.0 10.0 1.0e-6 reaxff maxiter 400

# # Energy minimization
# print "*****Minimization starts.*****"
# dump dump_opt all custom 1 dump/dump_opt.lammpstrj id type q x y z
# minimize 1.0e-6 1.0e-6 100 1000
# min_style cg
# # Save the optimized structure
# write_data ${structure}_opt.data
# undump dump_opt
# unfix bondinfo

velocity        all create ${temp} ${seed} dist gaussian
velocity        all create 300 ${seed} dist gaussian
velocity        all create 300 123456 dist gaussian

# # Equilibration
# variable       nequil equal 10*${nthermo}  # 2000: 100 ps
# include ff.mod.lmp
# if "$(is_defined(fix,avgp))" then "unfix avgp"
# if "$(is_defined(fix,avgl))" then "unfix avgl"
# thermo_style custom step temp pe press density vol
# dump dump_eq all custom ${nthermo} dump/dump_eq.lammpstrj id type q x y z

# run ${nequil}
# # Save the equilibrated structure
# write_data ${structure}_eq.data
# undump dump_eq

# use tmp to save initial length and tilt
variable tmp equal lx
variable lx0 equal ${tmp}
variable lx0 equal 15.7087
variable tmp equal ly
variable ly0 equal ${tmp}
variable ly0 equal 13.0868
variable tmp equal lz
variable lz0 equal ${tmp}
variable lz0 equal 17.5248

variable tmp equal yz
variable yz0 equal ${tmp}
variable yz0 equal -2.0056
variable tmp equal xz
variable xz0 equal ${tmp}
variable xz0 equal -0.1458
variable tmp equal xy
variable xy0 equal ${tmp}
variable xy0 equal -8.2042

# velocity all create ${temp} ${seed} dist gaussian
# Write restart
write_restart equil.res
System init for write_restart ...
WARNING: Fix qeq/reaxff group is not charge neutral, net charge = 27.88 (src/REAXFF/fix_qeq_reaxff.cpp:392)
Neighbor list info ...
  update: every = 1 steps, delay = 0 steps, check = yes
  max neighbors/atom: 2000, page size: 100000
  master list distance cutoff = 12
  ghost atom cutoff = 12
  binsize = 6, bins = 5 3 3
  2 neighbor lists, perpetual/occasional/extra = 2 0 0
  (1) pair reaxff, perpetual
      attributes: half, newton off, ghost
      pair build: half/bin/newtoff/ghost
      stencil: full/ghost/bin/3d
      bin: standard
  (2) fix qeq/reaxff, perpetual, copy from (1)
      attributes: half, newton off
      pair build: copy
      stencil: none
      bin: none

# uzz Perturbation
variable dir equal 3
include displace.mod.lmp
# Find which length (epsilon) to calculate
if "${dir} == 1" then    "variable len0 equal ${lx0}"    "variable dlen equal lx-${len0}"
if "${dir} == 2" then    "variable len0 equal ${ly0}"    "variable dlen equal ly-${len0}"
if "${dir} == 3" then    "variable len0 equal ${lz0}"    "variable dlen equal lz-${len0}"
variable len0 equal ${lz0}
variable len0 equal 17.5248
variable dlen equal lz-${len0}
variable dlen equal lz-17.5248
if "${dir} == 4" then    "variable len0 equal ${lx0}"    "variable dlen equal 2*(yz-${yz0})"
if "${dir} == 5" then    "variable len0 equal ${ly0}"    "variable dlen equal 2*(xz-${xz0})"
if "${dir} == 6" then    "variable len0 equal ${lz0}"    "variable dlen equal 2*(xy-${xy0})"

# strain vector (epsilon)
variable eps equal v_dlen/v_len0

# stress vector (sigma)
variable sig1 equal -f_avgp[1]*${ufac}
variable sig1 equal -f_avgp[1]*0.000101325
variable sig2 equal -f_avgp[2]*${ufac}
variable sig2 equal -f_avgp[2]*0.000101325
variable sig3 equal -f_avgp[3]*${ufac}
variable sig3 equal -f_avgp[3]*0.000101325
variable sig4 equal -f_avgp[6]*${ufac}
variable sig4 equal -f_avgp[6]*0.000101325
variable sig5 equal -f_avgp[5]*${ufac}
variable sig5 equal -f_avgp[5]*0.000101325
variable sig6 equal -f_avgp[4]*${ufac}
variable sig6 equal -f_avgp[4]*0.000101325

# Reset box and simulation parameters
clear
  using 1 OpenMP thread(s) per MPI task
# box tilt large
read_restart equil.res
Reading restart file ...
  restart file = 2 Aug 2023, LAMMPS = 2 Aug 2023
  restoring atom style full from restart
  triclinic box = (0 0 0) to (15.7087 13.0868 17.5248) with tilt (-8.2042 -0.1458 -2.0056)
WARNING: Triclinic box skew is large. LAMMPS will run inefficiently. (src/domain.cpp:220)
  2 by 2 by 2 MPI processor grid
  pair style reaxff stores no restart info
  331 atoms
Finding 1-2 1-3 1-4 neighbors ...
  special bond factors lj:    0        0        0       
  special bond factors coul:  0        0        0       
     0 = max # of 1-2 neighbors
     0 = max # of 1-3 neighbors
     0 = max # of 1-4 neighbors
     1 = max # of special neighbors
  special bonds CPU = 0.000 seconds
  read_restart CPU = 0.004 seconds

# Positive deformation
variable delta equal ${up}*${len0}
variable delta equal 0.6*${len0}
variable delta equal 0.6*17.5248
variable deltaxy equal ${up}*xy
variable deltaxy equal 0.6*xy
variable deltaxz equal ${up}*xz
variable deltaxz equal 0.6*xz
variable deltayz equal ${up}*yz
variable deltayz equal 0.6*yz
if "${dir} == 1" then    "fix deform_p all deform ${nthermo} x delta 0 ${delta} xy delta ${deltaxy} xz delta ${deltaxz} remap v units box flip no"
if "${dir} == 2" then    "fix deform_p all deform ${nthermo} y delta 0 ${delta} yz delta ${deltayz} remap v units box flip no"
if "${dir} == 3" then    "fix deform_p all deform ${nthermo} z delta 0 ${delta} remap v units box"
fix deform_p all deform ${nthermo} z delta 0 ${delta} remap v units box
fix deform_p all deform 100 z delta 0 ${delta} remap v units box
fix deform_p all deform 100 z delta 0 10.51488 remap v units box
if "${dir} == 4" then    "fix deform_p all deform ${nthermo} yz delta ${delta} remap v units box flip no"
if "${dir} == 5" then    "fix deform_p all deform ${nthermo} xz delta ${delta} remap v units box flip no"
if "${dir} == 6" then    "fix deform_p all deform ${nthermo} xy delta ${delta} remap v units box flip no"

# Run deformation MD
print "*****Positive-deform ${dir} starts.*****"
*****Positive-deform 3 starts.*****
# Save bond information
fix bondinfo all reaxff/bonds ${nthermo} bonds/bonds.pos${dir}.reaxff
fix bondinfo all reaxff/bonds 100 bonds/bonds.pos${dir}.reaxff
fix bondinfo all reaxff/bonds 100 bonds/bonds.pos3.reaxff
# Reset neighbor style
neighbor        2 bin
neigh_modify    every 10 delay 0 check no

include ff.mod.lmp
# Setup forcefield, system
# undefine any fix ave/* fix before using reset_timestep
if "$(is_defined(fix,avgp))" then "unfix avgp"
if "$(is_defined(fix,avgl))" then "unfix avgl"
reset_timestep 0

# Assign the force field
pair_style reaxff NULL safezone 3.0 mincap 150
pair_coeff * * ${FF}
pair_coeff * * SiOCHN_2018.ff C H O Si
WARNING: Van der Waals parameters for element SI indicate inner wall+shielding, but earlier atoms indicate a different van der Waals method. This may cause division-by-zero errors. Keeping van der Waals setting for earlier atoms. (src/REAXFF/reaxff_ffield.cpp:251)

# charge method for reaxff
fix myqeq all qeq/reaxff 1 0.0 10.0 1.0e-6 reaxff maxiter 400
# fix bondinfo all reaxff/bonds ${nthermo} bonds.reaxff
# Setup neighbor style
neighbor        2 bin
neigh_modify    every 10 delay 0 check no

# Setup output
thermo		${nthermo}
thermo		100
thermo_style custom step temp press vol lz density
# thermo_style custom step vol lx ly lz yz xz xy
thermo_modify norm no
# thermo_modify line multi

# Sample pressure (and length vector)
fix avgp all ave/time  ${nevery} ${nrepeat} ${nfreq} c_thermo_press mode vector
fix avgp all ave/time  1000 ${nrepeat} ${nfreq} c_thermo_press mode vector
fix avgp all ave/time  1000 1 ${nfreq} c_thermo_press mode vector
fix avgp all ave/time  1000 1 1000 c_thermo_press mode vector
# fix avgp all ave/time  10 10 ${nthermo} c_thermo_press mode vector
# variable lx equal lx
# variable ly equal ly
# variable lz equal lz
# fix avgl all ave/time  ${nevery} ${nrepeat} ${nfreq} v_lx v_ly v_lz

# nvt
fix fnvt all nvt temp ${temp} ${temp} ${tdamp}
fix fnvt all nvt temp 300 ${temp} ${tdamp}
fix fnvt all nvt temp 300 300 ${tdamp}
fix fnvt all nvt temp 300 300 50


# Save stress, strain to "./stress_strain/stress_strain.pos${dir}.out"
print "# Stress and strain vectors, ${structure}, positive deformation ${dir}"       file stress_strain/stress_strain.pos${dir}.out screen no
print "# Stress and strain vectors, ${structure}, positive deformation ${dir}"       file stress_strain/stress_strain.pos3.out screen no
fix data all print ${nfreq} "${eps} ${sig1} ${sig2} ${sig3} ${sig4} ${sig5} ${sig6}"       append stress_strain/stress_strain.pos${dir}.out screen no       title "# eps sig1 sig2 sig3 sig4 sig5 sig6"
fix data all print 1000 "${eps} ${sig1} ${sig2} ${sig3} ${sig4} ${sig5} ${sig6}"       append stress_strain/stress_strain.pos${dir}.out screen no       title "# eps sig1 sig2 sig3 sig4 sig5 sig6"
fix data all print 1000 "${eps} ${sig1} ${sig2} ${sig3} ${sig4} ${sig5} ${sig6}"       append stress_strain/stress_strain.pos3.out screen no       title "# eps sig1 sig2 sig3 sig4 sig5 sig6"

# compute MSD and RDF
compute msd1 all msd
fix myMSD all ave/time 10 10 ${nthermo} c_msd1[1] c_msd1[2] c_msd1[3] c_msd1[4] c_thermo_temp     file msd.out     title2 "# TimeStep MSD_X MSD_Y MSD_Z MSD_Total Temperture"
fix myMSD all ave/time 10 10 100 c_msd1[1] c_msd1[2] c_msd1[3] c_msd1[4] c_thermo_temp     file msd.out     title2 "# TimeStep MSD_X MSD_Y MSD_Z MSD_Total Temperture"
# C-C C-Si Si-O C-H Si-Si
compute rdf1 all rdf 100  1 1  1 4  3 4  1 2 cutoff 5.0
fix myRDF all ave/time ${nevery} ${nrepeat} ${nfreq} c_rdf1[*]     file rdf.out mode vector     title3 "# Row r g1(r) coor1(r) ..."
fix myRDF all ave/time 1000 ${nrepeat} ${nfreq} c_rdf1[*]     file rdf.out mode vector     title3 "# Row r g1(r) coor1(r) ..."
fix myRDF all ave/time 1000 1 ${nfreq} c_rdf1[*]     file rdf.out mode vector     title3 "# Row r g1(r) coor1(r) ..."
fix myRDF all ave/time 1000 1 1000 c_rdf1[*]     file rdf.out mode vector     title3 "# Row r g1(r) coor1(r) ..."

# save trajectory
# if "$(is_defined(dump,dump_pos${dir1}))" then "undump dump_pos${dir1}"
dump dump_pos${dir} all custom ${nthermo} dump/pos${dir}_deform.lammpstrj id type q x y z element
dump dump_pos3 all custom ${nthermo} dump/pos${dir}_deform.lammpstrj id type q x y z element
dump dump_pos3 all custom 100 dump/pos${dir}_deform.lammpstrj id type q x y z element
dump dump_pos3 all custom 100 dump/pos3_deform.lammpstrj id type q x y z element
dump_modify dump_pos${dir} element C H O Si
dump_modify dump_pos3 element C H O Si
run ${nrun}
run 120000

CITE-CITE-CITE-CITE-CITE-CITE-CITE-CITE-CITE-CITE-CITE-CITE-CITE

Your simulation uses code contributions which should be cited:

- pair reaxff command: doi:10.1016/j.parco.2011.08.005

@Article{Aktulga12,
 author = {H. M. Aktulga and J. C. Fogarty and S. A. Pandit and A. Y. Grama},
 title = {Parallel Reactive Molecular Dynamics: {N}umerical Methods and Algorithmic Techniques},
 journal = {Parallel Computing},
 year =    2012,
 volume =  38,
 number =  {4--5},
 pages =   {245--259}
}

- fix qeq/reaxff command: doi:10.1016/j.parco.2011.08.005

@Article{Aktulga12,
 author = {H. M. Aktulga and J. C. Fogarty and S. A. Pandit and A. Y. Grama},
 title = {Parallel Reactive Molecular Dynamics: {N}umerical Methods and Algorithmic Techniques},
 journal = {Parallel Computing},
 year =    2012,
 volume =  38,
 pages =   {245--259}
}

CITE-CITE-CITE-CITE-CITE-CITE-CITE-CITE-CITE-CITE-CITE-CITE-CITE

WARNING: Compute rdf cutoff less than neighbor cutoff - forcing a needless neighbor list build (src/compute_rdf.cpp:179)
WARNING: Fix qeq/reaxff group is not charge neutral, net charge = 27.88 (src/REAXFF/fix_qeq_reaxff.cpp:392)
Neighbor list info ...
  update: every = 10 steps, delay = 0 steps, check = no
  max neighbors/atom: 2000, page size: 100000
  master list distance cutoff = 12
  ghost atom cutoff = 12
  binsize = 6, bins = 5 3 3
  3 neighbor lists, perpetual/occasional/extra = 2 1 0
  (1) pair reaxff, perpetual
      attributes: half, newton off, ghost
      pair build: half/bin/newtoff/ghost
      stencil: full/ghost/bin/3d
      bin: standard
  (2) compute rdf, occasional
      attributes: half, newton on, cut 7
      pair build: half/bin/newton/tri
      stencil: half/bin/3d/tri
      bin: standard
  (3) fix qeq/reaxff, perpetual, copy from (1)
      attributes: half, newton off
      pair build: copy
      stencil: none
      bin: none
Per MPI rank memory allocation (min/avg/max) = 133.7 | 135.2 | 136.3 Mbytes
   Step          Temp          Press          Volume           Lz          Density    
         0   300            173356.49      3602.6891      17.5248        1.400369     
       100   1445.0522      24717.985      3604.4904      17.533562      1.3996691    
       200   792.47011      25374.432      3606.2918      17.542325      1.39897      
       300   550.56709      18266.16       3608.0931      17.551087      1.3982716    
       400   454.39133     -2864.4331      3609.8944      17.55985       1.3975738    
       500   330.27811      1982.601       3611.6958      17.568612      1.3968768    
       600   298.66567     -3053.0521      3613.4971      17.577374      1.3961804    
       700   273.09212      7253.4905      3615.2985      17.586137      1.3954848    
       800   252.81499      2361.3424      3617.0998      17.594899      1.3947898    
       900   279.89245     -2784.5699      3618.9012      17.603662      1.3940956    
      1000   319.76812      14243.114      3620.7025      17.612424      1.393402     
      1100   336.61598      3658.0844      3622.5039      17.621186      1.3927091    
      1200   291.6016       9163.0732      3624.3052      17.629949      1.3920169    
      1300   341.18598      5039.2911      3626.1065      17.638711      1.3913254    
      1400   286.80354      723.91579      3627.9079      17.647474      1.3906345    
      1500   301.54672      2831.1322      3629.7092      17.656236      1.3899444    
      1600   318.56468      9329.921       3631.5106      17.664998      1.3892549    
      1700   288.21217      4471.6476      3633.3119      17.673761      1.3885662    
      1800   330.50115      3840.9854      3635.1133      17.682523      1.3878781    
      1900   299.41611      14358.408      3636.9146      17.691286      1.3871907    
      2000   293.68719     -4765.3385      3638.716       17.700048      1.3865039    
      2100   288.18199     -454.20979      3640.5173      17.70881       1.3858179    
      2200   297.45918      8161.1188      3642.3186      17.717573      1.3851325    
      2300   323.32329      3960.9108      3644.12        17.726335      1.3844478    
      2400   284.59053      3143.2865      3645.9213      17.735098      1.3837638    
      2500   284.66289     -1578.1353      3647.7227      17.74386       1.3830805    
      2600   304.00532      5598.1394      3649.524       17.752622      1.3823978    
      2700   317.75302     -7823.1998      3651.3254      17.761385      1.3817158    
      2800   339.00988     -1202.89        3653.1267      17.770147      1.3810345    
      2900   331.15911      6687.9773      3654.9281      17.77891       1.3803539    
      3000   255.47302      3348.9582      3656.7294      17.787672      1.3796739    
      3100   247.34905      509.01764      3658.5307      17.796434      1.3789946    
      3200   274.93817      8865.4283      3660.3321      17.805197      1.3783159    
      3300   379.18942      9520.036       3662.1334      17.813959      1.377638     
      3400   286.28509      3973.9433      3663.9348      17.822722      1.3769607    
      3500   267.9843       1295.6466      3665.7361      17.831484      1.376284     
      3600   278.93563      376.66252      3667.5375      17.840246      1.375608     
      3700   258.4306      -2679.9859      3669.3388      17.849009      1.3749327    
      3800   336.83755     -558.83093      3671.1402      17.857771      1.3742581    
      3900   390.78557      6290.4651      3672.9415      17.866534      1.3735841    
      4000   325.86241     -935.74769      3674.7428      17.875296      1.3729108    
      4100   328.00421      11017.707      3676.5442      17.884058      1.3722381    
      4200   268.18622     -1006.2838      3678.3455      17.892821      1.3715661    
      4300   255.02524      4652.1107      3680.1469      17.901583      1.3708947    
      4400   294.57356     -3163.6421      3681.9482      17.910346      1.3702241    
      4500   363.77549      3972.7172      3683.7496      17.919108      1.369554     
      4600   337.92702     -1270.9849      3685.5509      17.92787       1.3688846    
      4700   271.47133      14042.43       3687.3523      17.936633      1.3682159    
      4800   313.14176      7778.2451      3689.1536      17.945395      1.3675478    
      4900   264.18472      14587.699      3690.9549      17.954158      1.3668804    
      5000   295.50201      4389.9909      3692.7563      17.96292       1.3662136    
      5100   326.90401     -3873.5406      3694.5576      17.971682      1.3655475    
      5200   280.73585     -7510.456       3696.359       17.980445      1.364882     
      5300   336.78743     -2971.0654      3698.1603      17.989207      1.3642172    
      5400   304.39982      3463.6076      3699.9617      17.99797       1.363553     
      5500   292.70875     -2395.1413      3701.763       18.006732      1.3628895    
      5600   325.75738     -2747.4412      3703.5644      18.015494      1.3622266    
      5700   328.8151       4017.0576      3705.3657      18.024257      1.3615644    
      5800   302.91727     -4924.3931      3707.167       18.033019      1.3609028    
      5900   293.19316     -8732.9896      3708.9684      18.041782      1.3602418    
      6000   335.30982     -2676.4927      3710.7697      18.050544      1.3595815    
      6100   281.12457     -4194.5175      3712.5711      18.059306      1.3589219    
      6200   259.77035      11621.446      3714.3724      18.068069      1.3582628    
      6300   280.19795     -2500.0584      3716.1738      18.076831      1.3576044    
      6400   310.54094      1507.0702      3717.9751      18.085594      1.3569467    
      6500   356.19949      1802.7123      3719.7765      18.094356      1.3562896    
      6600   279.27814     -1138.0163      3721.5778      18.103118      1.3556331    
      6700   260.49478      1869.4211      3723.3791      18.111881      1.3549772    
      6800   264.56037      6331.6144      3725.1805      18.120643      1.354322     
      6900   271.61438     -11830.559      3726.9818      18.129406      1.3536675    
      7000   272.86823     -13090.882      3728.7832      18.138168      1.3530135    
      7100   322.63724     -6958.7261      3730.5845      18.14693       1.3523602    
      7200   299.68853     -7084.347       3732.3859      18.155693      1.3517075    
      7300   298.10505      16196.767      3734.1872      18.164455      1.3510555    
      7400   266.38676     -2894.1588      3735.9886      18.173218      1.350404     
      7500   255.69248      3701.6206      3737.7899      18.18198       1.3497532    
      7600   281.04079     -5994.5256      3739.5912      18.190742      1.3491031    
      7700   315.96297      3278.301       3741.3926      18.199505      1.3484535    
      7800   293.06037     -891.25313      3743.1939      18.208267      1.3478046    
      7900   339.84137      1937.5621      3744.9953      18.21703       1.3471563    
      8000   315.97599      9169.1476      3746.7966      18.225792      1.3465086    
      8100   262.08379     -6094.0066      3748.598       18.234554      1.3458616    
      8200   276.20863      2792.2668      3750.3993      18.243317      1.3452152    
      8300   286.62112      5123.9722      3752.2007      18.252079      1.3445694    
      8400   333.43584      4249.1244      3754.002       18.260842      1.3439242    
      8500   346.25299     -2507.2576      3755.8034      18.269604      1.3432796    
      8600   311.3579       950.69985      3757.6047      18.278366      1.3426356    
      8700   291.85646     -13917.757      3759.406       18.287129      1.3419923    
      8800   268.92247      3977.9423      3761.2074      18.295891      1.3413496    
      8900   305.81414     -1485.7696      3763.0087      18.304654      1.3407075    
      9000   296.5025       12591.342      3764.8101      18.313416      1.340066     
      9100   332.6564       2070.4652      3766.6114      18.322178      1.3394251    
      9200   314.70768     -3884.7607      3768.4128      18.330941      1.3387849    
      9300   287.44524      947.31333      3770.2141      18.339703      1.3381452    
      9400   273.02132     -2571.1931      3772.0155      18.348466      1.3375062    
      9500   277.1102      -3502.5376      3773.8168      18.357228      1.3368678    
      9600   329.60753     -1562.4603      3775.6181      18.36599       1.3362299    
      9700   327.23358      7548.374       3777.4195      18.374753      1.3355927    
      9800   285.79919      4108.849       3779.2208      18.383515      1.3349561    
      9900   285.17123      1280.5526      3781.0222      18.392278      1.3343201    
     10000   309.46187      4681.0193      3782.8235      18.40104       1.3336847    
     10100   338.02541     -7163.1327      3784.6249      18.409802      1.33305      
     10200   306.83295     -2343.0243      3786.4262      18.418565      1.3324158    
     10300   283.92942      6009.2744      3788.2276      18.427327      1.3317822    
     10400   274.60158     -5453.6819      3790.0289      18.43609       1.3311492    
     10500   319.04568      4159.7782      3791.8302      18.444852      1.3305168    
     10600   299.35564     -8692.2219      3793.6316      18.453614      1.3298851    
     10700   305.55391     -6916.9606      3795.4329      18.462377      1.3292539    
     10800   268.99591     -5173.0801      3797.2343      18.471139      1.3286233    
     10900   334.75522     -2653.0193      3799.0356      18.479902      1.3279933    
     11000   255.44094     -10047.672      3800.837       18.488664      1.327364     
     11100   307.18615     -7978.9857      3802.6383      18.497426      1.3267352    
     11200   291.11086      9251.1314      3804.4397      18.506189      1.326107     
     11300   298.45316     -2103.5181      3806.241       18.514951      1.3254794    
     11400   282.85172      32.273962      3808.0423      18.523714      1.3248524    
     11500   270.65989     -4847.9992      3809.8437      18.532476      1.324226     
     11600   260.66024     -8350.021       3811.645       18.541238      1.3236002    
     11700   273.12147     -9383.145       3813.4464      18.550001      1.3229749    
     11800   301.42946     -8593.4394      3815.2477      18.558763      1.3223503    
     11900   299.08577     -3484.8862      3817.0491      18.567526      1.3217263    
     12000   309.87284      6612.6385      3818.8504      18.576288      1.3211028    
     12100   326.82397     -7560.2796      3820.6518      18.58505       1.3204799    
     12200   316.91496     -9267.3951      3822.4531      18.593813      1.3198577    
     12300   315.15029     -2503.4772      3824.2544      18.602575      1.319236     
     12400   323.86281     -2239.9384      3826.0558      18.611338      1.3186149    
     12500   319.36651      451.72269      3827.8571      18.6201        1.3179943    
     12600   348.2756      -6207.4474      3829.6585      18.628862      1.3173744    
     12700   304.12792      3368.16        3831.4598      18.637625      1.316755     
     12800   296.21699      3108.2291      3833.2612      18.646387      1.3161363    
     12900   323.99832      2978.8256      3835.0625      18.65515       1.3155181    
     13000   336.2394      -1494.4865      3836.8639      18.663912      1.3149005    
     13100   346.44683      2562.8481      3838.6652      18.672674      1.3142834    
     13200   297.06494      1558.5162      3840.4665      18.681437      1.313667     
     13300   292.0671       2517.5501      3842.2679      18.690199      1.3130511    
     13400   268.19525      9129.6828      3844.0692      18.698962      1.3124358    
     13500   268.9194      -791.91653      3845.8706      18.707724      1.3118211    
     13600   324.2563       1025.9712      3847.6719      18.716486      1.3112069    
     13700   303.73276      1506.0136      3849.4733      18.725249      1.3105933    
     13800   294.14007      10661.514      3851.2746      18.734011      1.3099803    
     13900   296.10909      626.4305       3853.076       18.742774      1.3093679    
     14000   323.70959      1803.7779      3854.8773      18.751536      1.3087561    
     14100   321.05095      10183.062      3856.6786      18.760298      1.3081448    
     14200   299.84334      7009.3816      3858.48        18.769061      1.3075341    
     14300   250.11648     -6249.6803      3860.2813      18.777823      1.3069239    
     14400   260.01105     -6467.216       3862.0827      18.786586      1.3063143    
     14500   291.38049      1543.7166      3863.884       18.795348      1.3057053    
     14600   305.47013     -2160.7598      3865.6854      18.80411       1.3050969    
     14700   312.29559      1123.7354      3867.4867      18.812873      1.304489     
     14800   306.77998      1534.0869      3869.2881      18.821635      1.3038817    
     14900   324.5666       12433.965      3871.0894      18.830398      1.303275     
     15000   327.75982     -4478.1328      3872.8907      18.83916       1.3026688    
     15100   285.30674     -13588.648      3874.6921      18.847922      1.3020632    
     15200   318.88417      5634.4833      3876.4934      18.856685      1.3014582    
     15300   296.7364      -9441.2091      3878.2948      18.865447      1.3008537    
     15400   289.21832      3939.0141      3880.0961      18.87421       1.3002498    
     15500   340.66919      2015.018       3881.8975      18.882972      1.2996464    
     15600   330.03769     -915.87548      3883.6988      18.891734      1.2990436    
     15700   279.5213       2908.688       3885.5002      18.900497      1.2984413    
     15800   320.41889      274.77754      3887.3015      18.909259      1.2978396    
     15900   274.40599      7639.2644      3889.1028      18.918022      1.2972385    
     16000   279.0896       11346.21       3890.9042      18.926784      1.2966379    
     16100   306.37576     -1004.0007      3892.7055      18.935546      1.2960379    
     16200   342.04549      17197.562      3894.5069      18.944309      1.2954385    
     16300   292.67525      11182.714      3896.3082      18.953071      1.2948396    
     16400   270.31599     -7777.9106      3898.1096      18.961834      1.2942412    
     16500   303.80999      1940.7132      3899.9109      18.970596      1.2936434    
     16600   316.60895      6957.2087      3901.7123      18.979358      1.2930462    
     16700   281.71295     -6927.1907      3903.5136      18.988121      1.2924495    
     16800   288.34628     -12757.138      3905.3149      18.996883      1.2918533    
     16900   310.99005     -12609.143      3907.1163      19.005646      1.2912577    
     17000   318.51143     -5474.979       3908.9176      19.014408      1.2906627    
     17100   285.78311     -10010.551      3910.719       19.02317       1.2900682    
     17200   281.08797     -8905.5638      3912.5203      19.031933      1.2894742    
     17300   283.55045     -5179.3894      3914.3217      19.040695      1.2888808    
     17400   296.04955     -5012.1267      3916.123       19.049458      1.2882879    
     17500   272.25274     -11591.786      3917.9244      19.05822       1.2876956    
     17600   279.49408     -3192.4317      3919.7257      19.066982      1.2871038    
     17700   338.35389      2402.7207      3921.527       19.075745      1.2865126    
     17800   302.09916     -4797.7693      3923.3284      19.084507      1.2859219    
     17900   331.30783     -8039.0652      3925.1297      19.09327       1.2853318    
     18000   270.00986     -1637.8436      3926.9311      19.102032      1.2847422    
     18100   261.42189     -3808.3526      3928.7324      19.110794      1.2841531    
     18200   317.61171     -13004.359      3930.5338      19.119557      1.2835646    
     18300   314.08923     -223.94108      3932.3351      19.128319      1.2829766    
     18400   330.44183      3919.6587      3934.1365      19.137082      1.2823892    
     18500   302.69407     -1892.3457      3935.9378      19.145844      1.2818023    
     18600   280.98713     -7701.1857      3937.7391      19.154606      1.2812159    
     18700   275.10608     -5908.4148      3939.5405      19.163369      1.2806301    
     18800   302.19941      5691.9412      3941.3418      19.172131      1.2800448    
     18900   312.99519     -1543.8787      3943.1432      19.180894      1.27946      
     19000   300.1653       1702.9825      3944.9445      19.189656      1.2788758    
     19100   304.17773      475.79475      3946.7459      19.198418      1.2782921    
     19200   301.99036     -3404.6137      3948.5472      19.207181      1.2777089    
     19300   306.48224      2662.516       3950.3486      19.215943      1.2771263    
     19400   303.41749      3086.9161      3952.1499      19.224706      1.2765442    
     19500   274.46154      6137.4068      3953.9512      19.233468      1.2759626    
     19600   278.70329     -191.96256      3955.7526      19.24223       1.2753816    
     19700   288.8585       575.29289      3957.5539      19.250993      1.2748011    
     19800   302.67056     -280.08953      3959.3553      19.259755      1.2742211    
     19900   321.41949     -5640.7146      3961.1566      19.268518      1.2736416    
     20000   332.35372      569.04949      3962.958       19.27728       1.2730627    
     20100   308.99444      10355.796      3964.7593      19.286042      1.2724843    
     20200   286.7446       8729.2038      3966.5607      19.294805      1.2719064    
     20300   284.62704     -8007.9073      3968.362       19.303567      1.2713291    
     20400   317.73371     -3192.7491      3970.1634      19.31233       1.2707523    
     20500   319.39051      6980.8542      3971.9647      19.321092      1.2701759    
     20600   318.79068      1373.5079      3973.766       19.329854      1.2696002    
     20700   290.1971      -863.36691      3975.5674      19.338617      1.2690249    
     20800   277.94089     -1970.5257      3977.3687      19.347379      1.2684502    
     20900   282.74366      8659.1978      3979.1701      19.356142      1.2678759    
     21000   283.82288     -4825.0978      3980.9714      19.364904      1.2673022    
     21100   321.95723      1010.3886      3982.7728      19.373666      1.2667291    
     21200   286.96343     -9438.3336      3984.5741      19.382429      1.2661564    
     21300   284.15448     -8760.6006      3986.3755      19.391191      1.2655843    
     21400   314.29496     -9097.8147      3988.1768      19.399954      1.2650126    
     21500   312.23928     -921.77556      3989.9781      19.408716      1.2644415    
     21600   315.10412     -947.82591      3991.7795      19.417478      1.2638709    
     21700   280.7359      -2230.6741      3993.5808      19.426241      1.2633008    
     21800   262.56349     -1068.079       3995.3822      19.435003      1.2627313    
     21900   295.51322     -2410.7472      3997.1835      19.443766      1.2621622    
     22000   301.4539      -4244.8806      3998.9849      19.452528      1.2615937    
     22100   300.22285      2685.9439      4000.7862      19.46129       1.2610256    
     22200   311.42122     -11394.788      4002.5876      19.470053      1.2604581    
     22300   300.93366     -2578.7256      4004.3889      19.478815      1.2598911    
     22400   298.32062     -10799.945      4006.1902      19.487578      1.2593246    
     22500   316.63452     -7010.7067      4007.9916      19.49634       1.2587586    
     22600   342.41744     -3540.366       4009.7929      19.505102      1.2581932    
     22700   313.94862     -8265.5995      4011.5943      19.513865      1.2576282    
     22800   283.78852      15107.845      4013.3956      19.522627      1.2570637    
     22900   260.7826       9557.3134      4015.197       19.53139       1.2564998    
     23000   273.74299     -3014.4871      4016.9983      19.540152      1.2559363    
     23100   288.84599     -4948.7818      4018.7997      19.548914      1.2553734    
     23200   303.83938     -4913.332       4020.601       19.557677      1.2548109    
     23300   307.02859     -3214.6946      4022.4023      19.566439      1.254249     
     23400   312.25365     -3952.3687      4024.2037      19.575202      1.2536875    
     23500   295.5567       1637.2178      4026.005       19.583964      1.2531266    
     23600   322.07474      1994.0107      4027.8064      19.592726      1.2525662    
     23700   333.57404     -1589.3801      4029.6077      19.601489      1.2520062    
     23800   334.23719     -3131.6258      4031.4091      19.610251      1.2514468    
     23900   298.63334      2999.8981      4033.2104      19.619014      1.2508879    
     24000   262.89977     -8452.0078      4035.0118      19.627776      1.2503294    
     24100   295.32791     -7064.0555      4036.8131      19.636538      1.2497715    
     24200   322.82132     -10907.468      4038.6144      19.645301      1.2492141    
     24300   333.16606     -18358.925      4040.4158      19.654063      1.2486571    
     24400   287.83281     -12780.494      4042.2171      19.662826      1.2481007    
     24500   293.01217     -3762.7374      4044.0185      19.671588      1.2475447    
     24600   301.17296     -9465.4165      4045.8198      19.68035       1.2469893    
     24700   270.17606     -10341.331      4047.6212      19.689113      1.2464343    
     24800   289.31994     -1512.7353      4049.4225      19.697875      1.2458799    
     24900   266.66449     -3860.6464      4051.2239      19.706638      1.2453259    
     25000   292.58641     -11768.739      4053.0252      19.7154        1.2447724    
     25100   296.38657     -9755.1249      4054.8265      19.724162      1.2442194    
     25200   302.62251     -8234.6617      4056.6279      19.732925      1.2436669    
     25300   304.08831     -5149.0319      4058.4292      19.741687      1.2431149    
     25400   306.99383     -1370.0514      4060.2306      19.75045       1.2425634    
     25500   338.43181     -7668.1744      4062.0319      19.759212      1.2420124    
     25600   293.20891     -390.90535      4063.8333      19.767974      1.2414619    
     25700   246.66282     -5305.381       4065.6346      19.776737      1.2409118    
     25800   288.2173      -3088.3399      4067.436       19.785499      1.2403623    
     25900   325.24796     -7030.7239      4069.2373      19.794262      1.2398132    
     26000   310.24976     -6555.5431      4071.0386      19.803024      1.2392646    
     26100   311.97089     -2978.6359      4072.84        19.811786      1.2387165    
     26200   333.73528     -983.85771      4074.6413      19.820549      1.2381689    
     26300   313.85748     -4949.4005      4076.4427      19.829311      1.2376217    
     26400   301.99399     -755.67766      4078.244       19.838074      1.2370751    
     26500   324.6508      -3365.6755      4080.0454      19.846836      1.2365289    
     26600   340.44437     -10696.533      4081.8467      19.855598      1.2359832    
     26700   325.54656     -12822.484      4083.6481      19.864361      1.235438     
     26800   301.59342     -6008.1481      4085.4494      19.873123      1.2348933    
     26900   273.94017     -5226.2872      4087.2507      19.881886      1.234349     
     27000   309.18535     -8339.3161      4089.0521      19.890648      1.2338053    
     27100   322.47223     -9442.1882      4090.8534      19.89941       1.233262     
     27200   340.32336     -11871.166      4092.6548      19.908173      1.2327192    
     27300   327.94129     -13561.931      4094.4561      19.916935      1.2321768    
     27400   298.41395      691.16379      4096.2575      19.925698      1.231635     
     27500   269.37258     -15440.207      4098.0588      19.93446       1.2310936    
     27600   280.20226      4009.3898      4099.8602      19.943222      1.2305527    
     27700   257.2531      -7990.4629      4101.6615      19.951985      1.2300123    
     27800   273.71979     -5729.4924      4103.4628      19.960747      1.2294723    
     27900   297.48208     -4875.6457      4105.2642      19.96951       1.2289328    
     28000   332.52709     -11051.395      4107.0655      19.978272      1.2283938    
     28100   324.29487     -1015.064       4108.8669      19.987034      1.2278553    
     28200   307.78676     -13438.206      4110.6682      19.995797      1.2273172    
     28300   316.91433     -11865.592      4112.4696      20.004559      1.2267797    
     28400   288.64847     -1710.9629      4114.2709      20.013322      1.2262425    
     28500   304.65805     -14545.076      4116.0723      20.022084      1.2257059    
     28600   324.77416     -14508.081      4117.8736      20.030846      1.2251697    
     28700   332.42638     -2839.2363      4119.6749      20.039609      1.224634     
     28800   303.6052      -7868.7696      4121.4763      20.048371      1.2240988    
     28900   285.39431     -17646.638      4123.2776      20.057134      1.223564     
     29000   285.65714     -13777.897      4125.079       20.065896      1.2230297    
     29100   281.14981     -6796.2769      4126.8803      20.074658      1.2224958    
     29200   299.42913     -11559.131      4128.6817      20.083421      1.2219625    
     29300   300.55804     -1856.376       4130.483       20.092183      1.2214296    
     29400   333.31484     -8458.8738      4132.2844      20.100946      1.2208971    
     29500   316.32817     -333.73045      4134.0857      20.109708      1.2203651    
     29600   305.43052     -9867.1121      4135.887       20.11847       1.2198336    
     29700   284.34866     -3237.4674      4137.6884      20.127233      1.2193026    
     29800   309.96856     -5032.0659      4139.4897      20.135995      1.218772     
     29900   333.32799     -3800.5898      4141.2911      20.144758      1.2182418    
     30000   307.10264     -10570.571      4143.0924      20.15352       1.2177122    
     30100   272.59829     -2324.5656      4144.8938      20.162282      1.2171829    
     30200   272.47618     -6025.3155      4146.6951      20.171045      1.2166542    
     30300   292.12737     -122.91078      4148.4965      20.179807      1.2161259    
     30400   337.92546     -2420.1067      4150.2978      20.18857       1.2155981    
     30500   317.80854     -6927.5828      4152.0991      20.197332      1.2150707    
     30600   287.46836     -5417.2432      4153.9005      20.206094      1.2145438    
     30700   273.41415     -5994.3727      4155.7018      20.214857      1.2140173    
     30800   295.0098      -4293.1381      4157.5032      20.223619      1.2134913    
     30900   327.92781     -4667.9352      4159.3045      20.232382      1.2129658    
     31000   317.19121      4527.9856      4161.1059      20.241144      1.2124407    
     31100   335.83981      3027.8342      4162.9072      20.249906      1.211916     
     31200   347.43601     -2426.7898      4164.7086      20.258669      1.2113919    
     31300   325.86975     -19072.189      4166.5099      20.267431      1.2108681    
     31400   297.38372     -10058.208      4168.3112      20.276194      1.2103448    
     31500   275.1891      -16966.756      4170.1126      20.284956      1.209822     
     31600   277.92319     -13396.32       4171.9139      20.293718      1.2092996    
     31700   250.83076     -18126.933      4173.7153      20.302481      1.2087777    
     31800   309.28373      2068.2686      4175.5166      20.311243      1.2082562    
     31900   326.25983     -6305.1317      4177.318       20.320006      1.2077352    
     32000   313.83321     -1745.138       4179.1193      20.328768      1.2072146    
     32100   264.9038      -2394.8765      4180.9207      20.33753       1.2066945    
     32200   294.78805     -13762.39       4182.722       20.346293      1.2061748    
     32300   309.36257      4394.1953      4184.5233      20.355055      1.2056556    
     32400   320.45737     -7213.4428      4186.3247      20.363818      1.2051368    
     32500   292.507       -11211.785      4188.126       20.37258       1.2046185    
     32600   271.87926     -14074.791      4189.9274      20.381342      1.2041006    
     32700   291.01309     -10187.661      4191.7287      20.390105      1.2035831    
     32800   312.48322     -14464.609      4193.5301      20.398867      1.2030661    
     32900   298.23665     -6391.1654      4195.3314      20.40763       1.2025496    
     33000   290.03987     -2847.3889      4197.1328      20.416392      1.2020335    
     33100   292.96473     -12032.716      4198.9341      20.425154      1.2015178    
     33200   312.42958     -4263.2425      4200.7355      20.433917      1.2010026    
     33300   331.72735     -4185.1152      4202.5368      20.442679      1.2004878    
     33400   271.38196     -6139.5758      4204.3381      20.451442      1.1999734    
     33500   274.05867     -6602.0288      4206.1395      20.460204      1.1994595    
     33600   295.39173     -9426.3039      4207.9408      20.468966      1.198946     
     33700   324.04964     -18739.039      4209.7422      20.477729      1.198433     
     33800   306.07933     -5950.9496      4211.5435      20.486491      1.1979204    
     33900   284.87814     -11046.385      4213.3449      20.495254      1.1974083    
     34000   298.2118      -6539.1371      4215.1462      20.504016      1.1968966    
     34100   319.37651     -16836.137      4216.9476      20.512778      1.1963853    
     34200   332.57812     -19998.823      4218.7489      20.521541      1.1958745    
     34300   283.85322     -8397.8139      4220.5502      20.530303      1.195364     
     34400   288.97633     -18292.641      4222.3516      20.539066      1.1948541    
     34500   310.26334     -4939.0726      4224.1529      20.547828      1.1943445    
     34600   330.09572     -19953.402      4225.9543      20.55659       1.1938354    
     34700   325.69377     -3529.4704      4227.7556      20.565353      1.1933268    
     34800   319.15026     -12317.71       4229.557       20.574115      1.1928186    
     34900   297.56307     -2247.3298      4231.3583      20.582878      1.1923108    
     35000   295.34125     -5893.1218      4233.1597      20.59164       1.1918034    
     35100   285.07171     -964.32269      4234.961       20.600402      1.1912965    
     35200   314.42146     -9281.175       4236.7623      20.609165      1.19079      
     35300   314.2932      -2572.9595      4238.5637      20.617927      1.1902839    
     35400   305.53256     -4424.7965      4240.365       20.62669       1.1897782    
     35500   294.52475     -1817.7652      4242.1664      20.635452      1.189273     
     35600   282.53879      635.43048      4243.9677      20.644214      1.1887682    
     35700   320.47679     -15169.669      4245.7691      20.652977      1.1882639    
     35800   327.2166      -3251.6583      4247.5704      20.661739      1.18776      
     35900   294.94036     -5536.2589      4249.3718      20.670502      1.1872564    
     36000   274.79455     -2535.4411      4251.1731      20.679264      1.1867534    
     36100   282.55892     -1817.3993      4252.9744      20.688026      1.1862507    
     36200   316.08113      3066.2755      4254.7758      20.696789      1.1857485    
     36300   323.86861     -8612.8675      4256.5771      20.705551      1.1852467    
     36400   310.43812     -7892.6317      4258.3785      20.714314      1.1847453    
     36500   302.47311     -4838.4063      4260.1798      20.723076      1.1842444    
     36600   307.13257      2213.6311      4261.9812      20.731838      1.1837439    
     36700   298.5271       1150.8939      4263.7825      20.740601      1.1832438    
     36800   277.82628     -4830.0194      4265.5839      20.749363      1.1827441    
     36900   287.44493     -6866.2574      4267.3852      20.758126      1.1822448    
     37000   286.77337     -679.48662      4269.1865      20.766888      1.181746     
     37100   273.74958     -4232.0103      4270.9879      20.77565       1.1812476    
     37200   296.46976     -14710.454      4272.7892      20.784413      1.1807496    
     37300   339.06762     -283.30054      4274.5906      20.793175      1.180252     
     37400   320.22144     -4078.7618      4276.3919      20.801938      1.1797548    
     37500   285.63909     -1957.1178      4278.1933      20.8107        1.1792581    
     37600   270.02642      4051.4292      4279.9946      20.819462      1.1787618    
     37700   247.94748     -12881.378      4281.796       20.828225      1.1782659    
     37800   263.49385     -5196.4681      4283.5973      20.836987      1.1777704    
     37900   294.90825     -10054.555      4285.3986      20.84575       1.1772753    
     38000   330.55509     -11331.901      4287.2         20.854512      1.1767807    
     38100   310.18154     -15750.566      4289.0013      20.863274      1.1762864    
     38200   301.90963      1541.9888      4290.8027      20.872037      1.1757926    
     38300   300.10311      389.07137      4292.604       20.880799      1.1752992    
     38400   316.06041     -5496.7128      4294.4054      20.889562      1.1748062    
     38500   270.68792     -7913.3553      4296.2067      20.898324      1.1743136    
     38600   288.67363      509.57492      4298.0081      20.907086      1.1738214    
     38700   317.59373      4601.39        4299.8094      20.915849      1.1733297    
     38800   318.24313     -970.51187      4301.6107      20.924611      1.1728383    
     38900   320.0666       6344.5963      4303.4121      20.933374      1.1723474    
     39000   316.49852     -1729.0945      4305.2134      20.942136      1.1718569    
     39100   327.22457      4688.5207      4307.0148      20.950898      1.1713668    
     39200   307.33471     -7038.4538      4308.8161      20.959661      1.1708771    
     39300   290.90669      458.21989      4310.6175      20.968423      1.1703878    
     39400   273.96903      4185.9183      4312.4188      20.977186      1.1698989    
     39500   278.23641      2290.8441      4314.2202      20.985948      1.1694104    
     39600   305.46156      4806.4412      4316.0215      20.99471       1.1689224    
     39700   285.2125      -1949.2152      4317.8228      21.003473      1.1684347    
     39800   294.5366      -1048.5163      4319.6242      21.012235      1.1679474    
     39900   274.29302      9773.384       4321.4255      21.020998      1.1674606    
     40000   280.35006     -1819.8457      4323.2269      21.02976       1.1669742    
     40100   306.04076     -3501.8698      4325.0282      21.038522      1.1664881    
     40200   272.16419     -1729.7028      4326.8296      21.047285      1.1660025    
     40300   285.12566     -4907.7602      4328.6309      21.056047      1.1655173    
     40400   317.01804     -2444.771       4330.4323      21.06481       1.1650324    
     40500   312.38003     -2455.2547      4332.2336      21.073572      1.164548     
     40600   320.31609      85.940518      4334.0349      21.082334      1.164064     
     40700   316.578        2787.6317      4335.8363      21.091097      1.1635804    
     40800   292.03384      4875.3165      4337.6376      21.099859      1.1630972    
     40900   307.29465     -4027.9174      4339.439       21.108622      1.1626143    
     41000   293.13146     -11116.157      4341.2403      21.117384      1.1621319    
     41100   316.94459      3340.1825      4343.0417      21.126146      1.1616499    
     41200   321.18393      7573.588       4344.843       21.134909      1.1611683    
     41300   328.86727      3821.7235      4346.6444      21.143671      1.1606871    
     41400   323.30312      1823.2831      4348.4457      21.152434      1.1602063    
     41500   313.40077     -1881.5489      4350.247       21.161196      1.1597259    
     41600   313.0367      -2524.0254      4352.0484      21.169958      1.1592458    
     41700   271.67699     -2502.9432      4353.8497      21.178721      1.1587662    
     41800   280.72854      2967.5124      4355.6511      21.187483      1.158287     
     41900   286.35751     -4517.6271      4357.4524      21.196246      1.1578082    
     42000   299.32354      70.08842       4359.2538      21.205008      1.1573297    
     42100   291.14253     -9381.9791      4361.0551      21.21377       1.1568517    
     42200   295.6373       4562.9453      4362.8565      21.222533      1.1563741    
     42300   312.64485     -6775.1982      4364.6578      21.231295      1.1558968    
     42400   318.38188     -3422.273       4366.4591      21.240058      1.15542      
     42500   298.88411     -5230.0971      4368.2605      21.24882       1.1549435    
     42600   302.37772     -8226.5124      4370.0618      21.257582      1.1544674    
     42700   282.99232     -5804.9485      4371.8632      21.266345      1.1539917    
     42800   293.24038      83.823332      4373.6645      21.275107      1.1535165    
     42900   325.46155     -1729.7818      4375.4659      21.28387       1.1530416    
     43000   314.7093       7669.1397      4377.2672      21.292632      1.1525671    
     43100   293.18088      6512.2276      4379.0686      21.301394      1.152093     
     43200   280.92234      4899.773       4380.8699      21.310157      1.1516192    
     43300   270.88531     -6407.0996      4382.6712      21.318919      1.1511459    
     43400   287.67005     -5884.6544      4384.4726      21.327682      1.150673     
     43500   277.53524      580.51913      4386.2739      21.336444      1.1502004    
     43600   278.31424     -6283.9803      4388.0753      21.345206      1.1497282    
     43700   271.54778     -1551.6856      4389.8766      21.353969      1.1492564    
     43800   297.20597     -5382.8091      4391.678       21.362731      1.1487851    
     43900   275.03166     -5066.7174      4393.4793      21.371494      1.148314     
     44000   308.07794     -7761.5298      4395.2807      21.380256      1.1478434    
     44100   318.95097     -314.98258      4397.082       21.389018      1.1473732    
     44200   344.33174     -5657.9231      4398.8833      21.397781      1.1469033    
     44300   288.66039      2266.3586      4400.6847      21.406543      1.1464339    
     44400   298.47037      5942.2904      4402.486       21.415306      1.1459648    
     44500   307.14003      2141.2328      4404.2874      21.424068      1.1454961    
     44600   325.66247      9463.4278      4406.0887      21.43283       1.1450278    
     44700   292.1535       2372.7252      4407.8901      21.441593      1.1445599    
     44800   276.8194      -1916.8193      4409.6914      21.450355      1.1440923    
     44900   270.83197     -11292.611      4411.4928      21.459118      1.1436251    
     45000   284.55318     -8726.3824      4413.2941      21.46788       1.1431584    
     45100   342.13876      6395.0083      4415.0954      21.476642      1.1426919    
     45200   329.38441      2512.1535      4416.8968      21.485405      1.1422259    
     45300   308.11401      6459.972       4418.6981      21.494167      1.1417603    
     45400   264.36224      2405.8195      4420.4995      21.50293       1.141295     
     45500   280.38032     -263.07276      4422.3008      21.511692      1.1408301    
     45600   282.43517     -6498.882       4424.1022      21.520454      1.1403656    
     45700   312.9963      -4020.9855      4425.9035      21.529217      1.1399015    
     45800   309.32696     -6136.2645      4427.7049      21.537979      1.1394377    
     45900   299.33289     -8700.7121      4429.5062      21.546742      1.1389744    
     46000   296.00898      4585.6342      4431.3076      21.555504      1.1385114    
     46100   308.71266     -3949.7282      4433.1089      21.564266      1.1380487    
     46200   293.1777       8442.4876      4434.9102      21.573029      1.1375865    
     46300   266.23338      3338.1148      4436.7116      21.581791      1.1371246    
     46400   302.1615       7819.0702      4438.5129      21.590554      1.1366631    
     46500   340.8366      -5459.7108      4440.3143      21.599316      1.136202     
     46600   326.00119     -2112.655       4442.1156      21.608078      1.1357413    
     46700   290.1099       6637.6025      4443.917       21.616841      1.1352809    
     46800   295.82382     -918.18737      4445.7183      21.625603      1.1348209    
     46900   294.10827      3216.7461      4447.5197      21.634366      1.1343613    
     47000   303.54094      51.827515      4449.321       21.643128      1.133902     
     47100   319.34696     -4626.1693      4451.1223      21.65189       1.1334431    
     47200   313.67235      3696.9746      4452.9237      21.660653      1.1329846    
     47300   289.42231     -4522.6087      4454.725       21.669415      1.1325265    
     47400   265.1526      -366.51683      4456.5264      21.678178      1.1320687    
     47500   277.68962      2853.1602      4458.3277      21.68694       1.1316113    
     47600   290.65125     -3676.7766      4460.1291      21.695702      1.1311543    
     47700   316.45407      498.70992      4461.9304      21.704465      1.1306976    
     47800   318.31795      8547.3763      4463.7318      21.713227      1.1302413    
     47900   295.5769      -2432.7198      4465.5331      21.72199       1.1297854    
     48000   284.96862     -8908.0503      4467.3344      21.730752      1.1293298    
     48100   288.5022       2215.4165      4469.1358      21.739514      1.1288746    
     48200   299.78053      7022.6531      4470.9371      21.748277      1.1284198    
     48300   318.09987     -3586.1862      4472.7385      21.757039      1.1279653    
     48400   343.58673     -1780.9736      4474.5398      21.765802      1.1275113    
     48500   321.65088      2645.9036      4476.3412      21.774564      1.1270575    
     48600   296.47733     -5725.1321      4478.1425      21.783326      1.1266042    
     48700   283.60861     -3203.2833      4479.9439      21.792089      1.1261512    
     48800   291.27803     -4900.2441      4481.7452      21.800851      1.1256985    
     48900   318.70265      3154.787       4483.5465      21.809614      1.1252463    
     49000   329.36424      1286.4042      4485.3479      21.818376      1.1247944    
     49100   335.05353      4129.9575      4487.1492      21.827138      1.1243428    
     49200   292.92136      6696.3354      4488.9506      21.835901      1.1238916    
     49300   289.61337      2273.1671      4490.7519      21.844663      1.1234408    
     49400   286.31789      1085.5992      4492.5533      21.853426      1.1229904    
     49500   307.4636      -701.32205      4494.3546      21.862188      1.1225403    
     49600   330.773        5848.3731      4496.156       21.87095       1.1220905    
     49700   326.7733      -2945.861       4497.9573      21.879713      1.1216412    
     49800   324.98901      408.54611      4499.7586      21.888475      1.1211921    
     49900   295.19118      1687.5092      4501.56        21.897238      1.1207435    
     50000   301.45934     -3369.1817      4503.3613      21.906         1.1202952    
     50100   299.11476      293.13858      4505.1627      21.914762      1.1198472    
     50200   288.36163     -8811.0358      4506.964       21.923525      1.1193997    
     50300   282.56125      1610.6534      4508.7654      21.932287      1.1189524    
     50400   262.24048     -2552.769       4510.5667      21.94105       1.1185056    
     50500   278.95416     -3533.6926      4512.3681      21.949812      1.1180591    
     50600   297.1874      -886.68219      4514.1694      21.958574      1.1176129    
     50700   319.57165      956.4096       4515.9707      21.967337      1.1171671    
     50800   340.19514      991.1358       4517.7721      21.976099      1.1167217    
     50900   309.90778      4789.276       4519.5734      21.984862      1.1162766    
     51000   298.8948       6054.8639      4521.3748      21.993624      1.1158319    
     51100   312.11066      7569.2318      4523.1761      22.002386      1.1153875    
     51200   308.30394     -95.34671       4524.9775      22.011149      1.1149435    
     51300   294.95353     -9662.5526      4526.7788      22.019911      1.1144998    
     51400   259.0278       2256.8832      4528.5802      22.028674      1.1140565    
     51500   253.90788      1159.5633      4530.3815      22.037436      1.1136135    
     51600   267.65382     -7418.9424      4532.1828      22.046198      1.1131709    
     51700   316.4981      -661.76499      4533.9842      22.054961      1.1127286    
     51800   309.38344      156.85134      4535.7855      22.063723      1.1122867    
     51900   339.18904      5952.8378      4537.5869      22.072486      1.1118452    
     52000   313.05948      1978.0477      4539.3882      22.081248      1.111404     
     52100   300.04941     -2794.6793      4541.1896      22.09001       1.1109631    
     52200   287.83517     -1673.9446      4542.9909      22.098773      1.1105226    
     52300   310.55594     -7560.0714      4544.7923      22.107535      1.1100824    
     52400   281.06303     -8707.5077      4546.5936      22.116298      1.1096426    
     52500   284.77377     -8812.2639      4548.3949      22.12506       1.1092032    
     52600   286.13837      11776.117      4550.1963      22.133822      1.108764     
     52700   290.8837      -7482.6193      4551.9976      22.142585      1.1083253    
     52800   302.40125     -12855.137      4553.799       22.151347      1.1078869    
     52900   293.27478     -3193.1001      4555.6003      22.16011       1.1074488    
     53000   298.10856      2464.4263      4557.4017      22.168872      1.1070111    
     53100   311.25767     -9162.5607      4559.203       22.177634      1.1065737    
     53200   320.81576     -1535.7362      4561.0044      22.186397      1.1061366    
     53300   332.19475      6748.5579      4562.8057      22.195159      1.1056999    
     53400   353.73803      8380.8394      4564.607       22.203922      1.1052636    
     53500   290.52071     -5240.1344      4566.4084      22.212684      1.1048276    
     53600   277.73599      7078.0233      4568.2097      22.221446      1.1043919    
     53700   259.13798     -4880.6369      4570.0111      22.230209      1.1039566    
     53800   279.55061      1353.5424      4571.8124      22.238971      1.1035217    
     53900   287.81402      4258.0175      4573.6138      22.247734      1.103087     
     54000   292.95077      3151.1927      4575.4151      22.256496      1.1026527    
     54100   312.87662      251.14907      4577.2165      22.265258      1.1022188    
     54200   293.78755     -4675.668       4579.0178      22.274021      1.1017852    
     54300   291.59279     -3402.7248      4580.8191      22.282783      1.1013519    
     54400   296.39317      2459.551       4582.6205      22.291546      1.100919     
     54500   314.47039     -3404.0678      4584.4218      22.300308      1.1004864    
     54600   332.94907      298.25294      4586.2232      22.30907       1.1000542    
     54700   319.87145     -1771.6858      4588.0245      22.317833      1.0996223    
     54800   309.22309      4707.77        4589.8259      22.326595      1.0991907    
     54900   317.69065     -4341.3421      4591.6272      22.335358      1.0987595    
     55000   310.58294     -4648.7407      4593.4286      22.34412       1.0983286    
     55100   343.62409     -3507.2863      4595.2299      22.352882      1.0978981    
     55200   313.63377      118.50181      4597.0312      22.361645      1.0974679    
     55300   310.52864     -5223.232       4598.8326      22.370407      1.097038     
     55400   298.91662      7523.4147      4600.6339      22.37917       1.0966084    
     55500   275.19884     -3420.165       4602.4353      22.387932      1.0961792    
     55600   281.7972      -7852.4063      4604.2366      22.396694      1.0957504    
     55700   262.14976     -4551.5623      4606.038       22.405457      1.0953218    
     55800   285.90021      472.89597      4607.8393      22.414219      1.0948937    
     55900   303.45236     -3013.247       4609.6407      22.422982      1.0944658    
     56000   295.23135      1917.0291      4611.442       22.431744      1.0940383    
     56100   273.41564      3816.8861      4613.2433      22.440506      1.0936111    
     56200   303.28123     -6426.2385      4615.0447      22.449269      1.0931842    
     56300   301.69291     -185.74183      4616.846       22.458031      1.0927577    
     56400   306.72337     -8947.1201      4618.6474      22.466794      1.0923315    
     56500   307.00194     -1763.2423      4620.4487      22.475556      1.0919056    
     56600   309.50149      3933.5836      4622.2501      22.484318      1.0914801    
     56700   301.273        1302.2532      4624.0514      22.493081      1.0910549    
     56800   284.52481      1838.8911      4625.8528      22.501843      1.09063      
     56900   265.47306      12605.255      4627.6541      22.510606      1.0902055    
     57000   273.55553      26.813461      4629.4554      22.519368      1.0897813    
     57100   287.77985     -3695.1508      4631.2568      22.52813       1.0893574    
     57200   296.00903     -795.15445      4633.0581      22.536893      1.0889339    
     57300   325.57909      10412.297      4634.8595      22.545655      1.0885107    
     57400   296.22331     -2211.2758      4636.6608      22.554418      1.0880878    
     57500   297.65555      11530.154      4638.4622      22.56318       1.0876652    
     57600   314.61421     -7887.6998      4640.2635      22.571942      1.087243     
     57700   296.95657     -2960.3239      4642.0649      22.580705      1.0868211    
     57800   272.90861     -242.41038      4643.8662      22.589467      1.0863995    
     57900   281.20863      5148.9812      4645.6675      22.59823       1.0859783    
     58000   294.37345     -13465.791      4647.4689      22.606992      1.0855574    
     58100   286.96098     -6295.6831      4649.2702      22.615754      1.0851368    
     58200   293.27381      7361.8888      4651.0716      22.624517      1.0847165    
     58300   277.42372     -2722.764       4652.8729      22.633279      1.0842965    
     58400   311.56413     -34.16187       4654.6743      22.642042      1.0838769    
     58500   323.79995     -2381.283       4656.4756      22.650804      1.0834576    
     58600   351.28466      6105.7991      4658.277       22.659566      1.0830387    
     58700   317.63767     -5055.4507      4660.0783      22.668329      1.08262      
     58800   296.40404     -3844.4249      4661.8797      22.677091      1.0822017    
     58900   264.98927      8801.3436      4663.681       22.685854      1.0817837    
     59000   273.58511      2983.9348      4665.4823      22.694616      1.081366     
     59100   322.83571     -655.19364      4667.2837      22.703378      1.0809487    
     59200   341.84286     -5853.2904      4669.085       22.712141      1.0805316    
     59300   310.36053     -6560.7561      4670.8864      22.720903      1.0801149    
     59400   279.4833       342.12021      4672.6877      22.729666      1.0796985    
     59500   273.69065      1866.3223      4674.4891      22.738428      1.0792825    
     59600   316.35877     -818.63565      4676.2904      22.74719       1.0788667    
     59700   363.43245      5728.0317      4678.0918      22.755953      1.0784513    
     59800   304.20682     -1709.3291      4679.8931      22.764715      1.0780362    
     59900   280.98022      2608.8078      4681.6944      22.773478      1.0776214    
     60000   319.06225     -1652.8923      4683.4958      22.78224       1.0772069    
     60100   308.96463     -1652.3118      4685.2971      22.791002      1.0767928    
     60200   286.62508      1509.212       4687.0985      22.799765      1.0763789    
     60300   310.99977      212.55379      4688.8998      22.808527      1.0759654    
     60400   320.53079     -496.68024      4690.7012      22.81729       1.0755522    
     60500   286.86185      5611.3782      4692.5025      22.826052      1.0751393    
     60600   309.0742      -2409.1584      4694.3039      22.834814      1.0747268    
     60700   273.18231      8231.4571      4696.1052      22.843577      1.0743145    
     60800   294.82403     -2850.3133      4697.9065      22.852339      1.0739026    
     60900   277.83159     -2632.3941      4699.7079      22.861102      1.073491     
     61000   323.62885     -9912.6904      4701.5092      22.869864      1.0730797    
     61100   312.74372     -2287.3528      4703.3106      22.878626      1.0726687    
     61200   264.64466     -7009.0417      4705.1119      22.887389      1.072258     
     61300   324.00165      1261.9092      4706.9133      22.896151      1.0718477    
     61400   286.73425      6168.0453      4708.7146      22.904914      1.0714376    
     61500   308.40722     -676.45749      4710.516       22.913676      1.0710279    
     61600   298.10088     -8065.0443      4712.3173      22.922438      1.0706185    
     61700   299.8033      -1802.3878      4714.1186      22.931201      1.0702094    
     61800   319.80701     -1121.9737      4715.92        22.939963      1.0698006    
     61900   270.90583      12213.149      4717.7213      22.948726      1.0693921    
     62000   319.15734      2244.1712      4719.5227      22.957488      1.068984     
     62100   286.04273      75.74296       4721.324       22.96625       1.0685761    
     62200   321.62492     -4536.5375      4723.1254      22.975013      1.0681686    
     62300   315.57704      4357.8854      4724.9267      22.983775      1.0677613    
     62400   284.51312     -1436.4576      4726.7281      22.992538      1.0673544    
     62500   288.9733       2272.5118      4728.5294      23.0013        1.0669478    
     62600   272.44806     -4635.9426      4730.3307      23.010062      1.0665415    
     62700   306.68086      698.70322      4732.1321      23.018825      1.0661355    
     62800   288.59458     -1768.7078      4733.9334      23.027587      1.0657298    
     62900   327.40624      4110.3284      4735.7348      23.03635       1.0653244    
     63000   308.09085     -1168.8464      4737.5361      23.045112      1.0649194    
     63100   298.70706     -3815.1556      4739.3375      23.053874      1.0645146    
     63200   305.35452     -3842.1446      4741.1388      23.062637      1.0641102    
     63300   325.10288     -6075.5474      4742.9402      23.071399      1.063706     
     63400   285.39689      2830.7295      4744.7415      23.080162      1.0633022    
     63500   313.27641      13901.111      4746.5428      23.088924      1.0628987    
     63600   329.37211     -1688.1983      4748.3442      23.097686      1.0624954    
     63700   306.47309      4974.4468      4750.1455      23.106449      1.0620925    
     63800   271.28543     -8019.4728      4751.9469      23.115211      1.0616899    
     63900   312.06892      3353.0106      4753.7482      23.123974      1.0612876    
     64000   291.96011     -7511.3327      4755.5496      23.132736      1.0608856    
     64100   319.83534      5994.2751      4757.3509      23.141498      1.0604839    
     64200   307.77345      6491.8093      4759.1523      23.150261      1.0600825    
     64300   299.42826     -5796.7396      4760.9536      23.159023      1.0596814    
     64400   297.82037     -5965.7086      4762.7549      23.167786      1.0592806    
     64500   281.64324      2246.6068      4764.5563      23.176548      1.0588801    
     64600   301.93498     -3896.5505      4766.3576      23.18531       1.05848      
     64700   314.24083     -5648.6189      4768.159       23.194073      1.0580801    
     64800   283.93767     -1170.2923      4769.9603      23.202835      1.0576805    
     64900   309.45825      8740.0898      4771.7617      23.211598      1.0572812    
     65000   320.98553      4193.7123      4773.563       23.22036       1.0568823    
     65100   297.04389     -165.07153      4775.3644      23.229122      1.0564836    
     65200   312.71354     -841.8864       4777.1657      23.237885      1.0560852    
     65300   286.37434     -6024.5784      4778.967       23.246647      1.0556871    
     65400   307.55451      2200.3316      4780.7684      23.25541       1.0552894    
     65500   305.45031      1464.6809      4782.5697      23.264172      1.0548919    
     65600   282.93941     -3713.9117      4784.3711      23.272934      1.0544947    
     65700   320.90398     -2813.727       4786.1724      23.281697      1.0540978    
     65800   282.95518     -2327.0214      4787.9738      23.290459      1.0537013    
     65900   331.11488      1740.722       4789.7751      23.299222      1.053305     
     66000   297.5137       1611.6642      4791.5765      23.307984      1.052909     
     66100   322.5536      -6487.1381      4793.3778      23.316746      1.0525133    
     66200   309.37912      1876.2687      4795.1791      23.325509      1.0521179    
     66300   313.41854      1291.801       4796.9805      23.334271      1.0517229    
     66400   289.12204     -728.52975      4798.7818      23.343034      1.0513281    
     66500   280.75083     -3470.0843      4800.5832      23.351796      1.0509336    
     66600   293.34408      3803.6379      4802.3845      23.360558      1.0505394    
     66700   293.1355      -5729.4257      4804.1859      23.369321      1.0501455    
     66800   317.83735      7218.5108      4805.9872      23.378083      1.0497519    
     66900   280.77909      4930.2691      4807.7886      23.386846      1.0493585    
     67000   314.20373     -870.15233      4809.5899      23.395608      1.0489655    
     67100   264.29548     -1929.0454      4811.3912      23.40437       1.0485728    
     67200   296.18596     -4345.3052      4813.1926      23.413133      1.0481804    
     67300   279.76796      4566.726       4814.9939      23.421895      1.0477882    
     67400   313.59916     -5252.166       4816.7953      23.430658      1.0473964    
     67500   308.05683     -390.35078      4818.5966      23.43942       1.0470048    
     67600   298.64517      1327.1524      4820.398       23.448182      1.0466136    
     67700   303.50169      8686.8572      4822.1993      23.456945      1.0462226    
     67800   264.95995      6018.3425      4824.0007      23.465707      1.045832     
     67900   289.77542     -3541.5558      4825.802       23.47447       1.0454416    
     68000   275.3911       3221.9413      4827.6033      23.483232      1.0450515    
     68100   306.2739      -6078.015       4829.4047      23.491994      1.0446617    
     68200   287.73429      2466.0826      4831.206       23.500757      1.0442722    
     68300   341.30016     -862.71357      4833.0074      23.509519      1.043883     
     68400   285.6637      -4155.014       4834.8087      23.518282      1.043494     
     68500   296.62249     -9707.5108      4836.6101      23.527044      1.0431054    
     68600   283.49608      128.59557      4838.4114      23.535806      1.042717     
     68700   309.23389     -1220.381       4840.2128      23.544569      1.042329     
     68800   303.6529      -4481.9005      4842.0141      23.553331      1.0419412    
     68900   298.92578      1686.2987      4843.8154      23.562094      1.0415537    
     69000   327.64003     -2559.6375      4845.6168      23.570856      1.0411665    
     69100   275.99426     -5509.9033      4847.4181      23.579618      1.0407796    
     69200   288.28149     -7117.8516      4849.2195      23.588381      1.040393     
     69300   294.22227     -652.24123      4851.0208      23.597143      1.0400067    
     69400   309.05404     -565.89848      4852.8222      23.605906      1.0396206    
     69500   327.64407     -1648.215       4854.6235      23.614668      1.0392349    
     69600   292.74963      940.73329      4856.4249      23.62343       1.0388494    
     69700   311.90149      2220.1561      4858.2262      23.632193      1.0384642    
     69800   305.45091      3902.7601      4860.0275      23.640955      1.0380793    
     69900   282.93256      4245.27        4861.8289      23.649718      1.0376947    
     70000   321.61055      2358.2789      4863.6302      23.65848       1.0373104    
     70100   313.53748     -109.21495      4865.4316      23.667242      1.0369263    
     70200   300.47254      2044.0671      4867.2329      23.676005      1.0365425    
     70300   301.98944      1112.1863      4869.0343      23.684767      1.0361591    
     70400   276.7949       3193.4978      4870.8356      23.69353       1.0357759    
     70500   295.36062      5851.5464      4872.637       23.702292      1.035393     
     70600   317.3013      -365.64914      4874.4383      23.711054      1.0350103    
     70700   304.93797     -2319.9465      4876.2396      23.719817      1.034628     
     70800   305.60564      7892.7577      4878.041       23.728579      1.0342459    
     70900   269.60428      981.36243      4879.8423      23.737342      1.0338641    
     71000   312.29252      1592.5778      4881.6437      23.746104      1.0334826    
     71100   299.43044     -8398.0843      4883.445       23.754866      1.0331014    
     71200   341.73592     -1824.0668      4885.2464      23.763629      1.0327205    
     71300   280.28982      1340.572       4887.0477      23.772391      1.0323398    
     71400   316.03989      2806.4451      4888.8491      23.781154      1.0319595    
     71500   273.7407      -4509.8247      4890.6504      23.789916      1.0315794    
     71600   316.98287      8989.1284      4892.4518      23.798678      1.0311995    
     71700   318.94943      11076.351      4894.2531      23.807441      1.03082      
     71800   326.03827     -8493.5051      4896.0544      23.816203      1.0304408    
     71900   277.59226     -2648.8017      4897.8558      23.824966      1.0300618    
     72000   304.98195     -5984.6108      4899.6571      23.833728      1.0296831    
     72100   295.43571     -3496.5125      4901.4585      23.84249       1.0293047    
     72200   304.26615     -4085.3009      4903.2598      23.851253      1.0289265    
     72300   294.02662      1301.3239      4905.0612      23.860015      1.0285486    
     72400   319.46908     -6762.6743      4906.8625      23.868778      1.0281711    
     72500   300.7812       899.41921      4908.6639      23.87754       1.0277937    
     72600   314.63404     -1918.6855      4910.4652      23.886302      1.0274167    
     72700   288.38625      5549.8694      4912.2665      23.895065      1.02704      
     72800   306.48579      2862.6835      4914.0679      23.903827      1.0266635    
     72900   286.48968     -7410.834       4915.8692      23.91259       1.0262873    
     73000   306.27165     -9003.4597      4917.6706      23.921352      1.0259113    
     73100   296.00654      2532.8768      4919.4719      23.930114      1.0255357    
     73200   291.45259      7432.4239      4921.2733      23.938877      1.0251603    
     73300   310.22038     -1025.1996      4923.0746      23.947639      1.0247852    
     73400   278.66043      1885.8189      4924.876       23.956402      1.0244104    
     73500   327.22262      3078.1289      4926.6773      23.965164      1.0240358    
     73600   307.19193     -7501.0344      4928.4786      23.973926      1.0236615    
     73700   303.39682     -4802.023       4930.28        23.982689      1.0232875    
     73800   295.5314       337.18503      4932.0813      23.991451      1.0229138    
     73900   312.64155     -4584.0382      4933.8827      24.000214      1.0225403    
     74000   297.5364       9113.1639      4935.684       24.008976      1.0221671    
     74100   303.08669     -2970.9405      4937.4854      24.017738      1.0217942    
     74200   286.38487     -2289.1411      4939.2867      24.026501      1.0214216    
     74300   308.90989     -5400.0149      4941.0881      24.035263      1.0210492    
     74400   285.88143      3124.9647      4942.8894      24.044026      1.0206771    
     74500   300.10708     -4467.9106      4944.6907      24.052788      1.0203053    
     74600   307.86686      1776.1459      4946.4921      24.06155       1.0199337    
     74700   316.47356      1607.3864      4948.2934      24.070313      1.0195624    
     74800   307.56695     -6480.9903      4950.0948      24.079075      1.0191914    
[...]
     98700   290.42648      5344.7008      5380.6161      26.173289      0.93764244   
     98800   299.14106     -930.90988      5382.4175      26.182051      0.93732864   
     98900   303.92763      4356.9783      5384.2188      26.190814      0.93701504   
     99000   308.15782      2427.8361      5386.0202      26.199576      0.93670166   
     99100   291.14778     -2275.9181      5387.8215      26.208338      0.93638849   
     99200   285.56985     -1865.0559      5389.6228      26.217101      0.93607552   
     99300   294.07791     -5629.0021      5391.4242      26.225863      0.93576277   
     99400   312.55619     -5292.8528      5393.2255      26.234626      0.93545022   
     99500   302.60376     -3111.1758      5395.0269      26.243388      0.93513788   
     99600   296.01284     -3254.4275      5396.8282      26.25215       0.93482576   
     99700   290.77015     -6838.7118      5398.6296      26.260913      0.93451384   
     99800   269.05449      3988.7709      5400.4309      26.269675      0.93420212   
     99900   293.65376     -3357.5846      5402.2323      26.278438      0.93389062   
    100000   292.95937      243.67542      5404.0336      26.2872        0.93357932   
    100100   304.82712     -10907.311      5405.8349      26.295962      0.93326823   
    100200   292.23895     -1382.4362      5407.6363      26.304725      0.93295735   
    100300   280.36001      4827.8862      5409.4376      26.313487      0.93264667   
    100400   267.10964      8397.7116      5411.239       26.32225       0.93233621   
    100500   292.53447     -2259.6115      5413.0403      26.331012      0.93202594   
    100600   315.03872     -5016.954       5414.8417      26.339774      0.93171589   
    100700   292.8935      -6164.1723      5416.643       26.348537      0.93140604   
    100800   314.28907      409.18759      5418.4444      26.357299      0.9310964    
    100900   306.79586     -2063.7718      5420.2457      26.366062      0.93078696   
    101000   310.40364      217.91235      5422.047       26.374824      0.93047773   
    101100   324.99595      1179.7481      5423.8484      26.383586      0.9301687    
    101200   282.02353      1203.4056      5425.6497      26.392349      0.92985988   
    101300   281.91133      786.21073      5427.4511      26.401111      0.92955127   
    101400   286.95325      213.50736      5429.2524      26.409874      0.92924285   
    101500   311.24609      7612.4434      5431.0538      26.418636      0.92893465   
    101600   310.81206      1930.3973      5432.8551      26.427398      0.92862665   
    101700   279.80862     -4544.2268      5434.6565      26.436161      0.92831885   
    101800   277.09348     -311.4619       5436.4578      26.444923      0.92801125   
    101900   292.88217      3092.1463      5438.2591      26.453686      0.92770386   
    102000   278.79142     -8176.8282      5440.0605      26.462448      0.92739668   
    102100   313.04852     -3113.4654      5441.8618      26.47121       0.92708969   
    102200   324.62071      1593.7865      5443.6632      26.479973      0.92678291   
    102300   295.27472      5941.2997      5445.4645      26.488735      0.92647634   
    102400   298.9816      -119.55985      5447.2659      26.497498      0.92616996   
    102500   290.1503       2149.9949      5449.0672      26.50626       0.92586379   
    102600   291.45155     -3127.2139      5450.8686      26.515022      0.92555782   
    102700   283.64199      4473.3413      5452.6699      26.523785      0.92525205   
    102800   315.19644     -1076.4466      5454.4712      26.532547      0.92494649   
    102900   291.43888      3020.1392      5456.2726      26.54131       0.92464112   
    103000   297.31079     -10628.167      5458.0739      26.550072      0.92433596   
    103100   290.69489     -4826.2356      5459.8753      26.558834      0.924031     
    103200   250.08364     -2803.7695      5461.6766      26.567597      0.92372624   
    103300   269.15896      962.84603      5463.478       26.576359      0.92342168   
    103400   302.97191     -6185.9247      5465.2793      26.585122      0.92311732   
    103500   294.5556       1588.9828      5467.0807      26.593884      0.92281317   
    103600   287.77347      4423.8438      5468.882       26.602646      0.92250921   
    103700   304.84986     -5081.214       5470.6833      26.611409      0.92220545   
    103800   315.65782     -2409.9797      5472.4847      26.620171      0.9219019    
    103900   293.46069      533.76042      5474.286       26.628934      0.92159854   
    104000   291.92131     -3033.1595      5476.0874      26.637696      0.92129538   
    104100   278.44723      2662.0207      5477.8887      26.646458      0.92099242   
    104200   281.35052      12037.851      5479.6901      26.655221      0.92068967   
    104300   305.08252      1701.9594      5481.4914      26.663983      0.92038711   
    104400   309.55169      1885.4584      5483.2928      26.672746      0.92008474   
    104500   274.27848      559.55791      5485.0941      26.681508      0.91978258   
    104600   290.88456     -7621.5212      5486.8954      26.69027       0.91948062   
    104700   274.13087     -5012.596       5488.6968      26.699033      0.91917885   
    104800   292.28637     -2260.1862      5490.4981      26.707795      0.91887728   
    104900   281.33609     -1643.941       5492.2995      26.716558      0.91857591   
    105000   286.85087     -2456.5172      5494.1008      26.72532       0.91827474   
    105100   293.42924      1457.0162      5495.9022      26.734082      0.91797377   
    105200   293.91315     -4211.9349      5497.7035      26.742845      0.91767299   
    105300   310.79787      8006.57        5499.5049      26.751607      0.91737241   
    105400   268.65147      5686.8445      5501.3062      26.76037       0.91707202   
    105500   275.54653      5998.5084      5503.1075      26.769132      0.91677184   
    105600   285.93029     -3540.7946      5504.9089      26.777894      0.91647185   
    105700   304.93894      1898.3079      5506.7102      26.786657      0.91617205   
    105800   290.76839      34.003482      5508.5116      26.795419      0.91587245   
    105900   273.89275      10172.109      5510.3129      26.804182      0.91557305   
    106000   290.57305     -1627.8935      5512.1143      26.812944      0.91527384   
    106100   298.30581     -760.36088      5513.9156      26.821706      0.91497483   
    106200   281.81532     -6128.4688      5515.717       26.830469      0.91467602   
    106300   288.8707       5091.7049      5517.5183      26.839231      0.9143774    
    106400   312.32425      1326.1168      5519.3196      26.847994      0.91407897   
    106500   309.16774     -5007.6774      5521.121       26.856756      0.91378074   
    106600   307.02483      2890.3802      5522.9223      26.865518      0.9134827    
    106700   281.5941       3028.3698      5524.7237      26.874281      0.91318486   
    106800   283.68056     -1716.9816      5526.525       26.883043      0.91288721   
    106900   285.21091     -7008.8598      5528.3264      26.891806      0.91258976   
    107000   277.41658     -2487.7132      5530.1277      26.900568      0.9122925    
    107100   279.34459     -3089.9842      5531.9291      26.90933       0.91199543   
    107200   301.03552     -3477.1865      5533.7304      26.918093      0.91169856   
    107300   293.96235     -3801.9624      5535.5317      26.926855      0.91140188   
    107400   286.64404      6186.8052      5537.3331      26.935618      0.91110539   
    107500   298.98947      4175.3339      5539.1344      26.94438       0.91080909   
    107600   303.51723      4047.8075      5540.9358      26.953142      0.91051299   
    107700   290.48857     -2780.6487      5542.7371      26.961905      0.91021708   
    107800   289.04638      3714.9717      5544.5385      26.970667      0.90992137   
    107900   293.22984     -3032.0312      5546.3398      26.97943       0.90962584   
    108000   288.55682      3994.4038      5548.1412      26.988192      0.90933051   
    108100   279.60487      3047.5237      5549.9425      26.996954      0.90903537   
    108200   294.72244      1802.7199      5551.7438      27.005717      0.90874042   
    108300   294.06428      2042.9594      5553.5452      27.014479      0.90844566   
    108400   295.06279      4053.8921      5555.3465      27.023242      0.90815109   
    108500   298.19712      5907.7372      5557.1479      27.032004      0.90785671   
    108600   262.60558      1816.7306      5558.9492      27.040766      0.90756253   
    108700   278.3448       1628.7675      5560.7506      27.049529      0.90726853   
    108800   272.97388     -4415.3364      5562.5519      27.058291      0.90697473   
    108900   299.99719      31.860551      5564.3533      27.067054      0.90668111   
    109000   304.80082     -5706.9914      5566.1546      27.075816      0.90638769   
    109100   300.21111     -3471.8876      5567.956       27.084578      0.90609446   
    109200   305.92021      11995.215      5569.7573      27.093341      0.90580141   
    109300   294.22796      4210.6295      5571.5586      27.102103      0.90550856   
    109400   300.20232      4058.8701      5573.36        27.110866      0.90521589   
    109500   302.81344      930.48498      5575.1613      27.119628      0.90492341   
    109600   319.90586     -4269.6569      5576.9627      27.12839       0.90463113   
    109700   314.23004     -2581.5165      5578.764       27.137153      0.90433903   
    109800   324.15131     -7019.2577      5580.5654      27.145915      0.90404712   
    109900   292.54976      6543.1011      5582.3667      27.154678      0.90375539   
    110000   283.56752     -3720.0396      5584.1681      27.16344       0.90346386   
    110100   314.30406     -1144.8788      5585.9694      27.172202      0.90317251   
    110200   330.30169     -5856.5684      5587.7707      27.180965      0.90288136   
    110300   320.17246     -3158.1873      5589.5721      27.189727      0.90259038   
    110400   311.4254       4229.1888      5591.3734      27.19849       0.9022996    
    110500   302.22083     -3659.8446      5593.1748      27.207252      0.90200901   
    110600   312.80154      4186.9054      5594.9761      27.216014      0.9017186    
    110700   322.58228      4410.6229      5596.7775      27.224777      0.90142838   
    110800   300.83793      2478.1157      5598.5788      27.233539      0.90113834   
    110900   318.45389      324.05629      5600.3802      27.242302      0.90084849   
    111000   299.76119     -1329.2925      5602.1815      27.251064      0.90055883   
    111100   293.28418      1713.8083      5603.9828      27.259826      0.90026936   
    111200   283.91975      2609.2336      5605.7842      27.268589      0.89998007   
    111300   318.10761      3061.7752      5607.5855      27.277351      0.89969096   
    111400   309.13548     -2209.3425      5609.3869      27.286114      0.89940204   
    111500   303.06088     -2801.6743      5611.1882      27.294876      0.89911331   
    111600   296.85952     -1976.0219      5612.9896      27.303638      0.89882476   
    111700   301.05871      12819.018      5614.7909      27.312401      0.8985364    
    111800   286.00166     -1937.4805      5616.5923      27.321163      0.89824822   
    111900   293.9224       875.31475      5618.3936      27.329926      0.89796023   
    112000   262.43472      6700.6932      5620.1949      27.338688      0.89767242   
    112100   284.14919     -3276.7896      5621.9963      27.34745       0.8973848    
    112200   307.8514      -3403.0534      5623.7976      27.356213      0.89709736   
    112300   301.32532     -5130.0504      5625.599       27.364975      0.89681011   
    112400   301.95757      3259.8136      5627.4003      27.373738      0.89652304   
    112500   312.39783      4220.8353      5629.2017      27.3825        0.89623615   
    112600   303.58657     -8335.3401      5631.003       27.391262      0.89594944   
    112700   296.24394     -10348.385      5632.8044      27.400025      0.89566292   
    112800   308.69403     -2925.4133      5634.6057      27.408787      0.89537659   
    112900   312.62858     -10781.178      5636.407       27.41755       0.89509043   
    113000   301.05391      1942.8126      5638.2084      27.426312      0.89480446   
    113100   290.10707     -2997.8813      5640.0097      27.435074      0.89451867   
    113200   289.91312     -3507.467       5641.8111      27.443837      0.89423307   
    113300   317.81759     -1897.093       5643.6124      27.452599      0.89394764   
    113400   308.95129      6986.1991      5645.4138      27.461362      0.8936624    
    113500   297.39714      1011.1255      5647.2151      27.470124      0.89337734   
    113600   290.20388     -8889.1405      5649.0165      27.478886      0.89309246   
    113700   302.68592     -6982.2268      5650.8178      27.487649      0.89280777   
    113800   278.72648      9801.4962      5652.6191      27.496411      0.89252325   
    113900   304.71248      972.83085      5654.4205      27.505174      0.89223892   
    114000   315.56151     -8443.2533      5656.2218      27.513936      0.89195477   
    114100   304.12498      1522.3768      5658.0232      27.522698      0.89167079   
    114200   285.18535     -6470.8001      5659.8245      27.531461      0.891387     
    114300   280.18772      3321.3236      5661.6259      27.540223      0.89110339   
    114400   284.70773      1215.6716      5663.4272      27.548986      0.89081996   
    114500   283.3269       1855.7167      5665.2286      27.557748      0.89053671   
    114600   286.39054      709.20036      5667.0299      27.56651       0.89025364   
    114700   278.02926      4572.8166      5668.8312      27.575273      0.88997075   
    114800   309.60385     -4265.8691      5670.6326      27.584035      0.88968804   
    114900   304.59506      6616.5613      5672.4339      27.592798      0.88940551   
    115000   290.38019     -6119.2071      5674.2353      27.60156       0.88912316   
    115100   303.16008     -555.94172      5676.0366      27.610322      0.88884099   
    115200   315.59708     -2907.1425      5677.838       27.619085      0.888559     
    115300   313.14149      563.0242       5679.6393      27.627847      0.88827718   
    115400   294.92397      1381.6995      5681.4407      27.63661       0.88799555   
    115500   283.14983     -676.58871      5683.242       27.645372      0.88771409   
    115600   295.23998      3612.6238      5685.0433      27.654134      0.88743281   
    115700   282.00203      398.44854      5686.8447      27.662897      0.88715171   
    115800   304.49702      6254.4837      5688.646       27.671659      0.88687079   
    115900   291.42031      3592.5051      5690.4474      27.680422      0.88659005   
    116000   295.61477     -1079.9483      5692.2487      27.689184      0.88630948   
    116100   310.85456     -1612.7538      5694.0501      27.697946      0.88602909   
    116200   293.39847      2295.2295      5695.8514      27.706709      0.88574888   
    116300   286.5332       2469.4054      5697.6528      27.715471      0.88546885   
    116400   316.18508      4285.0133      5699.4541      27.724234      0.88518899   
    116500   310.1236       1621.5911      5701.2554      27.732996      0.88490931   
    116600   304.21538      6688.5348      5703.0568      27.741758      0.88462981   
    116700   297.53709      1277.3765      5704.8581      27.750521      0.88435048   
    116800   305.67526     -5130.8088      5706.6595      27.759283      0.88407133   
    116900   311.94488     -7247.0631      5708.4608      27.768046      0.88379235   
    117000   308.43024      1323.481       5710.2622      27.776808      0.88351355   
    117100   306.79293      5806.2095      5712.0635      27.78557       0.88323493   
    117200   303.60339      4936.0571      5713.8649      27.794333      0.88295648   
    117300   317.48077     -2764.5793      5715.6662      27.803095      0.88267821   
    117400   311.91403     -6170.5776      5717.4675      27.811858      0.88240011   
    117500   292.47352     -4309.3044      5719.2689      27.82062       0.88212219   
    117600   298.69949      1712.9542      5721.0702      27.829382      0.88184445   
    117700   284.81287      6940.0325      5722.8716      27.838145      0.88156688   
    117800   294.56545     -1840.5241      5724.6729      27.846907      0.88128948   
    117900   296.37097     -2289.7967      5726.4743      27.85567       0.88101226   
    118000   309.32669      3270.0118      5728.2756      27.864432      0.88073521   
    118100   318.42408     -4998.4717      5730.077       27.873194      0.88045834   
    118200   324.85001     -1185.5764      5731.8783      27.881957      0.88018164   
    118300   321.56106      1937.0565      5733.6796      27.890719      0.87990511   
    118400   280.14979      3541.364       5735.481       27.899482      0.87962876   
    118500   277.72699      906.61042      5737.2823      27.908244      0.87935258   
    118600   287.48853      4758.0704      5739.0837      27.917006      0.87907657   
    118700   293.59107     -3422.0389      5740.885       27.925769      0.87880074   
    118800   295.34081     -10872.902      5742.6864      27.934531      0.87852508   
    118900   307.981        1890.3409      5744.4877      27.943294      0.8782496    
    119000   292.92099      2086.9075      5746.2891      27.952056      0.87797428   
    119100   305.945        2094.5278      5748.0904      27.960818      0.87769914   
    119200   322.01835     -923.9525       5749.8917      27.969581      0.87742417   
    119300   321.36983     -1148.6816      5751.6931      27.978343      0.87714938   
    119400   327.72083      651.30401      5753.4944      27.987106      0.87687475   
    119500   294.05807     -3467.9548      5755.2958      27.995868      0.8766003    
    119600   288.633       -5433.4155      5757.0971      28.00463       0.87632602   
    119700   306.25604      4561.8025      5758.8985      28.013393      0.87605191   
    119800   291.19447     -5289.8421      5760.6998      28.022155      0.87577797   
    119900   284.37168     -5102.9793      5762.5012      28.030918      0.87550421   
    120000   275.26994     -987.93062      5764.3025      28.03968       0.87523061   
Loop time of 4352.11 on 8 procs for 120000 steps with 331 atoms

Performance: 1.191 ns/day, 20.149 hours/ns, 27.573 timesteps/s, 9.127 katom-step/s
98.5% CPU use with 8 MPI tasks x 1 OpenMP threads

MPI task timing breakdown:
Section |  min time  |  avg time  |  max time  |%varavg| %total
---------------------------------------------------------------
Pair    | 2869.4     | 3164.5     | 3493.6     | 401.1 | 72.71
Bond    | 0.31081    | 0.35303    | 0.38983    |   4.6 |  0.01
Neigh   | 223.58     | 235.3      | 248.69     |  47.6 |  5.41
Comm    | 174.09     | 503.19     | 797.13     |1003.2 | 11.56
Output  | 0.58846    | 0.64623    | 0.71448    |   5.1 |  0.01
Modify  | 432.62     | 445.3      | 458.2      |  35.8 | 10.23
Other   |            | 2.872      |            |       |  0.07

Nlocal:         41.375 ave          56 max          23 min
Histogram: 2 1 0 0 0 1 0 0 1 3
Nghost:        2361.38 ave        2673 max        2054 min
Histogram: 1 2 1 0 0 0 0 1 2 1
Neighs:        17131.8 ave       24947 max        8314 min
Histogram: 3 0 0 1 0 0 0 0 1 3

Total # of neighbors = 137054
Ave neighs/atom = 414.06042
Ave special neighs/atom = 0
Neighbor list builds = 12000
Dangerous builds not checked
unfix deform_p
unfix data
undump dump_pos${dir}
undump dump_pos3

# Delete dir to make sure it is not reused
variable dir delete



Total wall time: 1:12:32
