ITEM: TIMESTEP
0
ITEM: NUMBER OF ATOMS
350
ITEM: BOX BOUNDS xy xz yz pp pp pp
-8.0552999999999990e+00 1.5678200000000000e+01 -7.0408999999999997e+00
0.0000000000000000e+00 1.4894400000000001e+01 -1.0144000000000000e+00
0.0000000000000000e+00 1.7461917000000000e+01 6.7500000000000004e-01
ITEM: ATOMS id type x y z
234 3 5.97022 2.79439 6.57758
9 4 0.406459 2.42512 5.71269
13 4 -0.241442 4.69704 7.99607
15 4 -1.45461 7.26704 6.53852
23 4 3.22897 2.79716 4.02219
26 4 5.73825 1.5977 5.5049
30 4 4.77099 4.8296 2.38319
233 3 4.23853 3.00791 8.48518
32 4 3.35152 7.00147 0.581484
33 4 5.05763 3.77136 7.36723
139 2 3.21895 0.660738 3.08071
70 1 2.77457 1.5972 2.62855
74 1 0.669321 5.77429 3.80149
97 2 -2.59919 6.87167 5.30409
108 2 5.62526 3.56714 1.49273
304 3 -0.171282 1.57392 2.21842
140 2 3.35709 1.81921 1.67
141 2 1.65946 1.46969 2.46124
150 2 1.42869 5.11238 4.29337
151 2 0.994089 6.07531 2.7903
152 2 -0.469116 5.45078 3.84895
346 2 6.18084 2.02965 0.800316
207 3 -1.05081 2.34988 4.73236
208 3 0.470445 0.875108 6.35665
212 3 0.151477 3.54385 6.83745
213 3 -1.08733 5.97093 7.316
224 3 1.74608 2.79052 4.88524
225 3 2.35635 1.13193 8.21695
226 3 4.41007 1.97368 4.69886
336 2 6.50451 0.882875 8.42285
230 3 3.56038 4.22006 3.254
232 3 4.19762 5.82069 1.31637
302 2 1.43484 3.82594 2.0982
35 4 3.9256 6.60913 6.20511
303 2 1.66157 4.7725 0.537315
237 3 2.52482 7.06621 5.688
238 3 4.20729 4.96227 6.57459
342 2 -1.72737 5.33493 4.49195
314 3 -3.15787 7.06918 2.99062
299 4 0.366006 2.33569 0.585755
300 1 1.58979 3.69379 1.0018
301 2 2.55881 3.06405 0.660174
6 4 1.44253 1.48424 16.0077
10 4 -0.563007 2.31534 13.4613
12 4 -2.52935 5.06004 16.6044
297 2 3.70126 2.83999 12.1554
16 4 0.257363 5.40696 13.6923
106 2 3.98448 4.63114 17.3611
295 2 1.93036 1.93631 12.0554
28 4 4.00802 3.53616 15.9911
34 4 1.25344 6.77099 9.57304
36 4 4.73707 4.93373 13.2617
37 4 -0.0752217 6.94284 16.1041
66 1 -0.0780193 1.75797 11.7473
17 4 -1.03693 7.2622 11.4855
211 3 -1.08098 3.81127 9.08248
305 3 0.328399 1.92426 17.2192
98 2 1.87183 5.34737 13.0456
104 2 3.14469 1.91327 10.6223
38 4 3.54702 7.23503 11.7204
72 1 6.32689 1.6307 10.2992
128 2 0.258741 2.74187 11.2885
129 2 -1.08917 1.42439 11.4141
130 2 0.75291 0.972908 11.6114
298 2 5.74896 1.64773 14.4221
143 2 5.71519 2.60847 16.3588
145 2 5.26424 1.52872 10.0471
292 1 3.05309 2.02845 12.5728
209 3 0.345085 1.43962 14.4094
294 2 2.9953 2.19722 13.7178
240 3 5.31815 3.81889 12.349
214 3 -0.194609 3.88545 13.6111
25 4 2.98694 2.32682 8.97834
216 3 -0.482227 6.48568 12.8961
228 3 2.7551 2.43307 15.969
236 3 -0.213723 6.73606 10.2806
239 3 4.38549 4.28326 14.653
215 3 -2.95676 7.40108 11.3026
241 3 0.715343 5.91417 15.1418
243 3 -1.6393 6.46128 16.5324
244 3 2.42122 6.98029 10.6174
245 3 3.47844 5.68319 12.7073
338 2 -3.4054 6.18396 12.1076
210 3 -1.84567 3.75627 17.2635
293 1 5.20624 0.605796 14.4806
107 2 1.79195 3.5045 9.12821
242 3 0.77075 7.20606 17.4282
146 2 6.89171 0.664591 10.3967
235 3 1.26655 5.24268 8.83558
328 2 3.02262 7.52828 15.7928
296 2 5.52693 0.461488 11.7148
94 2 -0.912407 1.23437 9.09689
335 2 -0.325089 10.4261 0.182932
19 4 -2.94759 9.41322 8.18902
20 4 -4.27033 11.8401 6.32062
24 4 -0.98465 13.6874 7.54847
39 4 2.31803 9.29547 2.63546
40 4 1.92916 9.49136 8.10483
42 4 0.697652 11.5601 6.04672
75 1 0.811119 10.2376 1.81365
315 3 -2.64962 9.26437 0.962243
99 2 -4.81917 13.0596 2.39754
100 2 -2.91031 12.7793 6.15505
111 2 -0.705927 10.9918 5.1641
153 2 0.111754 9.34713 1.56428
154 2 1.33039 10.64 0.898068
155 2 0.498419 11.0231 2.60394
227 3 -1.77114 14.088 6.16239
248 3 1.28421 8.11376 8.5421
218 3 -2.22615 8.31188 7.28155
219 3 -4.97594 11.5991 4.85871
220 3 -3.81182 10.5594 6.98652
221 3 -5.22128 12.7455 7.19275
309 2 -0.713467 8.58683 3.37158
246 3 1.48581 8.38877 3.77033
247 3 3.03717 8.4385 1.44766
253 3 0.325908 12.7755 7.03527
122 2 -4.24828 9.26379 0.926717
252 3 1.18241 10.2834 6.98323
86 1 -6.07027 13.1058 2.51021
186 2 -6.35769 13.7488 3.37273
306 4 -2.51144 8.51459 2.78033
307 4 -2.08131 10.4239 0.116368
308 1 -1.7146 9.81059 3.97795
310 2 -1.69093 11.9139 0.878727
311 2 -1.46595 10.7845 3.53049
312 2 -1.74047 9.67889 5.08133
313 2 -3.50332 9.67311 3.83475
250 3 -1.91621 12.8574 8.54881
231 3 -0.260899 7.80207 5.68111
185 2 -6.52288 13.5923 1.63498
31 4 1.08439 7.35066 4.90467
18 4 -5.76785 11.3917 3.47908
158 2 3.50315 7.78108 8.59523
7 4 -5.81122 14.4022 7.58423
21 4 -2.63304 9.8876 14.2533
22 4 -3.78273 11.8486 12.1094
41 4 -1.87689 11.6982 9.71841
68 1 -3.70811 8.37256 14.4327
69 1 -0.424785 9.02688 11.62
77 1 1.44105 9.39129 14.5623
101 2 -0.930228 9.95901 14.2324
102 2 -2.87259 10.5133 15.8965
103 2 -5.40904 11.6085 11.6206
112 2 -0.182749 8.38666 15.2513
113 2 -0.329632 11.9681 10.3131
114 2 -0.164758 11.9185 12.9658
127 2 -6.74026 14.0858 13.9653
249 3 -1.68649 10.2051 9.08096
135 2 -3.50604 8.21805 15.5377
136 2 -0.0889981 9.30596 10.554
137 2 0.390968 9.17038 12.3677
138 2 -1.31614 9.61455 11.8943
159 2 1.49022 8.28992 14.3083
160 2 0.405344 10.0424 14.2416
161 2 1.76507 9.73438 15.6709
341 2 -3.87471 14.3505 17.0499
133 2 -2.95955 7.75738 13.7099
222 3 -3.25436 10.8173 13.1413
223 3 -3.74966 13.3797 12.8162
322 2 -5.78228 13.6763 17.1755
251 3 -2.86869 11.8746 10.8787
217 3 -4.0053 9.02075 9.29072
344 2 -1.27391 13.8403 14.4433
318 3 -7.08858 14.0634 8.98752
319 3 -6.36637 12.7415 11.2147
320 1 -4.84913 14.0639 16.5233
321 2 -4.85609 13.5849 15.4582
291 4 -2.87369 14.7046 12.8371
334 2 -4.35363 12.2117 16.9197
317 2 -5.18911 11.9959 8.89181
345 2 -2.37838 14.7453 15.387
1 4 14.4152 1.44515 3.41194
2 1 12.9143 2.36998 2.59841
3 2 13.0726 1.9554 1.50904
4 2 11.8924 2.27334 3.01028
118 2 6.68976 6.47829 0.917751
11 4 11.6656 5.79493 3.49416
46 4 8.30959 1.60455 3.33944
49 4 9.81733 3.95788 2.04493
50 4 6.24898 6.80316 4.21691
51 4 8.43055 6.50995 0.939918
52 4 10.0882 5.57549 8.38191
54 4 9.38876 6.94703 5.40954
257 3 7.09638 1.54008 4.40974
268 3 7.84636 6.82197 4.87702
324 2 12.8191 3.82649 1.20366
95 2 13.3918 2.23924 7.23326
263 3 5.13495 7.09803 5.31985
117 2 10.0875 2.99969 0.676838
120 2 11.0545 4.01881 8.08345
131 2 12.6332 3.89393 4.52745
269 3 9.72055 6.2294 7.01043
267 3 10.5416 6.36774 4.42257
340 2 13.2572 3.53072 2.74493
157 2 4.84527 6.49204 8.43958
173 2 6.41822 5.80384 7.83607
337 2 11.7529 0.809232 2.09664
260 3 9.04074 3.05419 3.09724
261 3 11.2125 4.54312 2.54695
262 3 5.85247 5.47592 3.26001
348 2 9.44918 0.684546 1.27041
264 3 8.88227 5.1555 1.5073
168 2 9.05059 3.37213 7.88932
174 2 7.3017 4.10815 7.89507
132 2 12.636 5.21573 5.84274
67 1 12.8573 4.99195 4.82195
82 1 6.73796 4.93118 8.44293
78 1 8.51833 0.380245 1.87659
115 2 9.37717 0.31154 3.62108
162 2 7.46606 0.841489 1.47831
142 2 7.4341 3.22659 0.227595
323 1 12.6596 4.57348 0.240509
76 1 4.35658 7.39521 7.89722
343 2 12.8136 5.67076 0.523138
71 1 5.48012 3.44044 17.4556
27 4 8.33517 0.913677 13.8495
29 4 6.73892 2.84214 11.8402
119 2 8.46269 5.37895 9.03022
47 4 9.91686 3.32327 14.8504
48 4 11.1428 2.68812 10.5148
55 4 10.9327 5.17965 12.616
73 1 7.78841 4.3995 11.4189
79 1 8.92743 4.30986 16.2883
96 2 12.4195 4.64334 15.0928
81 1 10.8995 1.17382 11.6472
165 2 7.98697 4.1896 16.9276
105 2 7.09752 0.701477 15.0382
109 2 5.97312 6.03702 13.3943
116 2 10.2664 3.09137 16.6308
331 2 5.60945 6.44094 16.5596
121 2 6.74847 6.63778 9.40506
333 2 13.4215 1.9871 13.6854
147 2 7.33948 4.66535 10.2971
148 2 8.88213 4.29079 11.4765
149 2 7.4479 5.15029 12.1913
164 2 9.24218 5.36283 16.3433
265 3 10.8977 6.42744 9.4322
166 2 8.355 4.21425 14.6817
167 2 9.60046 1.98482 9.09908
80 1 9.55286 3.30854 8.9229
169 2 8.86823 3.82355 9.80034
171 2 9.97725 0.826172 10.9481
175 2 6.01752 4.56043 9.28274
172 2 10.5742 1.43908 12.6766
144 2 6.90084 2.43955 9.60161
229 3 7.63724 1.86776 12.8247
258 3 9.63764 1.71067 14.5479
259 3 12.525 2.51429 9.72557
266 3 5.02445 7.20557 11.0224
270 3 11.3423 4.39 13.9105
271 3 10.8801 4.08848 11.4932
274 3 9.66035 6.07461 12.7681
325 2 10.5538 4.99028 17.0956
332 2 7.526 6.15353 16.3785
329 1 6.58584 6.90993 16.6793
56 4 9.07884 7.56149 12.2519
273 3 7.51817 7.50845 11.8436
8 4 13.7772 2.52671 8.84894
170 2 11.7958 0.5563 11.5748
45 4 5.2489 13.5418 2.7669
57 4 9.72664 9.42639 1.14376
58 4 3.35412 11.6334 4.35582
59 4 6.71447 11.5162 1.20171
62 4 5.67363 11.3486 6.34477
126 2 2.79394 13.2328 8.60018
83 1 6.15549 8.42036 3.11965
84 1 9.57315 8.78522 5.51494
85 1 8.55598 9.08913 8.15529
87 1 6.94142 11.1669 4.7711
88 1 5.83013 13.0512 7.22376
110 2 3.42384 9.02409 7.32912
200 2 3.8193 11.1879 0.464095
123 2 8.35706 11.9296 1.53849
163 2 1.38788 13.4721 2.20779
125 2 6.56506 10.2216 2.24198
5 3 6.65432 14.0052 3.67432
156 2 5.06148 8.22909 7.62068
176 2 5.8582 8.03622 2.13757
177 2 7.13758 8.96013 3.18041
178 2 5.21435 8.9109 3.66288
179 2 10.2388 9.01648 4.56739
180 2 10.0622 9.20518 6.52008
181 2 8.43696 9.03823 5.34624
182 2 9.38469 9.64525 7.60702
183 2 7.92546 8.38301 7.48578
187 2 6.65704 10.2402 4.0685
188 2 7.96545 11.0852 5.19648
189 2 6.77021 12.2176 4.37576
190 2 6.49969 13.0007 8.15501
191 2 4.83352 13.5165 7.44328
275 3 9.01316 7.99398 1.08448
277 3 3.25683 10.4883 3.28549
278 3 4.03333 13.0195 3.71836
350 2 6.39267 13.5652 6.25569
280 3 5.62471 12.6132 1.56309
285 3 4.1127 11.1884 5.71473
286 3 6.25324 10.3582 7.4221
349 2 8.31312 12.1523 3.65727
276 3 9.75772 10.2668 2.38659
279 3 1.75422 11.9139 4.90593
43 4 2.92391 10.0278 13.5836
44 4 1.33558 12.4038 12.4917
254 3 3.27566 8.47521 12.7223
330 2 6.58055 7.9157 16.0291
60 4 7.06776 10.0325 8.88401
61 4 2.37864 12.0062 9.77123
63 4 8.44893 10.1363 14.3102
64 4 4.25576 12.0366 15.9665
65 4 8.17448 12.9069 12.8885
89 1 6.73384 9.57545 14.9496
90 1 4.63241 13.5745 14.9045
91 1 2.57542 12.1323 16.8689
92 1 4.15389 12.7387 9.89309
93 1 6.45268 13.2173 12.4006
288 3 4.10844 10.5778 14.6969
290 3 8.24845 11.5106 13.5629
327 2 3.31361 9.2263 16.6589
192 2 7.1564 9.68828 16.1052
193 2 6.72569 8.53608 14.5527
194 2 5.71413 10.0262 14.8445
195 2 4.63602 13.0243 13.9003
196 2 5.65895 13.8795 15.3071
197 2 3.95489 14.4636 14.8842
199 2 2.42073 13.2839 16.7101
326 1 3.56148 8.10491 16.6134
284 3 1.24533 12.6509 10.7795
202 2 4.53035 11.8645 10.5945
203 2 4.179 13.7804 10.5249
204 2 5.85278 12.2954 12.6843
205 2 6.57206 13.4321 11.2772
206 2 6.32904 14.2097 13.0974
53 4 6.41423 7.72215 10.7065
255 3 2.22601 11.1523 12.8141
256 3 1.60262 13.7155 13.3362
272 3 9.93662 8.18073 11.0045
289 3 5.53468 11.754 17.2381
281 3 6.3642 9.24179 10.0255
282 3 7.82445 11.5468 9.47296
339 2 9.37486 10.5131 15.63
287 3 9.11474 8.76593 13.6446
14 4 11.2869 7.7219 10.2484
184 2 8.95208 8.60892 9.06977
124 2 8.30544 11.0447 17.311
198 2 1.72517 11.4554 16.4508
283 3 2.26103 10.6007 9.10895
201 2 4.77249 12.8194 8.91554
316 4 9.06644 12.5728 9.64612
134 2 10.8664 8.55964 14.1112
347 2 4.65921 7.76629 16.7835
ITEM: TIMESTEP
100
ITEM: NUMBER OF ATOMS
350
ITEM: BOX BOUNDS xy xz yz pp pp pp
-8.0552999999999990e+00 1.5678200000000000e+01 -7.0408999999999997e+00
0.0000000000000000e+00 1.4894400000000001e+01 -1.0144000000000000e+00
0.0000000000000000e+00 1.7461917000000000e+01 6.7500000000000004e-01
ITEM: ATOMS id type x y z
234 3 6.10618 2.63533 6.57515
9 4 0.380457 2.26591 5.71833
13 4 -0.176137 4.6594 7.87234
15 4 -1.39021 7.15896 6.527
23 4 3.18917 2.58556 3.95029
26 4 5.77092 1.55669 5.3549
30 4 4.71867 5.00207 2.46085
233 3 4.3487 2.89608 8.48016
71 1 6.22755 2.69063 0.0647969
33 4 5.17799 3.63037 7.39526
139 2 3.45978 0.390499 2.99172
70 1 2.97433 1.29292 2.54802
74 1 0.76909 5.71523 3.96609
97 2 -2.52728 6.77411 5.29653
108 2 5.53528 3.72183 1.62267
304 3 -0.214017 1.40928 2.15759
140 2 3.42906 1.58049 1.54581
141 2 1.85406 1.2171 2.48013
150 2 1.49582 4.97604 4.55098
151 2 0.968959 5.85594 2.84998
152 2 -0.360847 5.4451 4.23084
346 2 6.21327 2.2561 1.08136
207 3 -0.822335 2.22255 4.70262
208 3 0.434461 0.740389 6.41581
212 3 0.246892 3.5698 6.70295
213 3 -1.0445 5.78367 7.20841
224 3 1.88818 2.48359 4.85831
225 3 2.23385 1.14619 8.19742
226 3 4.47666 2.02307 4.57582
336 2 6.8331 0.885503 8.46056
230 3 3.58492 4.18923 3.27609
232 3 4.1877 5.92142 1.30735
302 2 0.860218 3.88162 2.30664
35 4 4.10631 6.42037 6.34887
303 2 1.56829 4.80986 0.698613
237 3 2.55095 6.81377 5.87934
238 3 4.4102 4.91728 6.71275
342 2 -1.70115 5.19853 4.36682
314 3 -3.15839 7.0798 2.92923
299 4 0.386363 2.28637 0.662109
300 1 1.43242 3.74404 1.25957
301 2 2.41573 3.25857 1.45339
343 2 -2.77174 5.6845 0.677657
31 4 1.30395 7.28725 4.88775
6 4 1.30014 1.64694 16.0702
10 4 -0.53601 2.44082 13.399
12 4 -2.57517 5.03323 16.6558
297 2 3.26072 3.0399 12.1324
16 4 0.364885 5.38585 13.6293
106 2 4.01086 4.72615 17.362
295 2 1.74588 1.9214 12.3095
28 4 3.98582 3.45771 15.9732
34 4 1.04061 6.83599 9.56302
242 3 0.838505 7.06035 17.413
37 4 -0.0857906 6.83378 16.1584
66 1 -0.201601 1.95248 11.6316
17 4 -1.17117 7.33177 11.7243
211 3 -1.0295 3.78511 8.98322
305 3 0.247516 2.04946 17.194
98 2 2.01764 5.57579 13.0727
104 2 2.99866 2.03445 10.5997
38 4 3.57683 7.25208 11.7159
72 1 6.37206 1.62281 10.1898
128 2 0.2352 2.76022 10.8782
296 2 4.86181 0.873419 11.2491
130 2 0.369875 0.964048 11.6518
298 2 5.685 1.46062 14.6606
143 2 5.50267 2.24513 16.4603
145 2 5.42781 1.1504 9.73083
292 1 2.84845 2.07719 12.6171
209 3 0.476994 1.45243 14.4041
294 2 2.86632 2.14856 13.7804
291 4 4.11936 0.574515 12.7774
214 3 -0.045338 3.91712 13.5195
25 4 2.92889 2.39915 8.90539
216 3 -0.646422 6.39052 12.9878
228 3 2.6712 2.58451 16.0276
236 3 -0.304991 6.86889 10.3759
239 3 4.45026 4.20116 14.661
215 3 -2.82741 7.45935 11.3979
241 3 0.631637 5.83481 15.122
243 3 -1.60411 6.34512 16.5542
244 3 2.32047 7.06686 10.754
245 3 3.56257 5.59299 12.6323
338 2 -3.52926 6.31488 12.3314
210 3 -1.83947 3.69814 17.1676
235 3 1.38407 5.33179 8.74308
107 2 1.91273 3.79245 8.98347
162 2 0.363546 14.2293 1.93229
19 4 -3.00617 9.51044 8.1099
20 4 -4.27266 11.9501 6.36577
24 4 -0.869329 13.7193 7.53853
39 4 2.34891 9.37845 2.46995
40 4 1.86497 9.42382 8.02622
42 4 0.692754 11.5104 5.99069
75 1 0.972487 10.1744 1.34735
315 3 -2.54031 9.4707 1.04844
99 2 -4.64322 12.8381 2.05341
100 2 -2.95543 12.9384 6.22557
111 2 -0.698107 11.0585 5.02453
153 2 0.0893161 9.46011 1.28685
154 2 1.52541 10.4874 0.383669
155 2 0.716685 11.0508 2.00598
227 3 -1.74771 14.1141 6.21026
248 3 1.20582 8.13907 8.67712
218 3 -2.20565 8.33128 7.32072
219 3 -4.93823 11.6352 4.88263
220 3 -3.64397 10.6964 6.9207
221 3 -5.29066 12.4899 7.41669
309 2 -0.952314 8.67993 3.54271
246 3 1.60478 8.41765 3.69638
247 3 3.232 8.48736 1.45921
253 3 0.385987 12.7429 7.00341
122 2 -4.17609 9.12905 0.784039
252 3 0.890049 10.1977 6.84681
86 1 -6.09106 13.0852 2.37464
186 2 -6.15303 13.7936 3.29957
306 4 -2.65404 8.58973 2.80064
307 4 -2.13665 10.5638 0.0212702
308 1 -1.81733 9.61876 4.28488
310 2 -1.77743 12.0673 0.666049
311 2 -1.64817 10.6932 3.89649
312 2 -1.54002 9.54164 5.38166
313 2 -3.55841 9.68045 3.90547
250 3 -1.75937 12.9822 8.56722
231 3 -0.113322 7.55373 5.71733
185 2 -6.65122 13.5206 1.45738
32 4 3.52696 7.13491 0.627895
18 4 -5.67405 11.5307 3.44724
158 2 3.42284 7.60993 8.29037
7 4 -5.80608 14.3256 7.63248
322 2 -4.57667 13.2264 0.0166606
21 4 -2.72357 9.83203 14.2458
22 4 -3.7966 11.958 12.0411
41 4 -1.775 11.7815 9.66758
68 1 -3.7277 8.34681 14.4706
69 1 -0.404557 9.07132 12.0353
77 1 1.36358 9.33636 14.7901
101 2 -1.00972 9.90539 14.4507
102 2 -2.95346 10.5507 15.8445
103 2 -5.41001 11.703 11.6991
112 2 -0.228225 8.35895 15.4563
113 2 -0.228168 11.9971 10.2998
114 2 -0.127555 11.9102 12.9412
127 2 -7.01399 14.126 13.8639
249 3 -1.87401 10.3727 8.88572
135 2 -3.60203 8.2389 15.6478
136 2 0.214671 9.08554 11.1008
137 2 0.291179 9.20348 13.0835
138 2 -1.29644 9.74857 11.9311
159 2 1.28588 8.25351 14.4022
160 2 0.322233 9.94699 14.7348
161 2 1.77847 9.33027 15.8138
341 2 -4.15963 14.0272 16.2103
293 1 -1.85003 14.6995 14.4502
222 3 -3.27024 10.823 13.1367
223 3 -3.76782 13.5047 12.6132
133 2 -2.92687 7.6671 13.7328
251 3 -3.00233 11.861 10.7442
217 3 -4.19787 8.93211 9.0228
344 2 -1.11042 13.9783 13.9513
318 3 -7.27206 14.0451 8.91621
319 3 -6.65836 12.7888 11.2198
320 1 -5.20619 14.087 16.3984
321 2 -5.81176 13.5417 15.5997
328 2 2.96382 7.83592 15.8633
334 2 -4.41524 12.3142 16.9628
317 2 -5.17047 12.0726 9.04351
345 2 -2.48254 14.2402 15.3707
335 2 -1.37532 11.2463 17.4024
1 4 14.4071 1.44082 3.35627
2 1 12.8826 2.42859 2.6918
3 2 12.7865 2.21032 1.5887
4 2 11.8921 2.30663 3.30603
118 2 6.62252 6.49098 1.09374
11 4 11.5634 5.78929 3.62442
46 4 8.32521 1.45863 3.50647
49 4 9.83381 3.96965 2.00848
50 4 6.30021 6.94087 4.11853
51 4 8.36863 6.56206 1.02273
52 4 10.0475 5.73622 8.39824
54 4 9.2454 6.9802 5.48525
257 3 7.02505 1.42543 4.3841
268 3 7.75735 6.85819 4.90118
324 2 12.8057 3.86945 1.27954
95 2 13.2733 2.26295 7.29307
263 3 5.1739 7.04176 5.30603
117 2 10.5221 3.20825 0.564074
120 2 10.9508 4.23718 7.90007
131 2 12.6662 3.81911 4.47241
269 3 9.55545 6.32959 7.03041
267 3 10.377 6.32567 4.51226
340 2 13.5008 3.49548 2.89278
157 2 5.06733 6.68983 8.46069
173 2 6.58697 5.80705 7.70116
337 2 11.6385 0.937071 2.13474
260 3 9.04934 2.76539 2.69114
261 3 11.0889 4.55414 2.73195
262 3 5.97722 5.69218 3.06817
348 2 9.27189 0.204442 1.57565
264 3 9.05337 5.21862 1.55999
168 2 9.20377 3.62503 7.88099
174 2 7.34307 3.981 8.13566
132 2 12.6933 5.18274 5.87349
67 1 12.8621 4.93177 4.69342
82 1 6.7306 4.96709 8.4301
323 1 12.7226 4.62527 0.342414
115 2 9.47215 0.335493 4.05338
170 2 11.7573 0.620796 11.4935
27 4 8.27655 0.844441 13.8685
29 4 6.83801 2.88532 11.753
119 2 8.41887 5.47032 9.1761
47 4 9.68051 3.44628 14.8977
48 4 11.1204 2.85072 10.4921
55 4 10.8648 5.23129 12.683
73 1 7.82146 4.54618 11.3364
79 1 8.8767 4.47584 16.3059
96 2 12.2814 4.80156 15.1931
81 1 10.8459 1.31704 11.53
165 2 8.11562 4.35088 17.0832
94 2 14.635 1.15566 9.10661
109 2 6.04293 6.11475 13.6259
116 2 10.3207 3.3474 16.5718
331 2 5.47432 6.40065 16.9514
121 2 6.94147 6.63405 9.41544
333 2 13.4122 2.28534 13.6775
147 2 7.41056 4.71415 10.2752
148 2 8.94563 4.4474 11.402
149 2 7.4225 5.31453 12.0397
164 2 9.15061 5.57434 16.155
265 3 11.0676 6.40834 9.3114
166 2 7.99758 4.27865 14.7177
167 2 9.53044 2.0905 8.99645
80 1 9.6387 3.34373 8.94656
169 2 8.84519 3.83416 9.79683
171 2 9.90041 0.833172 11.166
175 2 5.98947 4.9358 9.28054
172 2 10.7157 1.76354 12.5687
144 2 6.80829 2.55172 9.49747
229 3 7.59295 1.8352 12.8162
258 3 9.31062 1.77691 14.5827
259 3 12.5028 2.56441 9.81099
266 3 4.94026 7.29831 11.0293
270 3 11.1163 4.61514 14.0814
271 3 10.8501 4.12171 11.5832
274 3 9.5601 6.0842 12.7024
325 2 10.6195 5.09756 17.1864
332 2 7.27037 5.96934 16.5506
329 1 6.48204 6.83855 16.8155
240 3 5.51794 3.73809 12.3391
129 2 14.3373 1.7639 11.3866
8 4 13.7105 2.55001 8.86781
146 2 7.16304 0.845346 10.5576
36 4 4.88753 4.95655 13.2442
142 2 6.14701 4.02517 17.4271
273 3 7.50967 7.55106 11.8057
45 4 5.17843 13.6129 2.76672
57 4 9.85 9.23529 1.26663
58 4 3.29922 11.6032 4.43651
59 4 6.61773 11.6543 1.02654
62 4 5.73411 11.3086 6.38527
126 2 2.78017 12.9738 8.36418
83 1 6.38327 8.65831 3.10858
84 1 9.82299 8.76535 5.58055
85 1 8.50116 8.82192 8.2618
87 1 7.04181 11.3237 4.83989
88 1 5.88965 13.0463 7.21459
110 2 3.34741 9.00112 7.27368
200 2 3.97129 11.5962 0.511289
123 2 8.21153 12.0056 1.44166
163 2 1.69945 13.219 2.80646
125 2 6.43185 10.1973 1.826
5 3 6.50571 14.0253 3.6313
156 2 5.0941 8.48086 7.73495
176 2 5.95176 8.45053 2.03445
177 2 7.30152 9.24803 3.05374
178 2 5.5873 9.14331 3.81794
179 2 10.3766 8.79544 4.59351
180 2 10.4825 9.03401 6.41989
181 2 8.85425 9.32682 5.58947
182 2 9.3809 9.51312 7.95466
183 2 8.17186 8.18829 7.48061
187 2 6.77071 10.2704 4.25169
188 2 8.05335 11.3015 5.3701
189 2 6.80559 12.2753 4.33449
190 2 6.28653 12.9383 8.25975
191 2 4.81249 13.4664 7.11085
275 3 9.11123 7.91472 1.14574
277 3 3.2913 10.5028 3.25805
278 3 3.96956 13.0466 3.66827
350 2 6.62612 13.4996 6.52222
280 3 5.70592 12.7433 1.53704
285 3 4.1976 11.1111 5.66349
286 3 6.07723 10.2178 7.51382
349 2 8.30364 12.1798 3.51738
276 3 9.85517 10.0733 2.59064
279 3 1.76339 12.0066 4.93114
76 1 4.47989 7.50303 7.9171
78 1 1.46009 14.1611 2.34494
43 4 2.79836 9.86574 13.5908
44 4 1.44397 12.3491 12.5843
254 3 3.35388 8.52716 12.7669
330 2 6.51897 7.76165 16.103
60 4 7.14328 10.0813 8.88718
61 4 2.41086 11.9032 9.71036
63 4 8.39706 10.0079 14.4708
64 4 4.21916 12.0232 15.8345
65 4 8.14114 12.8348 12.8347
89 1 6.67996 9.40235 14.9059
90 1 4.69324 13.7261 15.1013
91 1 2.60187 12.3081 16.9072
92 1 4.07458 12.8303 9.8201
93 1 6.41059 13.3083 12.3752
288 3 3.89529 10.5219 14.7566
290 3 8.31493 11.4438 13.6422
327 2 3.75694 9.4087 16.5937
192 2 6.92114 9.47264 16.1133
193 2 6.61488 8.32557 14.4303
194 2 5.75113 9.96575 14.6618
195 2 3.71438 13.8593 14.5419
196 2 5.56094 13.4554 14.4299
197 2 4.84003 14.5853 15.8234
199 2 2.22017 13.3166 16.6085
326 1 3.67656 8.32508 16.6705
284 3 1.30081 12.5573 10.6833
202 2 4.47819 12.0576 10.6926
203 2 3.90029 13.8482 10.4079
204 2 5.84908 12.4839 12.9636
205 2 6.35313 13.2165 11.2419
206 2 6.37022 14.3627 12.8473
53 4 6.44047 7.76943 10.654
255 3 2.40745 11.1899 12.8933
256 3 1.79872 13.7733 13.1071
272 3 10.215 8.11078 11.1254
289 3 5.50186 11.863 17.0026
281 3 6.42459 9.28132 10.0126
282 3 7.95559 11.4476 9.31743
339 2 9.3718 10.2629 15.835
287 3 9.12147 8.80995 13.6111
14 4 11.4119 7.72774 10.1703
184 2 8.6907 8.24881 9.22411
347 2 4.73463 7.85023 16.5905
198 2 1.87963 11.4787 16.6155
56 4 9.09942 7.5979 12.2387
201 2 4.76932 12.9379 8.92587
316 4 8.94483 12.5712 9.65477
134 2 10.897 8.43518 14.1089
283 3 2.33057 10.4841 9.0856
105 2 0.0289103 14.5944 15.0018
124 2 8.41372 10.9491 17.4262
ITEM: TIMESTEP
200
ITEM: NUMBER OF ATOMS
350
ITEM: BOX BOUNDS xy xz yz pp pp pp
-8.0552999999999990e+00 1.5678200000000000e+01 -7.0408999999999997e+00
0.0000000000000000e+00 1.4894400000000001e+01 -1.0144000000000000e+00
0.0000000000000000e+00 1.7461917000000000e+01 6.7500000000000004e-01
ITEM: ATOMS id type x y z
234 3 6.26794 2.60444 6.68616
9 4 0.54737 2.16457 5.52865
13 4 -0.222042 4.72438 7.7938
15 4 -1.27531 7.21896 6.5055
23 4 3.27825 2.50852 3.88702
26 4 5.88864 1.66902 5.42317
30 4 4.82269 4.9372 2.55767
233 3 4.45175 2.81323 8.62796
71 1 6.26654 2.83605 0.0302744
33 4 5.32072 3.56991 7.52721
139 2 3.9033 0.383332 2.7819
70 1 3.16717 1.22588 2.44741
74 1 0.793615 5.5388 4.04009
97 2 -2.3149 6.81289 5.19542
108 2 5.68868 3.72136 1.69867
304 3 -0.460755 1.48002 1.95219
140 2 3.51736 1.8036 1.50675
141 2 2.1046 0.943931 2.47684
150 2 1.6784 4.83374 4.28138
151 2 0.729565 5.74194 2.91765
152 2 -0.19907 5.16709 4.47381
346 2 6.39972 2.44174 1.04784
207 3 -0.74003 2.27645 4.44247
208 3 0.574836 0.755878 6.26408
212 3 0.449492 3.45399 6.6669
213 3 -1.25758 5.74107 7.16644
224 3 1.90778 2.40788 4.6184
225 3 2.18462 1.4177 8.30306
226 3 4.58503 2.08742 4.6666
336 2 6.82862 0.96547 8.27171
230 3 3.62325 4.1792 3.28161
232 3 4.25088 5.84907 1.40984
302 2 1.09731 3.81326 2.40131
35 4 4.1791 6.45781 6.32049
303 2 1.49592 4.73057 0.833525
237 3 2.58575 6.7445 5.85297
238 3 4.57485 4.81176 6.77387
342 2 -1.70054 5.20487 4.76284
314 3 -3.147 7.09941 2.95148
299 4 0.278593 2.30295 0.736033
300 1 1.4249 3.70247 1.35559
301 2 2.39969 3.14929 1.24609
32 4 3.46159 7.01841 0.685543
31 4 1.36838 7.1713 4.84708
106 2 4.81164 3.8681 0.0210538
242 3 1.72477 6.38264 0.0623472
6 4 1.2247 1.44766 16.0547
10 4 -0.571526 2.44659 13.3956
12 4 -2.5826 5.10045 16.6217
297 2 3.39029 3.04371 12.1938
16 4 0.273416 5.58712 13.6123
36 4 4.7688 4.86311 13.3186
295 2 1.67455 2.05588 12.2082
28 4 3.96642 3.44057 15.9789
34 4 1.15642 6.86891 9.52552
345 2 4.26574 0.591706 14.9599
37 4 -0.11646 6.87933 16.2037
66 1 -0.277012 1.82227 11.6558
17 4 -1.11332 7.44227 11.5864
211 3 -0.895554 3.78228 8.98659
305 3 0.321712 2.04681 17.2114
98 2 1.72734 5.75899 12.8401
104 2 2.8008 2.40969 10.6074
38 4 3.53005 7.18758 11.8278
72 1 6.49129 1.39799 10.1672
128 2 -0.00900478 2.82262 11.0827
296 2 4.74285 0.893143 10.8872
130 2 0.612938 1.06776 11.5716
298 2 5.66279 1.50567 14.0777
143 2 5.44423 2.19822 16.5329
145 2 5.6362 1.01726 9.54391
292 1 2.78382 2.1351 12.5533
209 3 0.336325 1.39851 14.3654
294 2 2.79274 2.24005 13.7268
291 4 4.02186 0.62567 12.5498
214 3 -0.0888715 3.96152 13.4518
25 4 2.9889 2.5313 8.91842
216 3 -0.774812 6.59157 12.9968
228 3 2.63524 2.45711 15.9986
236 3 -0.279794 6.84345 10.3198
239 3 4.43908 4.22653 14.74
215 3 -3.04399 7.48935 11.1491
241 3 0.5743 5.89666 15.1321
243 3 -1.63823 6.40363 16.4764
244 3 2.35226 7.04695 10.5938
245 3 3.46792 5.53816 12.7011
338 2 -3.59264 6.38306 12.1583
210 3 -1.86538 3.83415 17.1987
240 3 5.42403 3.58391 12.2478
235 3 1.3167 5.42245 8.75692
328 2 3.21104 7.6156 15.8041
107 2 2.20219 4.01171 8.76448
162 2 0.594791 14.2102 1.72651
19 4 -2.84334 9.51925 8.01193
20 4 -4.22744 12.016 6.34825
24 4 -0.832294 13.7809 7.47215
39 4 2.41178 9.29599 2.48053
40 4 1.85835 9.41171 7.92426
42 4 0.645038 11.5644 6.00153
75 1 1.127 10.1683 1.3436
315 3 -2.78217 9.88488 1.34633
99 2 -4.56232 12.6756 2.13132
100 2 -2.93594 13.018 6.23386
111 2 -0.708832 11.1245 4.9958
153 2 0.12185 9.89227 1.75861
154 2 1.32656 9.64814 0.351726
155 2 1.40134 11.3028 1.40139
227 3 -1.65841 14.1423 6.14519
248 3 1.06025 8.14298 8.61068
218 3 -2.04816 8.32132 7.27154
219 3 -4.95687 11.7068 4.92931
220 3 -3.59674 10.6066 6.80751
221 3 -5.11802 12.7688 7.45686
309 2 -1.04706 8.77576 3.60042
246 3 1.69375 8.1983 3.64862
247 3 3.3206 8.42266 1.44382
253 3 0.409614 12.8166 6.95578
122 2 -4.12851 9.02152 0.762644
252 3 1.05359 10.2219 6.90306
86 1 -5.93141 13.007 2.24723
186 2 -6.06681 13.9268 2.8209
306 4 -2.69326 8.6576 2.88347
307 4 -2.13645 10.7837 0.250837
308 1 -1.95619 9.75278 4.36458
310 2 -1.79619 12.3995 0.814777
311 2 -1.78107 10.7767 3.9717
312 2 -1.76821 9.67774 5.46405
313 2 -3.65983 9.4194 4.28641
250 3 -1.6202 13.0679 8.61427
231 3 0.0621327 7.62198 5.7559
185 2 -6.3039 13.2544 1.24214
322 2 -4.85692 13.2647 0.186818
18 4 -5.60956 11.4745 3.50037
158 2 3.50988 7.55618 8.30151
7 4 -5.79876 14.4205 7.6781
335 2 -0.3725 10.3696 0.138568
279 3 1.77969 11.799 4.97743
163 2 0.966763 13.1147 3.36352
21 4 -2.79862 9.98518 14.287
22 4 -3.75392 11.9645 12.0259
41 4 -1.83109 11.81 9.62379
68 1 -3.84079 8.48344 14.5431
69 1 -0.489003 9.16685 11.8478
77 1 1.26369 9.39189 14.6356
101 2 -1.14269 9.91906 14.4459
102 2 -2.95846 10.7353 16.0182
103 2 -5.31609 11.5232 11.5914
112 2 -0.280984 8.45708 15.4511
113 2 -0.331005 11.7642 10.5247
114 2 -0.0689883 12.3922 13.4675
127 2 -6.88786 14.0208 13.748
249 3 -1.8387 10.3588 8.96538
135 2 -3.76259 8.32616 15.6796
136 2 0.271648 9.28102 10.9887
137 2 0.0950953 9.30612 12.9314
138 2 -1.48921 9.80044 11.7061
159 2 1.23152 8.29446 14.3229
160 2 0.205723 9.88617 14.6566
161 2 1.88052 9.63589 15.6966
341 2 -4.17359 14.0431 16.6529
293 1 -1.99736 14.7333 14.2199
222 3 -3.29121 10.893 13.1287
223 3 -3.90033 13.5086 12.5516
105 2 -0.0387111 14.614 14.7748
251 3 -2.89298 12.0069 10.6928
217 3 -3.93683 8.96959 8.99972
344 2 -1.49092 13.6923 14.2206
318 3 -7.12132 14.1223 9.10309
284 3 1.20464 12.4048 10.6819
320 1 -5.28695 13.9739 16.5712
321 2 -5.7418 13.3306 15.6901
133 2 -3.05136 7.76017 13.9215
334 2 -4.39279 12.2261 16.8091
317 2 -5.32532 12.1324 9.04921
283 3 2.32118 10.4229 9.0499
1 4 14.3408 1.45709 3.24325
2 1 12.7699 2.45454 2.62891
3 2 12.2975 2.24029 1.62197
4 2 12.0708 2.31482 3.4745
118 2 6.61389 6.61658 1.18702
11 4 11.6682 5.59274 3.67623
46 4 8.31653 1.40032 3.43487
49 4 9.76034 3.77214 2.09281
50 4 6.3122 7.02856 4.22724
51 4 8.32016 6.47381 1.18822
52 4 10.093 5.60561 8.37191
54 4 9.38451 6.98034 5.52448
257 3 7.07329 1.54102 4.43422
268 3 7.82845 6.96838 4.88499
324 2 12.7687 3.81623 1.16429
95 2 13.3111 2.37286 7.15801
263 3 5.12927 7.25039 5.28412
117 2 10.4199 3.06396 0.666695
120 2 11.09 4.11492 8.14094
131 2 12.6786 3.74939 4.97696
269 3 9.65044 6.23308 7.05932
267 3 10.5357 6.26155 4.59381
340 2 13.25 3.52304 2.65878
157 2 5.11831 6.80555 8.54868
173 2 6.83666 5.61975 7.40229
337 2 11.5834 0.944989 2.33577
260 3 9.05239 2.57162 2.73443
261 3 11.0447 4.35087 2.7787
262 3 5.93159 5.74501 3.3155
115 2 9.49416 0.328915 4.12446
264 3 8.79923 5.05208 1.6177
168 2 9.06675 3.4437 7.96856
174 2 7.48736 3.96248 8.30557
132 2 12.4067 5.32642 5.89838
67 1 12.8609 4.91284 4.98732
82 1 6.86433 4.97917 8.33403
323 1 12.6422 4.59871 0.27353
343 2 12.7948 5.70274 0.564934
170 2 11.6873 0.493694 11.2462
27 4 8.35138 0.978606 13.7788
29 4 6.67171 2.77123 11.7583
119 2 8.53892 5.38885 9.22777
47 4 9.64612 3.51628 14.8879
48 4 11.1047 2.84893 10.4706
55 4 10.8493 5.28359 12.6332
73 1 7.73893 4.38577 11.3481
79 1 8.80016 4.51129 16.3678
96 2 12.1407 4.85649 15.0995
81 1 10.8415 1.25937 11.4997
165 2 7.94232 4.27904 17.1668
94 2 14.6312 1.17571 9.03373
109 2 5.95545 6.06198 13.5229
116 2 10.24 3.47853 16.6069
331 2 5.44516 6.49514 16.9724
121 2 6.70426 6.65549 9.27281
333 2 13.4272 2.29618 13.6841
147 2 7.40754 4.65685 10.2371
148 2 8.84394 4.17029 11.4425
149 2 7.35354 5.0484 12.1468
164 2 9.1553 5.57289 16.4017
265 3 11.0039 6.49798 9.28085
166 2 7.97641 4.36496 14.775
167 2 9.58663 2.03944 8.99981
80 1 9.59956 3.29181 8.92648
169 2 8.87804 3.73457 9.82886
171 2 9.80241 0.964146 11.021
175 2 6.03124 5.02093 9.15402
172 2 10.7823 1.55331 12.6011
144 2 7.08825 2.31195 9.61501
229 3 7.57795 1.93568 12.6936
258 3 9.23494 2.00262 14.6231
259 3 12.4678 2.70078 9.63752
266 3 5.01319 7.20765 11.1972
270 3 11.2203 4.48509 13.9695
271 3 10.8118 4.07477 11.5362
274 3 9.52498 6.1395 12.9249
325 2 10.5389 5.08801 17.2287
332 2 7.28818 6.07564 16.6241
329 1 6.48252 6.91316 16.9457
273 3 7.58966 7.44205 11.7109
146 2 7.187 0.636341 10.538
8 4 13.7324 2.62974 8.75405
129 2 14.3608 1.34974 11.3353
142 2 6.01926 4.30872 17.2659
45 4 5.24303 13.6051 2.84445
57 4 9.96061 9.22009 1.38731
58 4 3.25255 11.638 4.39952
59 4 6.54633 11.6635 1.06713
62 4 5.64403 11.3725 6.42932
126 2 2.5617 13.0474 8.36863
83 1 6.38189 8.72189 3.20464
84 1 9.80384 8.77653 5.68877
85 1 8.59287 8.8122 8.31488
87 1 7.02543 11.323 5.07169
88 1 5.84862 13.1266 7.13697
110 2 3.36119 8.88503 7.16643
200 2 3.44864 11.6058 0.303296