ITEM: TIMESTEP
0
ITEM: NUMBER OF ATOMS
350
ITEM: BOX BOUNDS xy xz yz pp pp pp
-8.0552999999999990e+00 1.5678200000000000e+01 -7.0408999999999997e+00
0.0000000000000000e+00 1.4745456000000001e+01 -1.0144000000000000e+00
0.0000000000000000e+00 1.7638300000000001e+01 6.6825000000000001e-01
ITEM: ATOMS id type x y z
234 3 5.97022 2.76644 6.64402
9 4 0.406459 2.40087 5.7704
13 4 -0.241442 4.65007 8.07683
15 4 -1.45461 7.19437 6.60457
23 4 3.22897 2.76919 4.06281
26 4 5.73825 1.58172 5.56051
30 4 4.77099 4.7813 2.40726
233 3 4.23853 2.97784 8.57089
32 4 3.35152 6.93145 0.587357
33 4 5.05763 3.73364 7.44164
139 2 3.21895 0.654131 3.11183
70 1 2.77457 1.58122 2.6551
74 1 0.669321 5.71655 3.83989
97 2 -2.59919 6.80296 5.35766
108 2 5.62526 3.53147 1.5078
304 3 -0.171282 1.55818 2.24083
140 2 3.35709 1.80102 1.68687
141 2 1.65946 1.455 2.4861
150 2 1.42869 5.06125 4.33674
151 2 0.994089 6.01456 2.81849
152 2 -0.469116 5.39627 3.88783
346 2 6.18084 2.00935 0.8084
207 3 -1.05081 2.32638 4.78016
208 3 0.470445 0.866356 6.42086
212 3 0.151477 3.50841 6.90652
213 3 -1.08733 5.91122 7.3899
224 3 1.74608 2.76262 4.93459
225 3 2.35635 1.12061 8.29995
226 3 4.41007 1.95395 4.74633
336 2 6.50451 0.874046 8.50793
230 3 3.56038 4.17786 3.28687
232 3 4.19762 5.76248 1.32967
302 2 1.43484 3.78768 2.11939
35 4 3.9256 6.54304 6.26779
303 2 1.66157 4.72478 0.542742
237 3 2.52482 6.99554 5.74546
238 3 4.20729 4.91265 6.641
342 2 -1.72737 5.28158 4.53732
314 3 -3.15787 6.99848 3.02083
299 4 0.366006 2.31234 0.591672
300 1 1.58979 3.65685 1.01192
301 2 2.55881 3.03341 0.666843
6 4 1.44253 1.4694 16.1694
10 4 -0.563007 2.29219 13.5973
12 4 -2.52935 5.00944 16.7722
297 2 3.70126 2.81159 12.2782
16 4 0.257363 5.35289 13.8306
106 2 3.98448 4.58483 17.5365
295 2 1.93036 1.91695 12.1772
28 4 4.00802 3.50079 16.1526
34 4 1.25344 6.70328 9.66973
36 4 4.73707 4.8844 13.3957
37 4 -0.0752217 6.87341 16.2668
66 1 -0.0780193 1.74039 11.866
17 4 -1.03693 7.18958 11.6015
211 3 -1.08098 3.77316 9.17422
305 3 0.328399 1.90502 17.3931
98 2 1.87183 5.2939 13.1774
104 2 3.14469 1.89413 10.7296
38 4 3.54702 7.16268 11.8387
72 1 6.32689 1.6144 10.4032
128 2 0.258741 2.71445 11.4025
129 2 -1.08917 1.41015 11.5294
130 2 0.75291 0.963179 11.7287
298 2 5.74896 1.63125 14.5678
143 2 5.71519 2.58238 16.524
145 2 5.26424 1.51343 10.1486
292 1 3.05309 2.00817 12.6998
209 3 0.345085 1.42522 14.5549
294 2 2.9953 2.17525 13.8564
240 3 5.31815 3.7807 12.4737
214 3 -0.194609 3.84659 13.7486
25 4 2.98694 2.30356 9.06903
216 3 -0.482227 6.42082 13.0263
228 3 2.7551 2.40874 16.1304
236 3 -0.213723 6.6687 10.3845
239 3 4.38549 4.24043 14.801
215 3 -2.95676 7.32707 11.4167
241 3 0.715343 5.85503 15.2947
243 3 -1.6393 6.39667 16.6994
244 3 2.42122 6.91049 10.7246
245 3 3.47844 5.62636 12.8357
338 2 -3.4054 6.12212 12.2299
210 3 -1.84567 3.71871 17.4378
293 1 5.20624 0.599738 14.6268
107 2 1.79195 3.46946 9.22042
242 3 0.77075 7.134 17.6042
146 2 6.89171 0.657945 10.5017
235 3 1.26655 5.19025 8.92483
328 2 3.02262 7.45299 15.9523
296 2 5.52693 0.456873 11.8332
94 2 -0.912407 1.22203 9.18878
335 2 -0.325089 10.3218 0.18478
19 4 -2.94759 9.31909 8.27173
20 4 -4.27033 11.7217 6.38447
24 4 -0.98465 13.5505 7.62472
39 4 2.31803 9.20252 2.66208
40 4 1.92916 9.39644 8.1867
42 4 0.697652 11.4445 6.10779
75 1 0.811119 10.1353 1.83197
315 3 -2.64962 9.17172 0.971963
99 2 -4.81917 12.929 2.42176
100 2 -2.91031 12.6515 6.21722
111 2 -0.705927 10.8819 5.21627
153 2 0.111754 9.25366 1.58008
154 2 1.33039 10.5336 0.90714
155 2 0.498419 10.9128 2.63024
227 3 -1.77114 13.9471 6.22464
248 3 1.28421 8.03263 8.62838
218 3 -2.22615 8.22876 7.3551
219 3 -4.97594 11.4831 4.90778
220 3 -3.81182 10.4538 7.05709
221 3 -5.22128 12.6181 7.2654
309 2 -0.713467 8.50096 3.40564
246 3 1.48581 8.30488 3.80842
247 3 3.03717 8.35411 1.46229
253 3 0.325908 12.6477 7.10634
122 2 -4.24828 9.17115 0.936078
252 3 1.18241 10.1805 7.05376
86 1 -6.07027 12.9747 2.53557
186 2 -6.35769 13.6113 3.4068
306 4 -2.51144 8.42945 2.80841
307 4 -2.08131 10.3197 0.117543
308 1 -1.7146 9.71249 4.01813
310 2 -1.69093 11.7947 0.887603
311 2 -1.46595 10.6767 3.56615
312 2 -1.74047 9.5821 5.13265
313 2 -3.50332 9.57638 3.87349
250 3 -1.91621 12.7289 8.63517
231 3 -0.260899 7.72405 5.7385
185 2 -6.52288 13.4564 1.65149
31 4 1.08439 7.27715 4.95421
18 4 -5.76785 11.2778 3.51422
158 2 3.50315 7.70327 8.68205
7 4 -5.81122 14.2582 7.66084
21 4 -2.63304 9.78873 14.3972
22 4 -3.78273 11.7301 12.2317
41 4 -1.87689 11.5812 9.81657
68 1 -3.70811 8.28883 14.5785
69 1 -0.424785 8.93661 11.7373
77 1 1.44105 9.29738 14.7094
101 2 -0.930228 9.85942 14.3762
102 2 -2.87259 10.4082 16.057
103 2 -5.40904 11.4924 11.738
112 2 -0.182749 8.30279 15.4054
113 2 -0.329632 11.8484 10.4173
114 2 -0.164758 11.7993 13.0967
127 2 -6.74026 13.945 14.1063
249 3 -1.68649 10.1031 9.17269
135 2 -3.50604 8.13587 15.6946
136 2 -0.0889981 9.2129 10.6606
137 2 0.390968 9.07867 12.4926
138 2 -1.31614 9.51841 12.0145
159 2 1.49022 8.20702 14.4528
160 2 0.405344 9.94201 14.3854
161 2 1.76507 9.63703 15.8292
341 2 -3.87471 14.207 17.2221
133 2 -2.95955 7.67981 13.8484
222 3 -3.25436 10.7091 13.2741
223 3 -3.74966 13.2459 12.9457
322 2 -5.78228 13.5395 17.349
251 3 -2.86869 11.7559 10.9885
217 3 -4.0053 8.93054 9.38457
344 2 -1.27391 13.7019 14.5891
318 3 -7.08858 13.9228 9.07831
319 3 -6.36637 12.6141 11.328
320 1 -4.84913 13.9233 16.6902
321 2 -4.85609 13.4491 15.6143
291 4 -2.87369 14.5575 12.9668
334 2 -4.35363 12.0896 17.0906
317 2 -5.18911 11.8759 8.98162
345 2 -2.37838 14.5978 15.5424
1 4 14.4152 1.43069 3.4464
2 1 12.9143 2.34628 2.62466
3 2 13.0726 1.93584 1.52428
4 2 11.8924 2.25061 3.04068
118 2 6.68976 6.41351 0.927022
11 4 11.6656 5.73698 3.52945
46 4 8.30959 1.58851 3.37317
49 4 9.81733 3.9183 2.06559
50 4 6.24898 6.73513 4.25951
51 4 8.43055 6.44485 0.949412
52 4 10.0882 5.51974 8.46658
54 4 9.38876 6.87756 5.46418
257 3 7.09638 1.52468 4.45428
268 3 7.84636 6.75375 4.92629
324 2 12.8191 3.78823 1.21582
95 2 13.3918 2.21685 7.30632
263 3 5.13495 7.02705 5.37359
117 2 10.0875 2.96969 0.683675
120 2 11.0545 3.97862 8.1651
131 2 12.6332 3.85499 4.57318
269 3 9.72055 6.16711 7.08125
267 3 10.5416 6.30406 4.46724
340 2 13.2572 3.49541 2.77266
157 2 4.84527 6.42712 8.52483
173 2 6.41822 5.7458 7.91522
337 2 11.7529 0.80114 2.11781
260 3 9.04074 3.02365 3.12852
261 3 11.2125 4.49769 2.57267
262 3 5.85247 5.42116 3.29294
348 2 9.44918 0.6777 1.28324
264 3 8.88227 5.10394 1.52253
168 2 9.05059 3.33841 7.96901
174 2 7.3017 4.06706 7.97482
132 2 12.636 5.16357 5.90176
67 1 12.8573 4.94203 4.87066
82 1 6.73796 4.88187 8.52821
78 1 8.51833 0.376443 1.89554
115 2 9.37717 0.308425 3.65766
162 2 7.46606 0.833074 1.49324
142 2 7.4341 3.19433 0.229894
323 1 12.6596 4.52775 0.242939
76 1 4.35658 7.32126 7.97699
343 2 12.8136 5.61406 0.528422
71 1 5.48012 3.40604 17.6319
27 4 8.33517 0.904541 13.9894
29 4 6.73892 2.81372 11.9598
119 2 8.46269 5.32517 9.12143
47 4 9.91686 3.29004 15.0004
48 4 11.1428 2.66124 10.6211
55 4 10.9327 5.12785 12.7435
73 1 7.78841 4.3555 11.5342
79 1 8.92743 4.26676 16.4529
96 2 12.4195 4.59691 15.2453
81 1 10.8995 1.16208 11.7648
165 2 7.98697 4.1477 17.0986
105 2 7.09752 0.694462 15.1901
109 2 5.97312 5.97665 13.5296
116 2 10.2664 3.06046 16.7988
331 2 5.60945 6.37653 16.7269
121 2 6.74847 6.5714 9.50006
333 2 13.4215 1.96723 13.8236
147 2 7.33948 4.61869 10.4011
148 2 8.88213 4.24788 11.5924
149 2 7.4479 5.09878 12.3144
164 2 9.24218 5.3092 16.5084
265 3 10.8977 6.36316 9.52748
166 2 8.355 4.17211 14.83
167 2 9.60046 1.96497 9.19099
80 1 9.55286 3.27545 9.01303
169 2 8.86823 3.78531 9.89933
171 2 9.97725 0.81791 11.0587
175 2 6.01752 4.51483 9.3765
172 2 10.5742 1.42468 12.8046
144 2 6.90084 2.41515 9.6986
229 3 7.63724 1.84908 12.9542
258 3 9.63764 1.69357 14.6949
259 3 12.525 2.48915 9.82381
266 3 5.02445 7.13351 11.1337
270 3 11.3423 4.3461 14.051
271 3 10.8801 4.04759 11.6093
274 3 9.66035 6.01386 12.8971
325 2 10.5538 4.94038 17.2683
332 2 7.526 6.092 16.5439
329 1 6.58584 6.84083 16.8478
56 4 9.07884 7.48588 12.3757
273 3 7.51817 7.43337 11.9633
8 4 13.7772 2.50144 8.93832
170 2 11.7958 0.550737 11.6917
45 4 5.2489 13.4064 2.79485
57 4 9.72664 9.33212 1.15532
58 4 3.35412 11.5171 4.39982
59 4 6.71447 11.4011 1.21385
62 4 5.67363 11.2351 6.40885
126 2 2.79394 13.1005 8.68705
83 1 6.15549 8.33616 3.15116
84 1 9.57315 8.69736 5.57065
85 1 8.55598 8.99823 8.23766
87 1 6.94142 11.0553 4.81929
88 1 5.83013 12.9207 7.29673
110 2 3.42384 8.93385 7.40315
200 2 3.8193 11.0761 0.468782
123 2 8.35706 11.8103 1.55404
163 2 1.38788 13.3373 2.23009
125 2 6.56506 10.1194 2.26462
5 3 6.65432 13.8652 3.71144
156 2 5.06148 8.1468 7.69766
176 2 5.8582 7.95586 2.15916
177 2 7.13758 8.87053 3.21254
178 2 5.21435 8.8218 3.69988
179 2 10.2388 8.92631 4.61353
180 2 10.0622 9.11313 6.58594
181 2 8.43696 8.94785 5.40024
182 2 9.38469 9.5488 7.68386
183 2 7.92546 8.29918 7.56139
187 2 6.65704 10.1378 4.1096
188 2 7.96545 10.9744 5.24897
189 2 6.77021 12.0955 4.41996
190 2 6.49969 12.8707 8.23738
191 2 4.83352 13.3813 7.51847
275 3 9.01316 7.91404 1.09543
277 3 3.25683 10.3834 3.31868
278 3 4.03333 12.8893 3.75592
350 2 6.39267 13.4296 6.31888
280 3 5.62471 12.4871 1.57888
285 3 4.1127 11.0765 5.77245
286 3 6.25324 10.2546 7.49707
349 2 8.31312 12.0307 3.69421
276 3 9.75772 10.1642 2.4107
279 3 1.75422 11.7948 4.95549
43 4 2.92391 9.92754 13.7208
44 4 1.33558 12.2798 12.6178
254 3 3.27566 8.39046 12.8508
330 2 6.58055 7.83654 16.191
60 4 7.06776 9.93222 8.97374
61 4 2.37864 11.8862 9.86993
63 4 8.44893 10.0349 14.4548
64 4 4.25576 11.9162 16.1278
65 4 8.17448 12.7778 13.0187
89 1 6.73384 9.4797 15.1006
90 1 4.63241 13.4388 15.0551
91 1 2.57542 12.011 17.0393
92 1 4.15389 12.6114 9.99302
93 1 6.45268 13.0851 12.5259
288 3 4.10844 10.472 14.8453
290 3 8.24845 11.3955 13.6999
327 2 3.31361 9.13404 16.8272
192 2 7.1564 9.5914 16.2679
193 2 6.72569 8.45072 14.6997
194 2 5.71413 9.92591 14.9945
195 2 4.63602 12.8941 14.0407
196 2 5.65895 13.7407 15.4617
197 2 3.95489 14.3189 15.0345
199 2 2.42073 13.151 16.8789
326 1 3.56148 8.02386 16.7812
284 3 1.24533 12.5244 10.8884
202 2 4.53035 11.7459 10.7015
203 2 4.179 13.6426 10.6312
204 2 5.85278 12.1724 12.8124
205 2 6.57206 13.2978 11.3911
206 2 6.32904 14.0677 13.2297
53 4 6.41423 7.64493 10.8146
255 3 2.22601 11.0408 12.9436
256 3 1.60262 13.5783 13.4709
272 3 9.93662 8.09892 11.1156
289 3 5.53468 11.6365 17.4123
281 3 6.3642 9.14937 10.1268
282 3 7.82445 11.4313 9.56865
339 2 9.37486 10.408 15.7879
287 3 9.11474 8.67827 13.7824
14 4 11.2869 7.64468 10.3519
184 2 8.95208 8.52283 9.16138
124 2 8.30544 10.9343 17.4859
198 2 1.72517 11.3408 16.617
283 3 2.26103 10.4947 9.20096
201 2 4.77249 12.6912 9.00559
316 4 9.06644 12.4471 9.74356
134 2 10.8664 8.47404 14.2537
347 2 4.65921 7.68863 16.9531
ITEM: TIMESTEP
100
ITEM: NUMBER OF ATOMS
350
ITEM: BOX BOUNDS xy xz yz pp pp pp
-8.0552999999999990e+00 1.5678200000000000e+01 -7.0408999999999997e+00
0.0000000000000000e+00 1.4745456000000001e+01 -1.0144000000000000e+00
0.0000000000000000e+00 1.7638300000000001e+01 6.6825000000000001e-01
ITEM: ATOMS id type x y z
234 3 6.10008 2.61193 6.63311
9 4 0.382871 2.24062 5.7704
13 4 -0.171664 4.60554 7.94393
15 4 -1.39084 7.09462 6.57741
23 4 3.18707 2.55705 3.99578
26 4 5.77409 1.53557 5.40576
30 4 4.71201 4.94233 2.4805
233 3 4.36448 2.85626 8.57799
71 1 6.25081 2.68258 0.0627372
33 4 5.1691 3.5926 7.46508
139 2 3.39391 0.352325 3.05837
70 1 2.95693 1.2604 2.59591
74 1 0.769509 5.64463 4.02276
97 2 -2.53916 6.6817 5.36145
108 2 5.4987 3.65569 1.61412
304 3 -0.205536 1.41399 2.18988
140 2 3.4519 1.50513 1.59374
141 2 1.83891 1.23815 2.50695
150 2 1.48092 4.90412 4.61234
151 2 0.977425 5.77581 2.90591
152 2 -0.374995 5.38388 4.28311
346 2 6.16163 2.23267 1.06637
207 3 -0.805705 2.20902 4.73894
208 3 0.433742 0.722035 6.4769
212 3 0.25081 3.52195 6.76022
213 3 -1.04229 5.71822 7.26545
224 3 1.87966 2.45311 4.91789
225 3 2.23166 1.12619 8.27603
226 3 4.4759 2.00123 4.62416
336 2 6.80802 0.911605 8.55522
230 3 3.57282 4.15638 3.30448
232 3 4.20007 5.8542 1.31237
302 2 0.876894 3.86799 2.29205
35 4 4.1166 6.35264 6.40466
303 2 1.58006 4.77637 0.699771
237 3 2.54761 6.75619 5.93404
238 3 4.40514 4.85315 6.79525
342 2 -1.70419 5.12273 4.40517
314 3 -3.17933 7.0132 2.98576
299 4 0.393976 2.25674 0.666731
300 1 1.45378 3.71111 1.25569
301 2 2.41884 3.21502 1.47708
343 2 -2.72996 5.69224 0.656702
31 4 1.30652 7.21423 4.93658
6 4 1.28824 1.6493 16.2207
10 4 -0.538943 2.40768 13.5408
12 4 -2.56754 4.98053 16.8184
297 2 3.25321 3.07139 12.2132
16 4 0.363251 5.34846 13.7746
106 2 4.00277 4.62195 17.5166
295 2 1.72963 1.94334 12.417
28 4 3.97937 3.41956 16.1091
34 4 1.04476 6.76025 9.67159
242 3 0.847859 6.97721 17.5801
37 4 -0.0997145 6.77677 16.3173
66 1 -0.211926 1.93516 11.7667
17 4 -1.16385 7.28258 11.8494
211 3 -1.03594 3.74199 9.0549
305 3 0.249587 2.01959 17.3619
98 2 2.00708 5.52353 13.2342
104 2 3.02729 2.00659 10.6996
38 4 3.57527 7.17742 11.8397
72 1 6.36949 1.57584 10.3221
128 2 0.191165 2.77591 11.0565
296 2 4.84593 0.861529 11.3454
130 2 0.370458 0.971278 11.7856
298 2 5.67015 1.47097 14.8092
143 2 5.4715 2.18713 16.5504
145 2 5.4203 1.08614 9.88656
292 1 2.86525 2.10062 12.7002
209 3 0.467317 1.4304 14.5432
294 2 2.87604 2.19541 13.8717
291 4 4.10825 0.591594 12.8883
214 3 -0.0554948 3.87753 13.6696
25 4 2.93869 2.36681 9.0218
216 3 -0.640924 6.35307 13.1146
228 3 2.65007 2.57372 16.1784
236 3 -0.300145 6.79463 10.5004
239 3 4.4522 4.17465 14.8107
215 3 -2.82807 7.39944 11.5069
241 3 0.621152 5.8001 15.2708
243 3 -1.61389 6.27971 16.7037
244 3 2.32339 6.99803 10.8692
245 3 3.56765 5.51711 12.7599
338 2 -3.51082 6.28721 12.4899
210 3 -1.856 3.65227 17.3459
235 3 1.3846 5.27576 8.83513
107 2 1.90751 3.74293 9.07563
32 4 3.52413 7.06433 0.63159
19 4 -3.01276 9.41373 8.19354
20 4 -4.2836 11.8328 6.42852
24 4 -0.874146 13.5962 7.62548
39 4 2.3482 9.28927 2.50787
40 4 1.862 9.32655 8.10611
42 4 0.69997 11.4096 6.0615
75 1 0.979364 10.0939 1.38083
315 3 -2.5206 9.35354 1.05394
99 2 -4.65959 12.7205 2.08285
100 2 -2.94381 12.7834 6.30768
111 2 -0.692603 10.9713 5.11115
153 2 0.0939993 9.3742 1.29928
154 2 1.53281 10.4399 0.425734
155 2 0.711642 10.9583 2.03505
227 3 -1.75045 13.971 6.285
248 3 1.19502 8.04995 8.7679
218 3 -2.20358 8.25227 7.3923
219 3 -4.95797 11.506 4.92567
220 3 -3.66813 10.5878 7.01559
221 3 -5.31452 12.3956 7.46434
309 2 -0.928975 8.58613 3.56325
246 3 1.60166 8.32804 3.72985
247 3 3.22017 8.41369 1.47751
253 3 0.395824 12.6373 7.08339
122 2 -4.18478 9.07219 0.907998
252 3 0.905812 10.0898 6.91971
86 1 -6.09437 12.9558 2.40591
186 2 -6.14756 13.6815 3.34025
306 4 -2.63997 8.51037 2.82199
307 4 -2.13167 10.4336 0.00409863
308 1 -1.81869 9.55429 4.2928
310 2 -1.80758 11.9584 0.622721
311 2 -1.62513 10.6125 3.86557
312 2 -1.56563 9.51077 5.38885
313 2 -3.5538 9.61192 3.90985
250 3 -1.7642 12.8606 8.6599
231 3 -0.11832 7.49229 5.76452
185 2 -6.62541 13.4111 1.49097
162 2 0.332828 14.0333 1.99844
18 4 -5.67893 11.4088 3.49158
158 2 3.48552 7.4683 8.32767
7 4 -5.79596 14.1416 7.68888
21 4 -2.72707 9.72609 14.3852
22 4 -3.79291 11.827 12.1616
41 4 -1.77093 11.6714 9.76689
68 1 -3.72539 8.21771 14.5981
69 1 -0.427806 9.00281 12.1679
77 1 1.37124 9.22529 14.9154
101 2 -0.997829 9.81936 14.6015
102 2 -2.95846 10.425 15.988
103 2 -5.38772 11.5092 11.8297
112 2 -0.219325 8.33488 15.6526
113 2 -0.208071 11.9043 10.3838
114 2 -0.12293 11.754 13.0522
127 2 -7.01635 13.9595 13.9614
249 3 -1.87735 10.2697 8.9882
135 2 -3.55908 8.08936 15.7487
136 2 0.233066 9.04836 11.209
137 2 0.261952 9.09291 13.2495
138 2 -1.29949 9.71336 12.09
159 2 1.27906 8.16593 14.4943
160 2 0.335222 9.8541 14.8843
161 2 1.7518 9.17438 15.9386
341 2 -4.18063 13.9508 16.2801
328 2 3.00072 7.7582 16.0559
222 3 -3.25914 10.7049 13.2774
223 3 -3.77067 13.3765 12.712
322 2 -5.52618 13.5931 17.6101
251 3 -2.99652 11.7463 10.86
217 3 -4.21072 8.85366 9.12616
344 2 -1.13065 13.8476 14.0742
318 3 -7.25531 13.886 9.02219
319 3 -6.6982 12.6464 11.3403
320 1 -5.22086 13.9411 16.5624
321 2 -5.86192 13.4787 15.7178
293 1 -1.85214 14.5604 14.5697
334 2 -4.41531 12.2286 17.1645
317 2 -5.19776 11.9282 9.17114
345 2 -2.48262 14.0955 15.4701
105 2 0.020649 14.4538 15.1254
133 2 -2.93606 7.58812 13.8685
335 2 -1.33195 11.2178 17.6026
1 4 14.417 1.44685 3.38682
2 1 12.9031 2.43808 2.71277
3 2 12.7981 2.25929 1.60938
4 2 11.9178 2.33083 3.31937
118 2 6.62393 6.42346 1.08942
11 4 11.5564 5.72601 3.67294
46 4 8.31055 1.43685 3.54367
49 4 9.84439 3.91644 2.01633
50 4 6.30062 6.85577 4.16664
51 4 8.34976 6.49858 1.03105
52 4 10.0519 5.66549 8.48226
54 4 9.25198 6.92251 5.54981
257 3 7.02585 1.41638 4.42977
268 3 7.75474 6.77788 4.95644
324 2 12.824 3.89035 1.2683
95 2 13.2301 2.21075 7.39504
263 3 5.17454 6.96235 5.36155
117 2 10.537 3.17952 0.575576
120 2 10.9527 4.17734 7.99747
131 2 12.667 3.73061 4.53163
269 3 9.56177 6.26678 7.10229
267 3 10.3752 6.26045 4.57311
340 2 13.5172 3.49887 2.91579
157 2 5.1618 6.64712 8.55843
173 2 6.52462 5.78933 7.78355
337 2 11.6595 0.976615 2.20133
260 3 9.0547 2.71733 2.71128
261 3 11.0854 4.50837 2.75128
262 3 5.97736 5.61602 3.09966
348 2 9.20878 0.17301 1.5901
264 3 9.05345 5.1542 1.56604
168 2 9.21999 3.54274 8.02315
174 2 7.36971 3.94172 8.13921
132 2 12.689 5.11097 5.90529
67 1 12.8574 4.85202 4.73568
82 1 6.74614 4.91533 8.51127
323 1 12.7328 4.60886 0.349255
115 2 9.46789 0.251521 4.12357
142 2 7.24202 3.24712 0.0162487
170 2 11.7234 0.611074 11.6495
27 4 8.27995 0.841282 13.9933
29 4 6.8363 2.85347 11.8634
119 2 8.41307 5.44864 9.25186
47 4 9.68107 3.42385 15.0761
48 4 11.1175 2.81717 10.6035
55 4 10.8599 5.1808 12.8234
73 1 7.81849 4.52839 11.4179
79 1 8.88473 4.42341 16.5052
96 2 12.2265 4.753 15.3949
81 1 10.85 1.29649 11.6685
165 2 8.11411 4.25587 17.2632
94 2 14.6115 1.10419 9.17198
109 2 6.03558 6.0925 13.7482
116 2 10.3789 3.33098 16.7376
331 2 5.46707 6.31993 17.1387
121 2 6.95552 6.56092 9.55333
333 2 13.4522 2.24707 13.8273
147 2 7.43147 4.66081 10.3702
148 2 8.94935 4.42936 11.4806
149 2 7.43188 5.30761 12.0923
164 2 9.12271 5.54855 16.3832
265 3 11.0629 6.34455 9.40395
166 2 8.0139 4.25424 14.9031
167 2 9.5639 2.11068 9.12813
80 1 9.65257 3.29166 9.08288
169 2 8.85845 3.77033 9.86441
171 2 9.91625 0.813426 11.2908
175 2 5.99765 4.80191 9.35893
172 2 10.7189 1.71997 12.6944
144 2 6.78487 2.50328 9.63683
229 3 7.61011 1.82666 12.9294
258 3 9.30038 1.78011 14.7145
259 3 12.5088 2.53342 9.92676
266 3 4.935 7.22706 11.1575
270 3 11.1199 4.56242 14.2233
271 3 10.8553 4.08513 11.7108
274 3 9.53941 6.01378 12.8196
325 2 10.6204 5.08257 17.3824
332 2 7.25612 5.85486 16.725
329 1 6.46447 6.7489 17.0068
240 3 5.52471 3.69662 12.4901
129 2 14.3198 1.70382 11.4797
8 4 13.6981 2.51052 8.96517
146 2 7.17552 0.805515 10.7013
36 4 4.89433 4.91164 13.3854
45 4 5.18062 13.4824 2.80356
57 4 9.87373 9.16065 1.28538
58 4 3.30071 11.4882 4.48983
59 4 6.61713 11.5435 1.03742
62 4 5.7382 11.194 6.4519
126 2 2.78395 12.8906 8.4822
83 1 6.38072 8.57381 3.14627
84 1 9.81786 8.69631 5.62928
85 1 8.49482 8.70967 8.36912
87 1 7.05123 11.2074 4.90742
88 1 5.86778 12.9381 7.29031
110 2 3.36716 8.89924 7.37811
200 2 3.94952 11.5121 0.498717
123 2 8.23943 11.9169 1.46433
163 2 1.70344 13.0299 2.82614
125 2 6.44021 10.0496 1.817
5 3 6.50334 13.8945 3.65121
156 2 5.11367 8.41426 7.8255
176 2 5.94057 8.35075 2.08802
177 2 7.28798 9.17007 3.09944
178 2 5.5791 9.03226 3.91219
179 2 10.3985 8.71286 4.65998
180 2 10.4356 8.91808 6.50692
181 2 8.81025 9.28264 5.60071
182 2 9.39104 9.366 7.97432
183 2 8.06919 8.11836 7.62356
187 2 6.80189 10.1653 4.32375
188 2 8.06507 11.1989 5.43421
189 2 6.78079 12.1479 4.38446
190 2 6.29189 12.863 8.32723
191 2 4.78225 13.3579 7.17988
275 3 9.08862 7.85551 1.12855
277 3 3.28802 10.3911 3.30658
278 3 3.97418 12.9066 3.71387
350 2 6.6376 13.3859 6.53588
280 3 5.69076 12.6248 1.55028
285 3 4.21301 10.9913 5.70354
286 3 6.08821 10.1058 7.58205
349 2 8.30983 12.0823 3.54596
276 3 9.86429 9.97776 2.63246
279 3 1.76976 11.897 4.99725
76 1 4.53881 7.41722 7.97794
78 1 1.43591 13.9795 2.37991
43 4 2.80822 9.75416 13.7309
44 4 1.44332 12.2114 12.6968
254 3 3.36155 8.4225 12.9007
330 2 6.50989 7.67501 16.2859
60 4 7.13339 9.96684 8.95225
61 4 2.411 11.7916 9.80966
63 4 8.39775 9.90416 14.6031
64 4 4.23529 11.9109 16.0058
65 4 8.15837 12.7081 12.9455
89 1 6.68701 9.29885 15.0561
90 1 4.70536 13.6081 15.26
91 1 2.60157 12.1904 17.0689
92 1 4.08654 12.6994 9.93175
93 1 6.42246 13.1901 12.511
288 3 3.90112 10.4101 14.9141
290 3 8.31646 11.3281 13.762
327 2 3.73636 9.33919 16.7763
192 2 6.93275 9.38889 16.2605
193 2 6.62275 8.22284 14.6115
194 2 5.7452 9.84932 14.8081
195 2 3.76259 13.7776 14.6628
196 2 5.58869 13.2969 14.6163
197 2 4.86815 14.4668 15.9764
199 2 2.25184 13.2054 16.7338
326 1 3.67137 8.25306 16.862
284 3 1.30542 12.4482 10.8041
202 2 4.48793 11.9134 10.7751
203 2 3.92441 13.7125 10.5215
204 2 5.92783 12.308 13.1292
205 2 6.26938 13.1123 11.3597
206 2 6.34872 14.2112 12.9691
53 4 6.43119 7.70455 10.763
255 3 2.41414 11.0619 13.0109
256 3 1.78714 13.6299 13.2275
272 3 10.2193 8.0477 11.238
289 3 5.49058 11.7499 17.1642
281 3 6.40915 9.18616 10.0859
282 3 7.9689 11.3199 9.40894
339 2 9.37579 10.1869 15.9694
287 3 9.13521 8.7124 13.7423
14 4 11.406 7.65599 10.2695
184 2 8.72683 8.13466 9.31268
273 3 7.51223 7.51367 11.9163
198 2 1.85585 11.3722 16.8045
56 4 9.09717 7.53652 12.357
201 2 4.75529 12.8062 9.02867
316 4 8.94909 12.4298 9.7834
134 2 10.9167 8.31209 14.2625
347 2 4.74741 7.80212 16.78
283 3 2.30182 10.3962 9.15362
124 2 8.48519 10.9032 17.6352
ITEM: TIMESTEP
200
ITEM: NUMBER OF ATOMS
350
ITEM: BOX BOUNDS xy xz yz pp pp pp
-8.0552999999999990e+00 1.5678200000000000e+01 -7.0408999999999997e+00
0.0000000000000000e+00 1.4745456000000001e+01 -1.0144000000000000e+00
0.0000000000000000e+00 1.7638300000000001e+01 6.6825000000000001e-01
ITEM: ATOMS id type x y z
234 3 6.25913 2.56297 6.73848
9 4 0.542886 2.13653 5.60148
13 4 -0.201034 4.64951 7.84919
15 4 -1.2729 7.15324 6.55856
23 4 3.26741 2.49238 3.93404
26 4 5.88591 1.63995 5.47056
30 4 4.81511 4.88269 2.58936
233 3 4.45516 2.76298 8.70678
71 1 6.23629 2.78973 0.0475674
33 4 5.31364 3.52081 7.60554
139 2 3.80004 0.325817 2.92477
70 1 3.12376 1.17894 2.51493
74 1 0.781829 5.43255 4.157
97 2 -2.30135 6.72873 5.23053
108 2 5.55117 3.57192 1.69617
304 3 -0.435469 1.45778 1.96168
140 2 3.51056 1.65845 1.53586
141 2 2.04896 0.993481 2.54466
150 2 1.67126 4.76541 4.49114
151 2 0.775997 5.58356 3.02585
152 2 -0.220578 5.05372 4.55234
346 2 6.29407 2.26517 1.02771
207 3 -0.724943 2.27968 4.468
208 3 0.545794 0.740476 6.33392
212 3 0.462966 3.43591 6.75235
213 3 -1.23842 5.67163 7.22101
224 3 1.90661 2.38405 4.70239
225 3 2.20762 1.38694 8.35243
226 3 4.59052 2.06655 4.70354
336 2 6.7628 1.0258 8.38749
230 3 3.59872 4.12927 3.28983
232 3 4.22936 5.77667 1.43581
302 2 1.12356 3.79238 2.3746
35 4 4.19411 6.3889 6.37526
303 2 1.49212 4.70331 0.800465
237 3 2.58888 6.70691 5.92855
238 3 4.54431 4.7571 6.83889
342 2 -1.7413 5.11384 4.7555
314 3 -3.14074 7.04284 3.02515
299 4 0.285988 2.26385 0.743133
300 1 1.44476 3.66174 1.34436
301 2 2.41804 3.09224 1.21887
343 2 -2.70308 5.81378 0.657123
31 4 1.36609 7.08836 4.89583
32 4 3.4482 6.94888 0.694091
242 3 1.74497 6.34253 0.0462855
6 4 1.22171 1.42684 16.191
10 4 -0.593226 2.42488 13.5139
12 4 -2.58357 5.06962 16.8192
297 2 3.35196 3.0665 12.221
16 4 0.261934 5.58588 13.7527
106 2 3.90051 4.63132 17.5868
295 2 1.65992 2.0775 12.3005
28 4 3.96178 3.40392 16.1186
34 4 1.15753 6.79326 9.63117
345 2 4.21711 0.625372 15.0375
37 4 -0.109172 6.84993 16.3606
66 1 -0.320384 1.81034 11.7832
17 4 -1.10069 7.42033 11.6974
211 3 -0.893946 3.72482 9.03989
305 3 0.315941 2.02639 17.3657
98 2 1.74076 5.66948 12.9972
104 2 2.70189 2.24269 10.6848
38 4 3.53131 7.10319 11.957
72 1 6.45927 1.42787 10.2673
128 2 -0.0810298 2.88292 11.2483
296 2 4.74009 0.816043 10.9533
130 2 0.530426 1.04844 11.5188
298 2 5.65547 1.53415 14.0921
143 2 5.51795 2.24887 16.6123
145 2 5.59958 0.980119 9.69206
292 1 2.74493 2.16395 12.6346
209 3 0.344181 1.35228 14.4987
294 2 2.82011 2.34363 13.7763
291 4 3.99568 0.678184 12.6429
214 3 -0.125658 3.95239 13.6076
25 4 2.99121 2.47547 9.01277
216 3 -0.783359 6.59102 13.1223
228 3 2.63318 2.42189 16.1325
236 3 -0.268161 6.78428 10.4371
239 3 4.44125 4.1872 14.8851
215 3 -3.05192 7.4326 11.2373
241 3 0.594694 5.89466 15.2676
243 3 -1.61907 6.31583 16.6243
244 3 2.35796 6.97974 10.7054
245 3 3.42469 5.41456 12.7939
338 2 -3.64784 6.3809 12.2678
210 3 -1.8568 3.78687 17.3729
235 3 1.30295 5.36516 8.88996
240 3 5.41568 3.53862 12.3842
36 4 4.74643 4.82126 13.4616
107 2 2.11813 3.95657 8.87348
328 2 3.25254 7.55627 16.0053
7 4 -5.8208 14.2639 7.75732
19 4 -2.86551 9.43377 8.08096
20 4 -4.23565 11.9041 6.42799
24 4 -0.848346 13.6679 7.57011
39 4 2.39522 9.21977 2.51389
40 4 1.85913 9.33081 8.00676
42 4 0.664674 11.4653 6.08861
75 1 1.12709 10.1407 1.41073
315 3 -2.74336 9.76082 1.3267
99 2 -4.48935 12.5411 2.19551
100 2 -2.97743 12.9741 6.3427
111 2 -0.742766 11.0629 5.10293
153 2 0.123654 9.79305 1.77604
154 2 1.37038 9.72756 0.378475
155 2 1.36117 11.288 1.59355
227 3 -1.65154 13.9851 6.22236
248 3 1.07366 8.05059 8.69151
218 3 -2.04795 8.25638 7.32854
219 3 -4.98637 11.6028 4.99367
220 3 -3.59181 10.5018 6.86713
221 3 -5.14954 12.5945 7.5689
309 2 -0.982603 8.66393 3.56389
246 3 1.67243 8.09333 3.67636
247 3 3.30469 8.34975 1.47643
253 3 0.43409 12.7081 7.07774
122 2 -4.12104 9.01806 0.813651
252 3 1.04298 10.1229 6.97628
86 1 -5.95502 12.8421 2.26526
186 2 -6.12187 13.7913 2.81929
306 4 -2.67504 8.59666 2.89483
158 2 3.54778 7.48104 8.35814
308 1 -1.92795 9.69328 4.38884
310 2 -1.73411 12.2364 0.767222
311 2 -1.73156 10.7158 4.02152
312 2 -1.68517 9.56171 5.47339
313 2 -3.63772 9.46949 4.33429
250 3 -1.63558 12.9679 8.71729
231 3 0.0547763 7.56638 5.8113
185 2 -6.31481 13.0398 1.2516
162 2 0.513009 13.9885 1.88898
18 4 -5.61736 11.3531 3.55262
322 2 -4.8196 12.9771 0.0928083
307 4 -2.09925 10.6346 0.228329
335 2 -0.342122 10.2471 0.1328
163 2 0.896494 12.8634 3.34833
21 4 -2.78506 9.8716 14.4258
22 4 -3.77055 11.8426 12.1353
41 4 -1.82493 11.6967 9.72538
68 1 -3.78958 8.35192 14.6652
69 1 -0.458572 9.11185 11.9497
77 1 1.27386 9.29646 14.7498
101 2 -1.14694 9.81944 14.5651
102 2 -2.94531 10.5934 16.1469
103 2 -5.30442 11.2872 11.6654
112 2 -0.291543 8.37465 15.606
113 2 -0.332071 11.6597 10.5599
114 2 -0.0373477 12.2835 13.5746
127 2 -6.78319 13.9598 13.7928
249 3 -1.83396 10.2619 9.04233
135 2 -3.6614 8.22312 15.8254
136 2 0.284903 9.263 11.1053
137 2 0.0828592 9.24161 13.0533
138 2 -1.42777 9.72261 11.858
159 2 1.19395 8.16789 14.398
160 2 0.213113 9.86354 14.7633
161 2 1.8455 9.46965 15.7795
341 2 -4.20833 13.912 16.856
283 3 2.31494 10.3279 9.12602
222 3 -3.30151 10.7554 13.2637
223 3 -3.92424 13.4243 12.6453
105 2 -0.0763866 14.4877 14.7976
251 3 -2.85704 11.8782 10.8273
217 3 -3.94452 8.88741 9.08576
344 2 -1.49146 13.5423 14.2816
318 3 -7.09887 13.9867 9.19098
133 2 -3.02632 7.69566 14.0093
320 1 -5.31129 13.7882 16.743
321 2 -5.69205 13.1844 15.8088
293 1 -1.98893 14.6087 14.3034
334 2 -4.34598 12.0098 16.9053
317 2 -5.27669 11.9621 9.20836
284 3 1.22618 12.2876 10.8102
1 4 14.3532 1.48087 3.24218
2 1 12.7676 2.42755 2.53692
3 2 12.2595 2.18615 1.53665
4 2 12.0848 2.25908 3.4147
118 2 6.58618 6.54374 1.1742
11 4 11.6424 5.53726 3.74613
46 4 8.31745 1.37534 3.46327
49 4 9.77109 3.72168 2.12716
50 4 6.31817 6.9361 4.26941
51 4 8.3155 6.41583 1.19766
52 4 10.0954 5.5271 8.4694
54 4 9.37844 6.88209 5.61095
257 3 7.05979 1.50875 4.46763
268 3 7.81985 6.8684 4.95294
324 2 12.6728 3.9414 1.20725
95 2 13.2619 2.31361 7.29264
263 3 5.12584 7.13269 5.30359
117 2 10.3852 2.96301 0.713062
120 2 11.133 4.08146 8.27985
131 2 12.6377 3.69958 5.04717
269 3 9.68244 6.15994 7.12638
267 3 10.5154 6.19163 4.67014
340 2 13.2144 3.47355 2.5374
157 2 5.20552 6.80163 8.58789
173 2 6.88846 5.49054 7.46942
337 2 11.5123 0.911473 2.40386
260 3 9.04615 2.53492 2.75518
261 3 11.0286 4.31414 2.84906
262 3 5.93611 5.6612 3.33514
115 2 9.43245 0.303194 4.08051
264 3 8.81208 5.00044 1.61819
168 2 9.14979 3.39998 7.99034
174 2 7.42927 3.93494 8.4842
132 2 12.4649 5.23976 5.98342
67 1 12.8316 4.84239 5.04603
82 1 6.84616 4.89699 8.43807
323 1 12.6668 4.72808 0.319694
142 2 6.05909 4.2046 17.5798
27 4 8.36123 0.945974 13.9115
29 4 6.67594 2.7939 11.8226
119 2 8.51696 5.2953 9.28333
47 4 9.64163 3.4934 15.0708
48 4 11.1102 2.76556 10.6218
55 4 10.8395 5.25878 12.8005
73 1 7.76867 4.3322 11.4141
79 1 8.85972 4.3253 16.6062
96 2 12.2197 4.81474 15.3237
81 1 10.9276 1.21677 11.658
165 2 8.00031 3.99939 17.3161
94 2 14.5674 1.12653 9.11783
109 2 5.90224 6.0642 13.6355
116 2 10.3323 3.44052 16.8014
331 2 5.48266 6.38172 17.1224
121 2 6.7318 6.59791 9.44695
333 2 13.4033 2.26023 13.7429
147 2 7.4122 4.6508 10.3313
148 2 8.91687 4.21583 11.5263
149 2 7.32908 5.01021 12.3464
164 2 9.21761 5.3641 16.8455
265 3 10.9918 6.42014 9.39114
166 2 8.01278 4.44492 14.9843
167 2 9.61813 1.9975 9.02214
80 1 9.63857 3.16959 8.99987
169 2 8.86487 3.65998 9.854
171 2 9.78753 1.01627 11.1665
175 2 5.93538 4.99258 9.2485
172 2 10.8499 1.80038 12.6803
144 2 6.8928 2.31317 9.58978
229 3 7.60554 1.90485 12.7886
258 3 9.1829 1.96251 14.754
259 3 12.4945 2.62818 9.79772
266 3 5.01715 7.11343 11.3498
270 3 11.1921 4.48888 14.1419
271 3 10.8138 4.05522 11.6864
274 3 9.53209 6.07805 13.0054
325 2 10.5928 5.46566 17.4616
332 2 7.3034 5.97666 16.8445
329 1 6.5169 6.80056 17.1222
8 4 13.7224 2.57578 8.84256
146 2 7.23085 0.683496 10.5782
129 2 14.2413 1.42486 11.6192
273 3 7.57307 7.45993 11.8252
45 4 5.24301 13.4749 2.87951
57 4 9.94407 9.13076 1.40205
58 4 3.28107 11.5384 4.46399
59 4 6.50682 11.5302 1.08883
62 4 5.63132 11.2524 6.46305
126 2 2.56056 12.975 8.48078
83 1 6.40086 8.64501 3.26578
84 1 9.79698 8.68562 5.76397
85 1 8.56008 8.65675 8.37911
87 1 7.02346 11.2482 5.1055
88 1 5.84292 13.0547 7.21701
110 2 3.34998 8.81236 7.26286
200 2 3.49762 11.5501 0.262265
123 2 8.17383 11.9881 1.55842
348 2 2.15485 13.2406 2.01527