ITEM: TIMESTEP
0
ITEM: NUMBER OF ATOMS
350
ITEM: BOX BOUNDS xy xz yz pp pp pp
-8.2316830000000003e+00 1.5678200000000000e+01 -7.0408999999999997e+00
0.0000000000000000e+00 1.4894400000000001e+01 -1.1907829999999999e+00
0.0000000000000000e+00 1.7638300000000001e+01 6.7500000000000004e-01
ITEM: ATOMS id type x y z
234 3 5.90378 2.79439 6.64402
9 4 0.348755 2.42512 5.7704
13 4 -0.322211 4.69704 8.07683
15 4 -1.52066 7.26704 6.60457
23 4 3.18834 2.79716 4.06281
26 4 5.68264 1.5977 5.56051
30 4 4.74692 4.8296 2.40726
233 3 4.15282 3.00791 8.57089
32 4 3.34565 7.00147 0.587357
33 4 4.98321 3.77136 7.44164
139 2 3.18783 0.660738 3.11183
70 1 2.74802 1.5972 2.6551
74 1 0.630922 5.77429 3.83989
97 2 -2.65277 6.87167 5.35766
108 2 5.61019 3.56714 1.5078
304 3 -0.19369 1.57392 2.24083
140 2 3.34022 1.81921 1.68687
141 2 1.6346 1.46969 2.4861
150 2 1.38532 5.11238 4.33674
151 2 0.965904 6.07531 2.81849
152 2 -0.507994 5.45078 3.88783
346 2 6.17275 2.02965 0.8084
207 3 -1.09861 2.34988 4.78016
208 3 0.406237 0.875108 6.42086
212 3 0.0824117 3.54385 6.90652
213 3 -1.16123 5.97093 7.3899
224 3 1.69673 2.79052 4.93459
225 3 2.27335 1.13193 8.29995
226 3 4.36261 1.97368 4.74633
336 2 6.41943 0.882875 8.50793
230 3 3.52751 4.22006 3.28687
232 3 4.18432 5.82069 1.32967
302 2 1.41364 3.82594 2.11939
35 4 3.86292 6.60913 6.26779
303 2 1.65614 4.7725 0.542742
237 3 2.46736 7.06621 5.74546
238 3 4.14088 4.96227 6.641
342 2 -1.77275 5.33493 4.53732
314 3 -3.18808 7.06918 3.02083
299 4 0.36009 2.33569 0.591672
300 1 1.57967 3.69379 1.01192
301 2 2.55214 3.06405 0.666843
6 4 1.28084 1.48424 16.1694
10 4 -0.69898 2.31534 13.5973
12 4 -2.69708 5.06004 16.7722
297 2 3.57847 2.83999 12.2782
16 4 0.119057 5.40696 13.8306
106 2 3.80912 4.63114 17.5365
295 2 1.80859 1.93631 12.1772
28 4 3.8465 3.53616 16.1526
34 4 1.15674 6.77099 9.66973
36 4 4.60311 4.93373 13.3957
37 4 -0.23789 6.94284 16.2668
66 1 -0.196679 1.75797 11.866
17 4 -1.15294 7.2622 11.6015
211 3 -1.17272 3.81127 9.17422
305 3 0.154468 1.92426 17.3931
98 2 1.74006 5.34737 13.1774
104 2 3.03739 1.91327 10.7296
38 4 3.42863 7.23503 11.8387
72 1 6.22286 1.6307 10.4032
128 2 0.144716 2.74187 11.4025
129 2 -1.20447 1.42439 11.5294
130 2 0.635623 0.972908 11.7287
298 2 5.60328 1.64773 14.5678
143 2 5.54995 2.60847 16.524
145 2 5.16275 1.52872 10.1486
292 1 2.92609 2.02845 12.6998
209 3 0.199536 1.43962 14.5549
294 2 2.85674 2.19722 13.8564
240 3 5.19341 3.81889 12.4737
214 3 -0.332095 3.88545 13.7486
25 4 2.89625 2.32682 9.06903
216 3 -0.61249 6.48568 13.0263
228 3 2.59379 2.43307 16.1304
236 3 -0.317568 6.73606 10.3845
239 3 4.23748 4.28326 14.801
215 3 -3.07092 7.40108 11.4167
241 3 0.562395 5.91417 15.2947
243 3 -1.80629 6.46128 16.6994
244 3 2.31398 6.98029 10.7246
245 3 3.35008 5.68319 12.8357
338 2 -3.5277 6.18396 12.2299
210 3 -2.02005 3.75627 17.4378
293 1 5.05997 0.605796 14.6268
107 2 1.69975 3.5045 9.22042
242 3 0.594708 7.20606 17.6042
146 2 6.78669 0.664591 10.5017
235 3 1.1773 5.24268 8.92483
328 2 2.8631 7.52828 15.9523
296 2 5.4086 0.461488 11.8332
94 2 -1.0043 1.23437 9.18878
335 2 -0.326936 10.4261 0.18478
19 4 -3.03031 9.41322 8.27173
20 4 -4.33418 11.8401 6.38447
24 4 -1.0609 13.6874 7.62472
39 4 2.29141 9.29547 2.66208
40 4 1.84729 9.49136 8.1867
42 4 0.636574 11.5601 6.10779
75 1 0.792799 10.2376 1.83197
315 3 -2.65934 9.26437 0.971963
99 2 -4.84339 13.0596 2.42176
100 2 -2.97249 12.7793 6.21722
111 2 -0.75809 10.9918 5.21627
153 2 0.0959536 9.34713 1.58008
154 2 1.32132 10.64 0.90714
155 2 0.472117 11.0231 2.63024
227 3 -1.83338 14.088 6.22464
248 3 1.19793 8.11376 8.62838
218 3 -2.2997 8.31188 7.3551
219 3 -5.02502 11.5991 4.90778
220 3 -3.88239 10.5594 7.05709
221 3 -5.29394 12.7455 7.2654
309 2 -0.747524 8.58683 3.40564
246 3 1.44773 8.38877 3.80842
247 3 3.02255 8.4385 1.46229
253 3 0.254845 12.7755 7.10634
122 2 -4.25764 9.26379 0.936078
252 3 1.11187 10.2834 7.05376
86 1 -6.09563 13.1058 2.53557
186 2 -6.39175 13.7488 3.4068
306 4 -2.53953 8.51459 2.80841
307 4 -2.08248 10.4239 0.117543
308 1 -1.75478 9.81059 4.01813
310 2 -1.69981 11.9139 0.887603
311 2 -1.50161 10.7845 3.56615
312 2 -1.7918 9.67889 5.13265
313 2 -3.54205 9.67311 3.87349
250 3 -2.00256 12.8574 8.63517
231 3 -0.318284 7.80207 5.7385
185 2 -6.53939 13.5923 1.65149
31 4 1.03485 7.35066 4.95421
18 4 -5.803 11.3917 3.51422
158 2 3.41633 7.78108 8.68205
7 4 -5.88783 14.4022 7.66084
21 4 -2.77702 9.8876 14.3972
22 4 -3.90505 11.8486 12.2317
41 4 -1.97505 11.6982 9.81657
68 1 -3.8539 8.37256 14.5785
69 1 -0.542159 9.02688 11.7373
77 1 1.29396 9.39129 14.7094
101 2 -1.07399 9.95901 14.3762
102 2 -3.03316 10.5133 16.057
103 2 -5.52642 11.6085 11.738
112 2 -0.336803 8.38666 15.4054
113 2 -0.433805 11.9681 10.4173
114 2 -0.295725 11.9185 13.0967
127 2 -6.88133 14.0858 14.1063
249 3 -1.77822 10.2051 9.17269
135 2 -3.66298 8.21805 15.6946
136 2 -0.195604 9.30596 10.6606
137 2 0.266042 9.17038 12.4926
138 2 -1.43629 9.61455 12.0145
159 2 1.34569 8.28992 14.4528
160 2 0.26149 10.0424 14.3854
161 2 1.60678 9.73438 15.8292
341 2 -4.04693 14.3505 17.2221
133 2 -3.09803 7.75738 13.8484
222 3 -3.3871 10.8173 13.2741
223 3 -3.87911 13.3797 12.9457
322 2 -5.95577 13.6763 17.349
251 3 -2.97857 11.8746 10.9885
217 3 -4.09914 9.02075 9.38457
344 2 -1.4198 13.8403 14.5891
318 3 -7.17937 14.0634 9.07831
319 3 -6.47965 12.7415 11.328
320 1 -5.01603 14.0639 16.6902
321 2 -5.01224 13.5849 15.6143
291 4 -3.00336 14.7046 12.9668
334 2 -4.52454 12.2117 17.0906
317 2 -5.27893 11.9959 8.98162
345 2 -2.5338 14.7453 15.5424
1 4 14.3808 1.44515 3.4464
2 1 12.888 2.36998 2.62466
3 2 13.0573 1.9554 1.52428
4 2 11.862 2.27334 3.04068
118 2 6.68049 6.47829 0.927022
11 4 11.6303 5.79493 3.52945
46 4 8.27585 1.60455 3.37317
49 4 9.79667 3.95788 2.06559
50 4 6.20639 6.80316 4.25951
51 4 8.42106 6.50995 0.949412
52 4 10.0035 5.57549 8.46658
54 4 9.33412 6.94703 5.46418
257 3 7.05184 1.54008 4.45428
268 3 7.7971 6.82197 4.92629
324 2 12.8069 3.82649 1.21582
95 2 13.3188 2.23924 7.30632
263 3 5.08122 7.09803 5.37359
117 2 10.0807 2.99969 0.683675
120 2 10.9728 4.01881 8.1651
131 2 12.5874 3.89393 4.57318
269 3 9.64974 6.2294 7.08125
267 3 10.4969 6.36774 4.46724
340 2 13.2295 3.53072 2.77266
157 2 4.76002 6.49204 8.52483
173 2 6.33907 5.80384 7.91522
337 2 11.7317 0.809232 2.11781
260 3 9.00946 3.05419 3.12852
261 3 11.1868 4.54312 2.57267
262 3 5.81954 5.47592 3.29294
348 2 9.43634 0.684546 1.28324
264 3 8.86705 5.1555 1.52253
168 2 8.9709 3.37213 7.96901
174 2 7.22196 4.10815 7.97482
132 2 12.5769 5.21573 5.90176
67 1 12.8086 4.99195 4.87066
82 1 6.65268 4.93118 8.52821
78 1 8.49938 0.380245 1.89554
115 2 9.34059 0.31154 3.65766
162 2 7.45113 0.841489 1.49324
142 2 7.4318 3.22659 0.229894
323 1 12.6572 4.57348 0.242939
76 1 4.27681 7.39521 7.97699
343 2 12.8083 5.67076 0.528422
71 1 5.3038 3.44044 17.6319
27 4 8.19527 0.913677 13.9894
29 4 6.61932 2.84214 11.9598
119 2 8.37147 5.37895 9.12143
47 4 9.76685 3.32327 15.0004
48 4 11.0366 2.68812 10.6211
55 4 10.8053 5.17965 12.7435
73 1 7.67307 4.3995 11.5342
79 1 8.7629 4.30986 16.4529
96 2 12.2671 4.64334 15.2453
81 1 10.7819 1.17382 11.7648
165 2 7.81599 4.1896 17.0986
105 2 6.94562 0.701477 15.1901
109 2 5.83783 6.03702 13.5296
116 2 10.0984 3.09137 16.7988
331 2 5.44218 6.44094 16.7269
121 2 6.65347 6.63778 9.50006
333 2 13.2832 1.9871 13.8236
147 2 7.23547 4.66535 10.4011
148 2 8.76621 4.29079 11.5924
149 2 7.32475 5.15029 12.3144
164 2 9.0771 5.36283 16.5084
265 3 10.8025 6.42744 9.52748
166 2 8.2067 4.21425 14.83
167 2 9.50855 1.98482 9.19099
80 1 9.46273 3.30854 9.01303
169 2 8.76924 3.82355 9.89933
171 2 9.86666 0.826172 11.0587
175 2 5.92376 4.56043 9.3765
172 2 10.4462 1.43908 12.8046
144 2 6.80385 2.43955 9.6986
229 3 7.5077 1.86776 12.9542
258 3 9.49069 1.71067 14.6949
259 3 12.4268 2.51429 9.82381
266 3 4.91311 7.20557 11.1337
270 3 11.2018 4.39 14.051
271 3 10.764 4.08848 11.6093
274 3 9.53138 6.07461 12.8971
325 2 10.3811 4.99028 17.2683
332 2 7.36056 6.15353 16.5439
329 1 6.41736 6.90993 16.8478
56 4 8.95508 7.56149 12.3757
273 3 7.39854 7.50845 11.9633
8 4 13.6878 2.52671 8.93832
170 2 11.6789 0.5563 11.6917
45 4 5.22095 13.5418 2.79485
57 4 9.71509 9.42639 1.15532
58 4 3.31012 11.6334 4.39982
59 4 6.70233 11.5162 1.21385
62 4 5.60954 11.3486 6.40885
126 2 2.70707 13.2328 8.68705
83 1 6.12397 8.42036 3.15116
84 1 9.51744 8.78522 5.57065
85 1 8.4736 9.08913 8.23766
87 1 6.89322 11.1669 4.81929
88 1 5.75716 13.0512 7.29673
110 2 3.34981 9.02409 7.40315
200 2 3.81461 11.1879 0.468782
123 2 8.34152 11.9296 1.55404
163 2 1.36558 13.4721 2.23009
125 2 6.54242 10.2216 2.26462
5 3 6.61721 14.0052 3.71144
156 2 4.9845 8.22909 7.69766
176 2 5.83661 8.03622 2.15916
177 2 7.10545 8.96013 3.21254
178 2 5.17735 8.9109 3.69988
179 2 10.1927 9.01648 4.61353
180 2 9.99638 9.20518 6.58594
181 2 8.38296 9.03823 5.40024
182 2 9.30785 9.64525 7.68386
183 2 7.84985 8.38301 7.56139
187 2 6.61594 10.2402 4.1096
188 2 7.91296 11.0852 5.24897
189 2 6.72601 12.2176 4.41996
190 2 6.41732 13.0007 8.23738
191 2 4.75833 13.5165 7.51847
275 3 9.0022 7.99398 1.09543
277 3 3.22364 10.4883 3.31868
278 3 3.99577 13.0195 3.75592
350 2 6.32948 13.5652 6.31888
280 3 5.60892 12.6132 1.57888
285 3 4.05498 11.1884 5.77245
286 3 6.17827 10.3582 7.49707
349 2 8.27618 12.1523 3.69421
276 3 9.73361 10.2668 2.4107
279 3 1.70466 11.9139 4.95549
43 4 2.7867 10.0278 13.7208
44 4 1.2094 12.4038 12.6178
254 3 3.14715 8.47521 12.8508
330 2 6.41864 7.9157 16.191
60 4 6.97803 10.0325 8.97374
61 4 2.27995 12.0062 9.86993
63 4 8.30438 10.1363 14.4548
64 4 4.09448 12.0366 16.1278
65 4 8.04429 12.9069 13.0187
89 1 6.58284 9.57545 15.1006
90 1 4.48186 13.5745 15.0551
91 1 2.40503 12.1323 17.0393
92 1 4.05396 12.7387 9.99302
93 1 6.32742 13.2173 12.5259
288 3 3.95999 10.5778 14.8453
290 3 8.11145 11.5106 13.6999
327 2 3.14534 9.2263 16.8272
192 2 6.99372 9.68828 16.2679
193 2 6.57869 8.53608 14.6997
194 2 5.56418 10.0262 14.9945
195 2 4.49561 13.0243 14.0407
196 2 5.50433 13.8795 15.4617
197 2 3.80455 14.4636 15.0345
199 2 2.25195 13.2839 16.8789
326 1 3.39366 8.10491 16.7812
284 3 1.13644 12.6509 10.8884
202 2 4.42333 11.8645 10.7015
203 2 4.07269 13.7804 10.6312
204 2 5.72466 12.2954 12.8124
205 2 6.45815 13.4321 11.3911
206 2 6.19674 14.2097 13.2297
53 4 6.30608 7.72215 10.8146
255 3 2.09658 11.1523 12.9436
256 3 1.46791 13.7155 13.4709
272 3 9.82546 8.18073 11.1156
289 3 5.36056 11.754 17.4123
281 3 6.26293 9.24179 10.1268
282 3 7.72876 11.5468 9.56865
339 2 9.21698 10.5131 15.7879
287 3 8.97692 8.76593 13.7824
14 4 11.1834 7.7219 10.3519
184 2 8.86046 8.60892 9.16138
124 2 8.13058 11.0447 17.4859
198 2 1.559 11.4554 16.617
283 3 2.16902 10.6007 9.20096
201 2 4.68244 12.8194 9.00559
316 4 8.96901 12.5728 9.74356
134 2 10.7238 8.55964 14.2537
347 2 4.48967 7.76629 16.9531
ITEM: TIMESTEP
100
ITEM: NUMBER OF ATOMS
350
ITEM: BOX BOUNDS xy xz yz pp pp pp
-8.2316830000000003e+00 1.5678200000000000e+01 -7.0408999999999997e+00
0.0000000000000000e+00 1.4894400000000001e+01 -1.1907829999999999e+00
0.0000000000000000e+00 1.7638300000000001e+01 6.7500000000000004e-01
ITEM: ATOMS id type x y z
234 3 6.04105 2.61958 6.6615
9 4 0.337588 2.25258 5.77335
13 4 -0.249069 4.66736 7.94273
15 4 -1.45797 7.16646 6.59901
23 4 3.15444 2.5731 4.00641
26 4 5.72284 1.54296 5.43948
30 4 4.68363 5.01438 2.48794
233 3 4.281 2.87892 8.55389
71 1 6.23177 2.76518 0.0690388
33 4 5.09309 3.61856 7.46111
139 2 3.37944 0.386796 3.07585
70 1 2.92858 1.28746 2.609
74 1 0.720986 5.72422 4.02023
97 2 -2.63657 6.78551 5.39741
108 2 5.48066 3.7608 1.58888
304 3 -0.253451 1.42368 2.15086
140 2 3.42456 1.58784 1.62622
141 2 1.77894 1.24824 2.52775
150 2 1.41978 4.97314 4.65179
151 2 0.979214 5.85623 2.91181
152 2 -0.424156 5.50118 4.23637
346 2 6.05816 2.24023 1.01609
207 3 -0.840349 2.19783 4.7266
208 3 0.37252 0.744321 6.49529
212 3 0.160523 3.58366 6.79034
213 3 -1.10611 5.79464 7.28802
224 3 1.82241 2.4849 4.94469
225 3 2.14097 1.14969 8.30618
226 3 4.43699 2.01265 4.6542
336 2 6.6998 0.832772 8.61344
230 3 3.55616 4.18671 3.306
232 3 4.17099 5.91615 1.31661
302 2 0.847768 3.85115 2.26577
35 4 4.0495 6.42157 6.40107
303 2 1.50103 4.74877 0.643194
237 3 2.49135 6.82295 5.92825
238 3 4.33545 4.92025 6.77793
342 2 -1.77295 5.23781 4.43712
314 3 -3.20594 7.09958 2.9611
299 4 0.364041 2.26548 0.666649
300 1 1.3981 3.76756 1.25445
301 2 2.42731 3.31737 1.46103
343 2 -2.79765 5.70568 0.713196
31 4 1.24252 7.29437 4.95305
6 4 1.12533 1.65391 16.2172
10 4 -0.662998 2.45034 13.5455
12 4 -2.74019 5.02099 16.8195
297 2 3.11827 3.05599 12.2353
16 4 0.239086 5.38357 13.7703
106 2 3.82831 4.65896 17.5177
295 2 1.61585 1.93281 12.4019
28 4 3.80674 3.44704 16.0993
34 4 0.938709 6.84016 9.66112
242 3 0.689003 7.07374 17.5546
37 4 -0.245018 6.82451 16.3012
66 1 -0.333795 1.94398 11.7619
17 4 -1.28026 7.32569 11.8542
211 3 -1.1235 3.80352 9.04829
305 3 0.0624366 2.07038 17.3487
98 2 1.91295 5.58358 13.2325
104 2 2.94317 2.08595 10.6877
38 4 3.45239 7.24778 11.8354
72 1 6.20942 1.60679 10.3159
128 2 0.119225 2.77015 11.0443
235 3 1.28656 5.32083 8.84729
130 2 0.227181 0.963201 11.7992
298 2 5.56931 1.47024 14.7799
143 2 5.33015 2.2706 16.5024
145 2 5.27356 1.08454 9.85139
292 1 2.74343 2.07333 12.7023
209 3 0.324902 1.4241 14.5588
294 2 2.7697 2.14355 13.83
291 4 4.00367 0.594295 12.8727
214 3 -0.160197 3.91137 13.6594
25 4 2.85289 2.40261 9.0021
216 3 -0.746864 6.39103 13.0947
228 3 2.50167 2.58271 16.1592
236 3 -0.400693 6.87186 10.4705
239 3 4.2841 4.19942 14.8011
215 3 -2.9345 7.43913 11.5171
241 3 0.472343 5.83235 15.2763
243 3 -1.75663 6.3203 16.7019
244 3 2.20953 7.05474 10.8512
245 3 3.45007 5.58395 12.7583
338 2 -3.66872 6.33311 12.4584
210 3 -2.01685 3.64326 17.3253
296 2 4.65785 0.873231 11.2732
107 2 1.82874 3.79995 9.04281
162 2 0.29252 14.2054 2.01964
19 4 -3.08242 9.4902 8.19455
20 4 -4.35148 11.9578 6.44383
24 4 -0.941273 13.7022 7.63142
39 4 2.31293 9.37742 2.52573
40 4 1.76425 9.42627 8.11694
42 4 0.641903 11.519 6.06969
75 1 0.948118 10.1633 1.38395
315 3 -2.57215 9.46261 1.04562
99 2 -4.69903 12.8544 2.1709
100 2 -3.02778 12.9383 6.28457
111 2 -0.725251 11.0547 5.07886
153 2 0.0777413 9.42643 1.34877
154 2 1.53326 10.443 0.417502
155 2 0.704651 11.0595 2.01666
227 3 -1.82542 14.125 6.31794
248 3 1.10247 8.1595 8.77639
218 3 -2.25065 8.33318 7.4085
219 3 -5.01321 11.6223 4.95081
220 3 -3.73668 10.687 7.0227
221 3 -5.37199 12.529 7.48614
309 2 -0.982652 8.67548 3.61869
246 3 1.55504 8.4268 3.73764
247 3 3.22297 8.47973 1.49718
253 3 0.311148 12.7434 7.07231
122 2 -4.1834 9.19798 0.899936
252 3 0.816642 10.2049 6.92418
86 1 -6.13273 13.0781 2.42605
186 2 -6.22295 13.7977 3.3561
306 4 -2.68515 8.60062 2.82607
7 4 -5.87558 14.3145 7.71496
308 1 -1.84707 9.61873 4.31214
310 2 -1.80653 12.0814 0.622266
311 2 -1.68356 10.6951 3.919
312 2 -1.59424 9.55006 5.40998
313 2 -3.58966 9.70045 3.90365
250 3 -1.84847 12.9553 8.62439
231 3 -0.175272 7.57111 5.78214
185 2 -6.68461 13.5024 1.51297
32 4 3.52728 7.149 0.644461
18 4 -5.73031 11.5185 3.5135
158 2 3.3624 7.57785 8.32671
322 2 -4.51721 13.0585 0.0475766
21 4 -2.87776 9.85449 14.3866
22 4 -3.89968 11.9613 12.1276
41 4 -1.87345 11.7792 9.75839
68 1 -3.87568 8.36136 14.5721
69 1 -0.547955 9.0604 12.1738
77 1 1.22177 9.33161 14.9416
101 2 -1.15605 9.94636 14.621
102 2 -3.13213 10.5439 15.965
103 2 -5.49062 11.6784 11.7915
112 2 -0.389443 8.38551 15.611
113 2 -0.32194 11.9857 10.4329
114 2 -0.255235 11.919 13.0319
127 2 -7.19314 14.1046 13.9764
249 3 -1.97571 10.3555 9.00021
135 2 -3.75672 8.19574 15.7388
136 2 0.0698569 9.10142 11.2331
137 2 0.147106 9.18693 13.2416
138 2 -1.45135 9.73475 12.0945
159 2 1.14358 8.23974 14.5037
160 2 0.174577 9.97515 14.9107
161 2 1.65308 9.30706 15.9306
341 2 -4.34012 14.0535 16.3218
293 1 -1.96068 14.7038 14.5476
222 3 -3.37581 10.8395 13.264
223 3 -3.85561 13.4999 12.6838
133 2 -3.08008 7.7018 13.8331
251 3 -3.10285 11.8736 10.8307
217 3 -4.27099 8.91611 9.10518
344 2 -1.24058 13.9731 14.0567
318 3 -7.3669 14.0461 9.00423
319 3 -6.79747 12.7857 11.3174
320 1 -5.37527 14.1063 16.5921
321 2 -6.05275 13.5945 15.7147
328 2 2.854 7.87672 16.0624
334 2 -4.58696 12.3587 17.1284
317 2 -5.27043 12.0676 9.18233
345 2 -2.59515 14.2538 15.4577
335 2 -1.54482 11.2176 17.5805
307 4 -3.34049 11.2267 17.6357
1 4 14.3763 1.43994 3.37251
2 1 12.8548 2.43721 2.70529
3 2 12.7213 2.25815 1.6063
4 2 11.906 2.25642 3.34636
118 2 6.64419 6.49499 1.05883
11 4 11.5061 5.79712 3.66568
46 4 8.27315 1.47676 3.55103
49 4 9.82088 3.97347 2.00842
50 4 6.25305 6.9456 4.1617
51 4 8.36185 6.57106 1.02815
52 4 9.93998 5.73619 8.49424
54 4 9.19467 6.98364 5.54323
257 3 7.0157 1.44263 4.45207
268 3 7.71039 6.86965 4.94194
324 2 12.8452 3.86066 1.2954
95 2 13.1648 2.23696 7.40181
263 3 5.11729 7.02886 5.35458
117 2 10.5616 3.25298 0.57029
120 2 10.8946 4.23698 8.03618
131 2 12.6207 3.84283 4.4985
269 3 9.50702 6.32675 7.11094
267 3 10.336 6.33358 4.56138
340 2 13.426 3.47721 2.91749
157 2 5.01079 6.6937 8.51021
173 2 6.49075 5.78124 7.77103
337 2 11.6191 0.911131 2.14523
260 3 9.01686 2.76742 2.68408
261 3 11.0484 4.56695 2.77078
262 3 5.94664 5.70944 3.08876
348 2 9.21514 0.217922 1.63826
264 3 9.03255 5.22225 1.56431
168 2 9.07702 3.62861 8.0217
174 2 7.27281 3.95714 8.20851
132 2 12.6464 5.164 5.92058
67 1 12.8061 4.95039 4.75003
82 1 6.65321 4.94788 8.50236
142 2 7.25798 3.26904 0.114253
115 2 9.48222 0.319512 4.10602
323 1 12.7426 4.64545 0.360259
170 2 11.6629 0.687992 11.5714
27 4 8.14934 0.853511 13.9682
29 4 6.70695 2.90459 11.8793
119 2 8.29899 5.49 9.2608
47 4 9.5326 3.45753 15.0542
48 4 11.019 2.86337 10.6095
55 4 10.7408 5.22166 12.8317
73 1 7.68932 4.52345 11.4134
79 1 8.74088 4.47197 16.4899
96 2 12.0276 4.82698 15.4278
81 1 10.7238 1.35281 11.6719
165 2 7.98505 4.39164 17.2792
94 2 14.5666 1.16985 9.18824
109 2 5.90183 6.1044 13.7814
116 2 10.1818 3.35756 16.7288
331 2 5.29393 6.43754 17.1193
121 2 6.81688 6.61363 9.53878
333 2 13.3051 2.32375 13.8153
147 2 7.29487 4.67281 10.3737
148 2 8.79637 4.41571 11.4738
149 2 7.26176 5.28706 12.101
164 2 9.01354 5.561 16.3372
265 3 10.9543 6.40972 9.41689
166 2 7.82297 4.26328 14.9213
167 2 9.48188 2.15235 9.09727
80 1 9.56506 3.33233 9.04245
169 2 8.80645 3.81864 9.88738
171 2 9.81949 0.887855 11.219
175 2 5.88343 4.89645 9.32458
172 2 10.5522 1.62206 12.7286
144 2 6.60807 2.49497 9.62595
229 3 7.47357 1.84532 12.9302
258 3 9.17993 1.77382 14.7078
259 3 12.4307 2.58754 9.92479
266 3 4.83215 7.32602 11.1774
270 3 10.956 4.62516 14.2317
271 3 10.7417 4.11729 11.6961
274 3 9.43053 6.09301 12.8098
325 2 10.485 5.09328 17.3581
332 2 7.08683 5.95655 16.7418
329 1 6.3078 6.85597 16.9887
240 3 5.42205 3.72592 12.4706
129 2 14.1856 1.75111 11.4409
8 4 13.6265 2.55813 8.9651
36 4 4.75579 4.94697 13.3789
146 2 7.02362 0.861215 10.6678
45 4 5.1591 13.6018 2.80682
57 4 9.84939 9.23905 1.30562
58 4 3.24171 11.5973 4.49153
59 4 6.5922 11.6372 1.05695
62 4 5.68022 11.3064 6.44886
126 2 2.64419 13.003 8.50199
83 1 6.33346 8.69251 3.17383
84 1 9.76322 8.77169 5.65375
85 1 8.4193 8.80829 8.33213
87 1 7.00243 11.337 4.91548
88 1 5.79031 13.0374 7.3024
76 1 4.41434 7.50002 7.96969
200 2 3.92537 11.6486 0.475475
123 2 8.19434 11.976 1.52105
163 2 1.6705 13.2497 2.91156
125 2 6.39568 10.153 1.82603
5 3 6.50589 14.0233 3.66399
156 2 5.02047 8.48007 7.81119
176 2 5.91099 8.48415 2.11187
177 2 7.28631 9.23674 3.15252
178 2 5.55059 9.14153 3.91346
179 2 10.4028 8.74491 4.68854
180 2 10.349 8.97005 6.57276
181 2 8.76844 9.37097 5.58886
182 2 9.33811 9.44565 8.054
183 2 8.04639 8.21864 7.54049
187 2 6.721 10.2888 4.34669
188 2 8.00944 11.3021 5.45877
189 2 6.78332 12.2976 4.36491
190 2 6.16525 12.9179 8.35158
191 2 4.71349 13.4471 7.16248
275 3 9.10524 7.92102 1.1748
277 3 3.22955 10.4922 3.32224
278 3 3.93394 13.0259 3.69237
350 2 6.54724 13.4581 6.6046
280 3 5.66741 12.7191 1.58314
285 3 4.17251 11.1042 5.68871
286 3 5.99685 10.1999 7.57564
349 2 8.28647 12.1567 3.60545
276 3 9.83255 10.0829 2.62879
279 3 1.73141 12.0064 5.02268
110 2 3.26946 9.02703 7.40318
78 1 1.41364 14.1608 2.39743
124 2 9.43044 10.2882 0.00790248
43 4 2.66369 9.8561 13.7536
44 4 1.32426 12.3432 12.6963
254 3 3.21842 8.51279 12.8999
330 2 6.36819 7.78771 16.2497
60 4 7.06064 10.0822 8.96509
61 4 2.29745 11.8931 9.82302
63 4 8.25637 9.98879 14.5862
64 4 4.06994 12.0186 16.0081
65 4 8.03227 12.8324 12.9507
89 1 6.54089 9.40794 15.0514
90 1 4.54511 13.7206 15.2495
91 1 2.42419 12.3186 17.029
92 1 3.9639 12.8317 9.92576
93 1 6.31427 13.3192 12.5079
288 3 3.74655 10.4905 14.9176
290 3 8.19465 11.4414 13.7564
327 2 3.60524 9.41531 16.7772
192 2 6.79012 9.48495 16.2552
193 2 6.50787 8.33395 14.584
194 2 5.57202 9.93919 14.8256
195 2 3.63199 13.8958 14.618
196 2 5.45713 13.3681 14.6529
197 2 4.70064 14.5891 15.9424
199 2 2.00443 13.2958 16.6993
326 1 3.49758 8.33323 16.881
284 3 1.20065 12.5363 10.8048
202 2 4.38909 12.0854 10.7845
203 2 3.79463 13.8341 10.4897
204 2 5.8019 12.429 13.1392
205 2 6.17318 13.2343 11.3629
206 2 6.25949 14.3362 12.9739
53 4 6.32779 7.77557 10.7483
255 3 2.2767 11.1869 13.047
256 3 1.68027 13.7834 13.1986
272 3 10.1068 8.13027 11.2267
289 3 5.29496 11.8706 17.1957
281 3 6.33879 9.25641 10.0629
282 3 7.86262 11.4323 9.38754
339 2 9.23987 10.2307 15.9559
287 3 8.98397 8.81896 13.7157
14 4 11.3124 7.7258 10.2745
184 2 8.54101 8.22603 9.29449
105 2 -0.090258 14.5785 15.0957
198 2 1.70333 11.4518 16.7502
56 4 8.97514 7.60588 12.3397
201 2 4.63716 12.9466 9.01723
316 4 8.83716 12.5737 9.74343
134 2 10.7543 8.45859 14.2116
273 3 7.41654 7.56884 11.8763
347 2 4.54999 7.88634 16.7995
283 3 2.22258 10.4935 9.16632
ITEM: TIMESTEP
200
ITEM: NUMBER OF ATOMS
350
ITEM: BOX BOUNDS xy xz yz pp pp pp
-8.2316830000000003e+00 1.5678200000000000e+01 -7.0408999999999997e+00
0.0000000000000000e+00 1.4894400000000001e+01 -1.1907829999999999e+00
0.0000000000000000e+00 1.7638300000000001e+01 6.7500000000000004e-01
ITEM: ATOMS id type x y z
32 4 3.42208 7.03027 0.719044
9 4 0.503449 2.17943 5.60644
13 4 -0.302312 4.75573 7.89864
15 4 -1.33084 7.22921 6.56006
23 4 3.26009 2.5284 3.96147
26 4 5.84214 1.64067 5.50214
30 4 4.79547 4.95422 2.58194
233 3 4.34451 2.82389 8.69238
71 1 6.22212 2.81394 0.0816939
33 4 5.22802 3.5588 7.58572
139 2 3.84819 0.381099 2.85198
70 1 3.07988 1.21061 2.55591
74 1 0.654282 5.53097 4.14597
97 2 -2.40034 6.83657 5.23401
108 2 5.63316 3.77871 1.6807
304 3 -0.474354 1.43293 1.93625
140 2 3.36668 1.80451 1.61032
141 2 2.03389 0.923004 2.64977
150 2 1.5962 4.91081 4.46862
151 2 0.629576 5.66756 3.03263
152 2 -0.308068 5.06507 4.5504
346 2 5.99691 2.215 0.993519
207 3 -0.748987 2.26222 4.41069
208 3 0.50541 0.758432 6.34054
212 3 0.391841 3.41339 6.70612
213 3 -1.30161 5.76179 7.22407
224 3 1.89142 2.40903 4.72612
225 3 2.10525 1.42572 8.40603
226 3 4.56571 2.08645 4.73843
336 2 6.72702 0.996786 8.36861
230 3 3.61899 4.14915 3.3289
232 3 4.17981 5.85966 1.46352
302 2 1.17892 3.72049 2.53354
35 4 4.11209 6.46237 6.35734
303 2 1.23257 4.6801 1.03758
237 3 2.50992 6.76736 5.91974
238 3 4.47751 4.76764 6.83025
342 2 -1.68689 5.14 4.78239
314 3 -3.22724 7.13913 3.01454
299 4 0.240435 2.32213 0.720992
300 1 1.32609 3.69011 1.43747
301 2 2.3546 3.27864 1.18455
235 3 1.18088 5.39763 8.81176
31 4 1.29194 7.1709 4.90195
234 3 6.20454 2.59616 6.77339
343 2 -2.84316 5.81694 0.594751
6 4 1.07351 1.45761 16.2177
10 4 -0.695249 2.42279 13.5168
12 4 -2.75587 5.07734 16.8162
297 2 3.2208 3.07088 12.2991
16 4 0.174186 5.58536 13.7488
106 2 3.77724 4.69844 17.5333
295 2 1.54713 2.03593 12.3124
28 4 3.8054 3.45076 16.0937
34 4 1.05577 6.89101 9.63212
242 3 0.594669 7.08022 17.6361
37 4 -0.242737 6.86548 16.3344
66 1 -0.43086 1.81581 11.774
17 4 -1.20846 7.42775 11.7026
211 3 -0.981439 3.80927 9.057
305 3 0.157985 2.04214 17.3731
98 2 1.60713 5.71485 12.9908
104 2 2.70544 2.45153 10.727
38 4 3.40709 7.20164 11.9731
72 1 6.39313 1.42252 10.2317
128 2 -0.230079 2.82133 11.2713
240 3 5.27294 3.57742 12.3392
130 2 0.461112 1.07978 11.5863
298 2 5.58826 1.52603 14.1423
143 2 5.38889 2.37111 16.5388
145 2 5.48288 1.00687 9.7507
292 1 2.65287 2.1409 12.664
209 3 0.192641 1.38557 14.5002
294 2 2.64833 2.27055 13.8265
291 4 3.9032 0.656378 12.6048
214 3 -0.201346 3.94869 13.5816
25 4 2.893 2.53967 9.02019
216 3 -0.858691 6.5657 13.092
228 3 2.44858 2.44085 16.1249
236 3 -0.349102 6.85749 10.4055
239 3 4.26517 4.21426 14.8447
215 3 -3.08672 7.47528 11.2578
241 3 0.466166 5.8931 15.272
243 3 -1.7707 6.34572 16.6292
244 3 2.23472 7.06345 10.6924
245 3 3.37032 5.55879 12.7436
338 2 -3.65922 6.38265 12.3645
210 3 -2.06192 3.7678 17.3743
296 2 4.68038 0.859433 10.9742
36 4 4.61945 4.86103 13.4545
107 2 2.06419 4.00356 8.84448
162 2 0.502568 14.2637 1.94866
19 4 -2.92564 9.48144 8.11326
20 4 -4.30885 12.0318 6.4479
24 4 -0.919317 13.7534 7.5605
39 4 2.35364 9.31029 2.5438
40 4 1.76325 9.4216 8.02488
42 4 0.599373 11.5737 6.09605
75 1 1.10986 10.1393 1.35563
315 3 -2.7528 9.87192 1.34737
99 2 -4.52199 12.6453 2.18663
100 2 -3.02165 13.0083 6.28323
111 2 -0.745012 11.1387 5.10289
153 2 0.120198 9.88839 1.78402
154 2 1.2587 9.6229 0.347601
155 2 1.39927 11.2902 1.41701
227 3 -1.71485 14.1206 6.19049
248 3 0.981326 8.13523 8.69408
218 3 -2.11838 8.33768 7.341
219 3 -5.05254 11.7186 5.02032
220 3 -3.69257 10.6066 6.94927
221 3 -5.21158 12.7826 7.55385
309 2 -1.02459 8.67288 3.57092
246 3 1.62014 8.16494 3.70973
247 3 3.26967 8.41778 1.51882
253 3 0.352544 12.8231 7.0431
122 2 -4.23988 9.12486 0.81251
252 3 0.958395 10.2211 6.99219
86 1 -5.95198 12.9955 2.30064
186 2 -6.13103 13.9014 2.96098
306 4 -2.71459 8.67297 2.88726
7 4 -5.90862 14.4542 7.77407
308 1 -1.959 9.76936 4.38497
310 2 -1.97268 12.4116 0.701299
311 2 -1.74235 10.7817 3.98077
312 2 -1.81167 9.67805 5.493
313 2 -3.59622 9.50687 4.31547
250 3 -1.6888 13.0078 8.70057
231 3 0.00293135 7.65331 5.8339
185 2 -6.36469 13.2483 1.31374
322 2 -4.72318 13.1167 0.156085
18 4 -5.67725 11.4688 3.56274
158 2 3.4309 7.56258 8.31147
307 4 -2.15083 10.7704 0.233609
335 2 -0.435848 10.4196 0.125841
279 3 1.73961 11.8031 5.0969
163 2 0.841151 12.9712 3.36548
21 4 -2.95287 10.0194 14.4049
22 4 -3.87251 11.9949 12.1006
41 4 -1.93719 11.7838 9.71628
68 1 -3.9844 8.54096 14.6399
69 1 -0.613839 9.17363 11.9902
77 1 1.08775 9.37182 14.7897
101 2 -1.29555 9.92973 14.5997
102 2 -3.13963 10.7485 16.1723
103 2 -5.40324 11.4504 11.6896
112 2 -0.464845 8.40369 15.5345
113 2 -0.45669 11.7175 10.6201
114 2 -0.166098 12.4738 13.565
127 2 -6.93294 14.0846 13.9408
249 3 -1.89919 10.3227 9.09457
135 2 -3.91555 8.30722 15.7814
136 2 0.150334 9.32535 11.144
137 2 -0.0537257 9.2834 13.0669
138 2 -1.63918 9.75097 11.8731
159 2 0.986491 8.2227 14.4711
160 2 0.0324703 9.91569 14.8411
161 2 1.72033 9.55872 15.8662
341 2 -4.25767 14.0633 16.868
293 1 -2.10218 14.7335 14.2747
222 3 -3.39907 10.9317 13.2367
223 3 -4.0144 13.5497 12.6017
105 2 -0.146163 14.606 14.7385
251 3 -3.02413 11.9956 10.7594
217 3 -4.00513 8.92043 9.09983
344 2 -1.60115 13.7022 14.2105
318 3 -7.24603 14.1421 9.17585
319 3 -6.72442 12.4953 11.276
320 1 -5.45625 13.9637 16.8137
321 2 -5.92534 13.4062 15.7936
133 2 -3.21146 7.81245 13.9744
334 2 -4.59353 12.1476 16.957
317 2 -5.38977 12.0808 9.11037
328 2 3.08331 7.75676 16.0593
284 3 1.0961 12.3526 10.8257
283 3 2.21445 10.4103 9.14946
345 2 -2.90524 14.7781 15.036
1 4 14.3361 1.43533 3.2133
2 1 12.7576 2.44941 2.66841
3 2 12.2441 2.28122 1.62261
4 2 12.0415 2.2567 3.52967
118 2 6.58034 6.6054 1.18476
11 4 11.6151 5.61531 3.71209
46 4 8.27194 1.44344 3.506
49 4 9.72069 3.78799 2.10508
50 4 6.25074 7.0286 4.27764
51 4 8.32877 6.48301 1.20281
52 4 9.99108 5.60941 8.46137
54 4 9.32728 6.97751 5.61309
257 3 7.02183 1.54787 4.49019
268 3 7.77085 6.96941 4.95393
324 2 12.7912 3.90098 1.1886
95 2 13.2277 2.40336 7.27204
263 3 5.07974 7.18917 5.31402
117 2 10.3043 3.09064 0.64951
120 2 11.0198 4.19621 8.17629
131 2 12.5621 3.82426 4.87285
269 3 9.5891 6.23971 7.1257
267 3 10.5167 6.26381 4.64612
340 2 13.2479 3.53675 2.74007
157 2 5.04035 6.82018 8.61028
173 2 6.8468 5.57373 7.47042
337 2 11.5636 0.902864 2.39315
260 3 9.02025 2.59515 2.77104
261 3 11.0151 4.36349 2.81101
262 3 5.88756 5.74739 3.32393
323 1 12.6346 4.63818 0.322986
264 3 8.81812 5.06046 1.59239
168 2 9.1539 3.40127 8.05989
174 2 7.37014 3.91612 8.45744
132 2 12.4843 5.28166 5.94785
67 1 12.8798 4.93638 4.98926
82 1 6.7726 4.94054 8.42249
142 2 7.13456 3.44171 0.222494
115 2 9.44773 0.383776 4.15198
170 2 11.5971 0.58979 11.2667
27 4 8.27132 0.956776 13.867
29 4 6.54175 2.84376 11.8286
119 2 8.39672 5.26876 9.28419
47 4 9.53356 3.51124 15.0676
48 4 11.0019 2.89629 10.5815
55 4 10.7286 5.28834 12.7917
73 1 7.66345 4.37246 11.3923
79 1 8.66548 4.48874 16.5434
96 2 12.0976 4.77389 15.2452
81 1 10.7438 1.26484 11.5848
165 2 7.80355 4.24084 17.2865
94 2 14.5361 1.19778 9.14563
109 2 5.81787 6.03303 13.7017
116 2 10.081 3.48922 16.7979
331 2 5.29663 6.50522 17.1471
121 2 6.55204 6.61887 9.45539
333 2 13.3712 2.30617 13.8417
147 2 7.29204 4.69136 10.3344
148 2 8.83633 4.2936 11.4617
149 2 7.22152 5.03424 12.2531
164 2 8.97386 5.5902 16.5875
265 3 10.8896 6.47637 9.39925
166 2 7.88839 4.36327 14.894
167 2 9.48262 1.98318 9.19476
80 1 9.58961 3.22866 9.07575
169 2 8.82577 3.72769 9.9273
171 2 9.69167 0.801236 11.3188
175 2 5.88991 5.05461 9.18499
172 2 10.8244 1.79543 12.6121
144 2 6.88791 2.41416 9.60313
229 3 7.47747 1.89491 12.7857
258 3 9.09214 2.03985 14.7444
259 3 12.4001 2.75221 9.7996
266 3 4.90573 7.28103 11.3571
270 3 11.04 4.50843 14.1253
271 3 10.7209 4.14509 11.677
274 3 9.42407 6.16076 12.9241
325 2 10.3844 5.09347 17.3951
332 2 7.16255 6.11374 16.7958
329 1 6.33438 6.95368 17.1116
273 3 7.5175 7.42936 11.7088
146 2 7.1504 0.681011 10.593
8 4 13.651 2.66425 8.85026
129 2 14.1939 1.37765 11.5642
45 4 5.21122 13.5933 2.89717
57 4 9.90777 9.24621 1.47389
58 4 3.20469 11.6596 4.46327
59 4 6.52053 11.6614 1.09034
62 4 5.54869 11.3461 6.48781
126 2 2.46602 13.035 8.52459
83 1 6.28743 8.77135 3.3081
84 1 9.7496 8.79048 5.77003
85 1 8.52753 8.79405 8.39242
87 1 6.97734 11.3141 5.15645
88 1 5.76259 13.1623 7.23101
76 1 4.50928 7.52266 7.88403
200 2 3.42073 11.7186 0.220594