ITEM: TIMESTEP
0
ITEM: NUMBER OF ATOMS
350
ITEM: BOX BOUNDS xy xz yz pp pp pp
-8.0552999999999990e+00 1.5678200000000000e+01 -7.0408999999999997e+00
0.0000000000000000e+00 1.4745456000000001e+01 -1.0144000000000000e+00
0.0000000000000000e+00 1.7638300000000001e+01 6.6825000000000001e-01
ITEM: ATOMS id type x y z
346 2 5.70281 1.84316 0.810779
9 4 0.409456 2.55056 5.65883
13 4 -0.0470655 4.91184 8.15735
33 4 5.26733 3.68869 7.34084
23 4 3.17585 2.29284 3.96056
26 4 5.63171 1.25339 5.31978
30 4 4.91068 4.41154 2.52212
15 4 -1.35187 7.24573 6.82296
32 4 2.96687 6.59628 0.499135
235 3 1.4622 5.36346 8.76491
35 4 4.24212 6.49118 6.42869
70 1 2.56354 1.23779 2.45816
74 1 1.25787 5.69945 4.1359
97 2 -2.54835 6.70097 5.81113
342 2 -2.32066 4.88833 5.81396
304 3 -0.647862 1.57541 1.89105
140 2 3.26667 1.67066 1.64354
141 2 1.43558 1.34616 2.31511
150 2 2.1702 5.08862 4.37021
151 2 1.31767 5.97591 3.05323
152 2 0.403917 5.05327 4.49832
309 2 -0.378544 6.52263 3.45134
207 3 -0.736648 2.43998 4.53131
208 3 0.380633 1.12804 6.49337
212 3 0.178884 3.8991 6.59816
213 3 -1.11062 6.07577 7.8362
224 3 1.90104 2.71721 4.92036
225 3 2.50104 1.23723 8.16767
226 3 4.29524 1.05522 4.57616
303 2 0.308071 4.59654 1.18702
230 3 4.08912 3.47943 3.39906
232 3 3.94849 5.13307 1.28008
343 2 -2.91824 5.87745 1.11814
257 3 6.85379 1.15506 4.21466
302 2 1.29267 3.43386 2.23589
237 3 2.71279 6.97873 6.17551
238 3 4.53201 4.97483 6.8118
139 2 2.86812 0.180892 2.77247
314 3 -3.17522 6.46893 3.55864
299 4 -0.211342 2.35878 0.404723
300 1 0.880096 3.65543 1.21721
301 2 1.78977 3.62721 0.530774
7 4 1.31462 0.433253 7.60525
234 3 5.66794 2.58199 6.33098
163 2 7.08241 0.223972 1.42328
108 2 5.97457 3.489 1.61227
106 2 4.23856 4.17986 0.0918978
6 4 0.916568 1.74873 16.0899
10 4 -0.621507 2.39087 13.183
345 2 4.309 0.656486 15.8619
38 4 3.58851 7.07547 12.0847
16 4 -0.425767 5.56459 13.4976
17 4 -1.31628 7.22641 11.2772
297 2 2.57886 3.3672 13.4791
28 4 3.68887 3.6043 16.4632
34 4 1.50811 6.92405 9.7869
295 2 1.75985 2.31438 12.1579
37 4 -0.540686 6.70207 16.3397
66 1 -0.103461 1.88739 11.4135
293 1 4.96594 0.739733 14.9851
72 1 6.22624 1.66497 10.5249
143 2 5.55983 2.39772 16.6764
98 2 0.958244 5.95433 12.6164
104 2 2.70789 1.95361 10.8085
298 2 5.61923 1.75395 14.8877
296 2 3.67687 2.8228 11.8475
128 2 0.242365 2.88552 11.0702
305 3 -0.248455 2.22936 17.135
130 2 0.665912 1.05222 11.2925
12 4 -3.10189 5.19388 16.8854
25 4 2.87322 2.40133 9.12656
145 2 5.43822 2.13688 9.84422
146 2 5.93835 0.660244 11.0519
209 3 0.164384 1.44196 14.2892
294 2 2.57321 1.22653 14.1357
211 3 -0.771212 3.91625 9.1207
214 3 -0.591352 3.92237 13.3466
215 3 -2.74846 7.1569 10.5684
216 3 -1.69202 6.48014 13.0715
228 3 2.36531 2.53929 16.3002
236 3 0.254998 6.77215 10.6909
239 3 4.12785 4.17724 15.1128
338 2 -3.20705 5.85208 12.8751
241 3 -0.0524165 5.96168 15.0345
243 3 -2.03899 6.341 16.7909
244 3 2.92416 6.92503 10.5971
245 3 3.55824 5.67416 12.9483
291 4 4.12365 1.19513 13.2869
292 1 2.75162 2.53631 12.7062
328 2 2.44278 7.59043 15.8142
71 1 5.12414 3.08575 17.5533
36 4 4.6776 4.84997 13.7033
107 2 1.99572 3.84152 9.01897
242 3 0.496123 6.74387 17.5955
210 3 -2.46066 3.82014 17.239
129 2 -1.16268 1.64538 11.0431
240 3 5.41002 3.74286 12.8167
94 2 -0.891745 1.34961 8.94505
105 2 6.88566 0.673432 15.2214
326 1 3.04509 7.66256 16.7427
233 3 4.31035 2.99525 8.84081
18 4 -5.51395 11.4957 3.06001
19 4 -2.90384 9.77942 7.95251
20 4 -4.17148 11.9435 6.07968
24 4 -0.13012 13.7167 7.52746
39 4 2.35277 9.11086 2.79994
40 4 2.09485 9.50144 8.20834
42 4 1.07104 11.4297 6.07431
75 1 1.06938 10.2731 1.97781
86 1 -6.45282 12.8518 1.92883
99 2 -4.80569 12.1193 1.4997
100 2 -2.79764 12.936 6.17387
111 2 -0.51775 11.2323 5.30889
153 2 0.00650519 9.90902 2.15435
154 2 1.38858 10.2207 0.906609
155 2 1.26913 11.3478 2.42255
231 3 -0.0801197 7.30571 5.94324
186 2 -5.72336 13.7458 2.15481
218 3 -1.84013 8.63625 7.4437
219 3 -4.58864 11.9051 4.46823
220 3 -3.77162 10.4965 6.65495
221 3 -5.17035 12.8066 6.99397
322 2 -5.574 13.2263 0.141853
246 3 1.51784 8.34737 4.03029
247 3 2.96526 8.03959 1.5779
335 2 0.0660568 9.30775 0.40907
348 2 0.824581 12.6442 2.36649
252 3 1.27385 10.1185 7.02896
253 3 1.09529 12.8239 6.92881
227 3 -1.38874 13.8611 6.41011
249 3 -2.05462 10.9384 8.57006
307 4 -1.54897 8.78098 0.367887
308 1 -2.11034 9.05291 3.97288
310 2 -2.5748 10.0857 0.0028594
311 2 -2.08278 9.75834 3.15817
312 2 -0.988935 8.89413 4.55031
313 2 -2.9503 9.12813 4.7034
315 3 -1.78906 7.98337 1.63967
317 2 -5.29361 12.1672 8.55863
306 4 -1.8937 7.41208 3.12864
31 4 1.36689 7.24366 5.27372
21 4 -2.44283 10.1934 14.4961
22 4 -2.99651 12.3358 12.1391
41 4 -1.15895 11.7473 9.59567
68 1 -3.65361 8.86544 14.8101
69 1 -0.778752 9.04024 11.2677
77 1 0.669793 9.3884 14.8666
101 2 -1.1362 9.0572 14.1659
102 2 -1.69648 10.9096 15.8502
103 2 -4.60734 12.1816 11.6784
112 2 -0.692783 8.2911 15.8671
113 2 -0.056791 10.7482 10.3575
114 2 -0.273473 11.798 12.468
133 2 -3.64568 7.88632 15.3926
134 2 -4.0877 8.83636 13.6151
135 2 -4.43308 9.593 15.437
136 2 -0.900151 9.18453 10.1044
137 2 0.326818 9.30889 11.6853
138 2 -1.65496 9.40729 11.9316
159 2 0.266185 10.2305 14.1208
319 3 -6.17024 12.6612 11.464
161 2 0.769937 8.26543 14.5791
127 2 -6.78685 14.0765 13.5874
217 3 -3.89598 9.02182 8.94888
222 3 -2.73301 11.2224 13.339
223 3 -2.85693 13.8379 12.5734
14 4 -4.19548 7.69499 9.82663
251 3 -2.09284 12.1371 10.9012
248 3 1.35395 8.30697 8.91264
160 2 0.998558 9.64985 15.9004
341 2 -4.75268 14.1677 17.0327
318 3 -6.94366 14.2086 9.172
320 1 -5.87811 14.1415 16.7531
321 2 -6.10321 13.4948 15.7975
316 4 -6.61217 12.7216 9.53683
334 2 -2.72618 8.60834 16.5613
344 2 -1.52375 13.835 14.7759
254 3 2.64969 8.2432 13.0881
250 3 -0.591525 13.0346 9.00046
1 4 14.3457 1.59342 3.30789
2 1 12.6745 2.50246 2.9652
3 2 12.673 2.41753 1.82487
4 2 11.7475 2.08702 3.46265
119 2 8.90835 4.51434 8.64652
11 4 11.3048 5.62169 4.33634
46 4 8.11595 1.11125 3.21282
49 4 9.80875 3.79232 2.4381
50 4 6.10339 6.84632 3.87076
51 4 8.68692 6.1794 0.968771
52 4 9.73873 5.76405 7.89025
324 2 12.6543 3.96887 1.59714
67 1 12.2802 4.9449 5.9735
263 3 5.12607 6.89674 5.13064
82 1 6.99373 4.02921 8.08921
95 2 13.1873 2.72339 7.40076
175 2 7.00333 5.13474 7.73016
117 2 11.0511 3.55768 1.22445
120 2 10.5689 4.65417 6.84001
131 2 11.816 3.84383 5.69232
132 2 12.0483 5.32419 7.00627
157 2 5.93705 6.93658 8.0386
142 2 6.78044 3.31414 0.104433
323 1 12.4828 4.82648 0.777538
173 2 7.68479 3.41829 7.33568
337 2 11.7784 0.919696 2.16519
260 3 8.97654 2.38315 2.75547
261 3 10.5677 4.32744 3.68719
262 3 5.78721 5.50501 3.16691
336 2 7.64253 1.12501 7.83226
264 3 8.84864 4.8423 1.77368
340 2 13.0891 3.51436 3.37726
267 3 10.2903 6.63872 4.91693
268 3 7.64102 7.07959 4.50846
269 3 8.6583 6.62081 7.12977
54 4 8.91337 7.22302 5.47459
325 2 11.473 4.74624 0.00213464
265 3 10.7933 6.59241 8.73799
164 2 8.815 3.0703 0.0309597
168 2 10.2477 1.29848 9.14346
27 4 8.17911 0.841202 14.0253
29 4 6.75482 2.7689 12.0007
330 2 7.31455 6.71749 15.7993
47 4 9.51282 3.1372 15.2969
48 4 11.4577 2.54103 11.0085
55 4 10.9305 5.08217 12.7938
73 1 7.89068 4.05775 11.2126
79 1 8.29687 3.23746 16.8302
80 1 9.96803 2.05965 9.88373
81 1 11.7275 0.931203 12.2899
332 2 8.96877 6.97641 16.7053
96 2 11.4766 5.03317 15.4764
109 2 5.92496 5.94017 14.2333
116 2 9.98557 3.24767 17.1356
329 1 7.85379 6.41585 16.6973
331 2 8.10593 5.22528 16.7019
347 2 3.88634 6.84533 16.8031
147 2 7.35252 4.73287 10.4729
148 2 8.64641 3.40869 10.6479
149 2 8.35347 4.58945 12.0204
274 3 9.83854 6.06108 12.2844
165 2 7.92454 2.17976 16.8756
166 2 7.80988 3.92938 15.3106
167 2 9.22778 1.66068 10.7446
333 2 13.4142 1.79809 12.8849
169 2 9.50237 2.91529 9.3375
171 2 10.7379 0.559765 11.8194
174 2 7.20001 3.93419 9.1969
172 2 11.5903 1.28997 13.3282
144 2 7.22519 1.60732 10.0607
229 3 7.54616 1.84116 12.9729
258 3 9.44368 1.70294 14.6055
259 3 12.6405 2.60452 9.98429
8 4 13.7815 2.72923 8.9073
270 3 10.6042 4.49168 14.353
271 3 11.1085 3.83366 11.8447
118 2 6.22678 6.85226 17.5766
45 4 5.21987 13.4798 2.71755
57 4 8.88911 9.01098 1.99578
58 4 3.57619 11.4511 4.29752
59 4 6.37428 11.4096 0.847825
62 4 5.85543 11.5724 6.49219
349 2 8.45856 12.481 3.2693
83 1 5.63513 8.26127 2.64699
84 1 9.26047 9.14566 5.58164
185 2 8.52834 13.1922 1.0492
87 1 7.22934 11.5648 5.20506
88 1 6.03256 13.354 7.28025
110 2 3.45513 8.78088 7.52878
286 3 6.17582 10.3514 7.89972
123 2 8.06219 11.5048 1.13318
124 2 7.42158 9.13361 2.82639
125 2 5.98829 10.0627 1.87939
78 1 1.05796 13.7053 2.02295
156 2 5.40593 8.77282 7.70857
176 2 4.55866 8.12608 2.22167
115 2 2.10024 13.8157 3.70334
178 2 5.82211 9.20051 3.16658
179 2 9.46315 9.47794 4.53234
180 2 10.1399 9.32785 6.2406
181 2 8.25603 9.42947 5.93855
122 2 8.49891 9.71265 0.540845
183 2 8.80031 9.09741 7.5758
187 2 7.12212 10.585 4.66348
188 2 8.26884 11.6806 5.72218
189 2 6.97483 12.4689 4.42241
190 2 6.44203 13.2025 8.27347
191 2 5.02814 13.8176 7.24121
275 3 9.09493 7.56752 1.52804
277 3 3.47271 10.1124 3.27713
278 3 3.99259 12.8493 3.44635
350 2 6.73754 13.8302 6.53432
280 3 5.64839 12.6866 1.37448
285 3 4.55491 11.38 5.62114
76 1 5.04566 7.6352 7.82467
276 3 9.8422 9.94501 2.70858
5 3 6.6073 13.8267 3.50423
177 2 6.4079 8.07478 1.79211
126 2 3.27663 13.2224 8.67455
162 2 2.00919 13.8002 1.36495
199 2 3.19283 11.5213 0.159805
158 2 4.25086 7.44321 8.66164
279 3 2.09918 11.6297 4.86662
85 1 8.50941 9.16256 8.74838
287 3 9.17386 8.5679 13.3513
289 3 5.01859 11.7138 17.0289
53 4 6.20541 8.19984 11.1278
198 2 2.46539 13.3924 16.3079
60 4 7.11652 10.366 9.23543
61 4 2.828 12.0368 9.78412
63 4 8.51685 9.82038 14.0603
64 4 3.83777 11.6041 15.9299
65 4 8.56219 12.6066 12.7063
89 1 7.59761 9.47202 15.8377
90 1 4.52045 13.0769 14.5908
91 1 2.23661 12.2963 16.6651
92 1 4.57704 12.6945 10.0993
93 1 6.77587 12.5587 12.2211
182 2 9.38348 9.61078 9.40855
327 2 3.41564 8.73094 16.9026
184 2 8.32413 8.12248 9.12525
192 2 7.64329 8.38853 16.1012
193 2 6.77599 9.34473 14.4581
194 2 6.93633 9.99396 16.5358
195 2 4.20499 12.6767 13.5604
196 2 5.60323 13.014 14.7903
197 2 3.96811 13.9514 14.9928
339 2 9.0809 10.0605 16.0136
284 3 1.83669 12.6352 10.9719
290 3 8.62533 11.2717 13.5621
202 2 5.00383 11.7257 10.5812
203 2 4.63366 13.6252 10.8329
204 2 6.62176 11.5553 11.7178
205 2 6.81201 13.4623 11.4749
206 2 5.91095 12.8283 13.1645
288 3 3.49822 10.1126 15.0538
201 2 5.13878 12.9232 9.08252
256 3 1.54301 13.4566 13.5628
283 3 2.63804 10.6134 9.13884
272 3 10.3972 8.2534 10.893
281 3 6.26845 9.72348 10.7769
282 3 7.79526 11.731 9.42692
43 4 2.48884 9.65362 13.8741
266 3 5.19819 7.69018 12.1557
170 2 5.48199 14.1729 12.3727
56 4 9.30851 7.55034 12.0148
273 3 7.81349 7.59348 11.3181
44 4 1.31147 12.2698 12.5355
255 3 2.19497 10.9769 12.8775
121 2 5.69869 7.42555 9.68872
200 2 1.37251 11.849 16.0577
ITEM: TIMESTEP
100
ITEM: NUMBER OF ATOMS
350
ITEM: BOX BOUNDS xy xz yz pp pp pp
-8.0552999999999990e+00 1.5678200000000000e+01 -7.0408999999999997e+00
0.0000000000000000e+00 1.4745456000000001e+01 -1.0144000000000000e+00
0.0000000000000000e+00 1.7638300000000001e+01 6.6825000000000001e-01
ITEM: ATOMS id type x y z
346 2 5.33602 1.78611 0.820549
9 4 0.385408 2.53221 5.69963
13 4 -0.0608674 4.92796 8.08588
33 4 5.31236 3.63524 7.49336
23 4 3.13681 2.30052 3.99998
26 4 5.56784 1.27913 5.40679
30 4 4.7565 4.49108 2.32905
343 2 -2.88407 5.80655 1.07953
32 4 3.00274 6.58576 0.424556
108 2 5.71451 3.28449 1.54097
94 2 -0.899313 1.35971 8.80345
70 1 2.48203 1.38166 2.38516
74 1 1.10615 5.50317 4.27033
97 2 -2.53008 6.7957 5.79739
342 2 -2.33486 4.82918 5.6569
304 3 -0.607749 1.66297 1.90602
140 2 2.73661 2.15106 1.5854
141 2 1.36278 1.33243 2.49937
150 2 2.06031 4.99819 4.82278
151 2 1.19939 5.43935 3.14757
152 2 0.120254 5.00968 4.46931
309 2 -0.375507 6.2909 3.23642
207 3 -0.817194 2.40366 4.58389
208 3 0.374435 1.16722 6.55387
212 3 0.224201 3.85689 6.64765
213 3 -1.15127 6.14212 7.89459
224 3 1.75964 2.62977 4.79892
225 3 2.32108 1.54688 8.3071
226 3 4.08734 1.19971 4.7634
303 2 0.346003 4.77284 0.95639
230 3 3.8404 3.56837 3.18413
232 3 3.94291 5.16638 1.17392
31 4 1.39709 7.17857 5.15002
257 3 6.70223 1.25892 4.23485
302 2 1.34223 3.75588 2.15507
237 3 2.74514 6.99685 6.12607
238 3 4.76149 5.12444 6.80272
139 2 3.0112 0.399245 2.30145
314 3 -3.02099 6.30703 3.52691
299 4 -0.0213186 2.45866 0.487182
300 1 1.00859 3.90957 1.07797
301 2 1.77909 3.83769 0.235819
7 4 1.33482 0.502953 7.67613
234 3 5.67617 2.56427 6.43819
163 2 7.2731 0.337325 1.27162
106 2 4.25599 4.05772 0.0399879
6 4 1.00477 1.55705 16.1796
10 4 -0.773972 2.31689 13.2992
345 2 4.53393 1.07347 15.8904
38 4 3.53272 7.1265 12.2981
16 4 -0.418338 5.6892 13.4751
17 4 -1.43053 7.37636 11.25
297 2 2.56286 3.28281 13.5649
28 4 3.63611 3.52147 16.4762
34 4 1.49719 6.9106 9.88247
295 2 1.78236 2.20817 12.2655
37 4 -0.531459 6.93645 16.2079
66 1 -0.129996 1.68997 11.6196
293 1 5.07242 0.924914 14.8981
72 1 6.14088 1.55403 10.746
143 2 5.3185 1.88768 16.9906
98 2 0.921166 6.08995 12.5894
104 2 2.76514 2.0368 10.8152
298 2 5.75361 1.93023 14.6092
296 2 3.65161 2.86624 11.9862
128 2 0.230472 2.73932 11.2289
305 3 -0.109329 2.15318 17.2064
130 2 0.599936 0.884479 11.482
12 4 -3.1021 5.13626 16.9553
25 4 2.9311 2.53557 9.26026
145 2 5.52534 2.10867 9.96676
146 2 5.67732 0.665999 11.1982
209 3 0.205013 1.46863 14.3848
294 2 2.63622 1.28704 14.3104
211 3 -0.762042 3.81796 9.26483
214 3 -0.609497 3.86755 13.3944
215 3 -2.75869 7.13374 10.3785
216 3 -1.67415 6.50119 13.0297
228 3 2.35865 2.4891 16.2646
236 3 0.0703787 6.69029 10.9839
239 3 4.23717 4.13392 15.1427
338 2 -3.12059 5.78739 12.9485
241 3 -0.0335728 6.18302 14.9473
243 3 -1.99106 6.37124 16.7695
244 3 2.8408 7.04473 10.687
245 3 3.48382 5.40641 12.917
291 4 4.086 1.09716 13.298
292 1 2.74659 2.48539 12.7936
328 2 2.55965 7.25871 15.7372
71 1 4.95745 2.77754 17.5995
36 4 4.72662 4.83812 13.6696
107 2 2.1177 4.0044 9.27373
242 3 0.70688 6.9308 17.2779
210 3 -2.467 3.68833 17.3167
235 3 1.39792 5.50388 8.87714
326 1 3.16597 7.61268 16.6356
233 3 4.36087 2.98759 8.90838
18 4 -5.43148 11.4586 3.01544
19 4 -2.92626 9.87484 7.91401
20 4 -4.15422 12.0542 6.18463
24 4 -0.175252 13.8118 7.62068
39 4 2.2352 9.18412 2.76341
40 4 2.15185 9.43365 8.23994
42 4 1.07006 11.4925 6.17513
75 1 0.826076 10.237 1.97845
86 1 -6.34159 12.7904 1.7998
99 2 -4.46853 12.3551 1.812
100 2 -2.72951 12.9713 6.06381
111 2 -0.371993 11.2962 5.48914
153 2 -0.153051 9.77136 2.28185
154 2 1.17598 9.98612 0.858185
155 2 0.911472 11.3591 2.2753
231 3 0.0758105 7.38127 5.96404
186 2 -5.78899 13.7906 2.03323
218 3 -1.90585 8.71293 7.25959
219 3 -4.74331 11.8047 4.70212
220 3 -3.76539 10.5766 6.61655
221 3 -5.00506 12.9211 7.19545
322 2 -5.22244 13.1085 0.169886
246 3 1.58282 8.22816 3.91509
247 3 2.80253 7.92708 1.5127
335 2 -0.536952 9.95171 0.411465
348 2 0.506214 12.7143 2.27642
252 3 1.32535 10.1577 7.04235
253 3 1.09922 12.9307 6.98522
227 3 -1.2902 13.8258 6.41351
249 3 -2.00978 10.9437 8.66362
307 4 -1.74384 8.77147 0.362083
308 1 -2.18995 8.82606 4.09243
306 4 -1.8214 7.29287 3.05299
311 2 -2.49809 9.67064 3.34469
312 2 -1.04816 8.87593 4.5118
313 2 -3.0237 8.5546 4.84772
315 3 -1.7714 7.89579 1.63243
317 2 -5.0397 12.2879 8.70608
310 2 -3.1447 9.63339 0.393715
15 4 -1.28839 7.30968 6.84384
21 4 -2.43659 10.2241 14.3417
22 4 -3.09956 12.2251 12.1084
41 4 -1.23976 11.7818 9.65524
68 1 -3.68602 8.91866 14.8309
69 1 -0.782266 9.17701 11.1693
77 1 0.773209 9.20039 14.7914
101 2 -0.980304 9.34558 13.9584
102 2 -1.73966 11.2356 15.5464
103 2 -4.67266 11.821 11.7496
112 2 -0.779699 8.57672 15.8524
113 2 -0.011935 10.7603 10.0992
114 2 -0.267943 11.9137 12.5374
133 2 -3.58191 7.83241 15.1595
134 2 -4.14771 8.85801 13.7004
135 2 -4.2354 9.69508 15.6277
136 2 -0.62692 9.24878 10.0274
137 2 0.0825037 9.47969 11.7397
138 2 -1.76953 9.62143 11.616
159 2 0.22902 10.1993 14.7129
319 3 -6.12508 12.8341 11.4897
161 2 0.265199 8.3201 14.3689
127 2 -6.90454 14.0802 13.8642
217 3 -4.0138 9.15528 8.92715
222 3 -2.81229 11.2575 13.2386
223 3 -3.03751 13.8024 12.6009
43 4 2.45435 9.54851 13.9043
251 3 -2.24352 12.0717 10.8882
248 3 1.43655 8.22242 8.98345
160 2 1.07723 9.01225 15.9445
341 2 -4.41508 14.2323 17.137
318 3 -6.98776 14.1061 9.09906
320 1 -5.50934 13.9725 16.7959
321 2 -5.59444 13.2097 16.0312
316 4 -6.48917 12.6467 9.56074
334 2 -2.59367 8.63322 16.5065
344 2 -1.41501 14.0333 14.8068
254 3 2.66929 8.17524 13.1369
250 3 -0.711988 13.1722 9.0433
14 4 -4.19975 7.74771 9.8336
1 4 14.1827 1.58059 3.33164
2 1 12.4792 2.37858 2.92212
3 2 12.573 2.23755 1.77206
4 2 11.5152 2.03631 3.45239
119 2 8.79282 4.78421 8.72578
11 4 11.3316 5.5994 4.35319
46 4 8.01613 1.23785 3.2693
49 4 9.83121 3.71324 2.51292
50 4 6.05593 6.81325 3.89958
51 4 8.7571 6.15346 1.00086
52 4 9.69152 5.99948 7.92644
324 2 12.5337 3.96775 1.68838
67 1 12.2889 4.96644 5.98654
118 2 7.21666 6.2197 0.0958125
82 1 6.94408 4.21025 8.29053
95 2 13.299 2.94643 7.25767
175 2 7.02878 5.31738 7.88977
117 2 10.9645 3.44066 1.19855
120 2 10.6114 4.89169 7.03893
131 2 11.6572 3.8955 5.92258
132 2 12.2055 5.41417 7.0259
157 2 5.90602 6.88102 8.07176
142 2 6.76809 2.93301 0.183011
323 1 12.435 4.75689 0.80909
173 2 7.66553 3.46519 7.74971
337 2 11.5526 0.850896 2.11823
260 3 8.96665 2.40715 2.83777
261 3 10.6616 4.28066 3.71306
262 3 5.62391 5.54995 3.07119
336 2 7.35459 1.25071 7.99876
264 3 8.92368 4.83462 1.80595
340 2 12.8827 3.46423 3.37912
267 3 10.2525 6.59755 4.8355
268 3 7.64129 7.07417 4.32702
269 3 8.66258 6.77336 6.95317
325 2 11.4283 4.79404 0.140153
8 4 13.8327 2.75251 8.77129
35 4 4.30119 6.59601 6.36874
158 2 4.10437 7.33174 8.63404
168 2 10.1952 1.12747 9.07013
27 4 8.25865 0.742645 13.9934
29 4 6.70593 2.81192 12.0306
330 2 7.13908 6.82484 15.7671
47 4 9.56739 3.13027 15.1003
48 4 11.3694 2.53779 10.7735
55 4 10.9938 5.07743 12.8011
73 1 8.01362 4.04351 11.3577
79 1 8.4928 3.32589 16.7253
80 1 9.85939 2.00186 9.65531
81 1 11.7734 1.09423 12.1544
332 2 8.79603 6.96062 16.5864
96 2 11.7624 4.89607 15.4476
109 2 5.72762 6.1499 14.0087
116 2 10.1145 3.38668 17.0205
329 1 7.70566 6.43877 16.6864
331 2 7.90206 5.16827 16.5893
240 3 5.65226 3.77737 12.7573
147 2 7.50001 4.91319 10.8505
148 2 8.75071 3.34469 10.7115
149 2 8.48698 4.41995 12.322
274 3 9.89853 6.13443 12.3484
165 2 8.15661 2.32169 16.9316
166 2 7.8257 3.79903 15.1262
167 2 9.10186 1.65022 10.4947
333 2 13.3022 1.74977 13.2079
169 2 9.5173 2.9314 9.14684
171 2 10.7079 0.566394 11.8335
174 2 7.28881 4.16783 9.44758
172 2 11.5833 1.52525 13.1883
144 2 7.21479 1.333 10.3683
229 3 7.49707 1.69791 12.9479
258 3 9.58443 1.57389 14.6009
259 3 12.5882 2.60318 9.77943
105 2 7.08343 0.603144 15.2095
270 3 10.6645 4.51429 14.3161
271 3 11.0419 3.79492 11.7934
164 2 7.88734 4.01858 17.4021
121 2 5.52461 7.04945 9.77526
129 2 14.4608 1.29477 11.2363
347 2 4.16083 7.18612 16.7411
265 3 10.6143 6.7163 8.94952
273 3 7.72521 7.40209 11.288
45 4 5.20732 13.4752 2.64128
57 4 9.03817 9.02153 1.76936
58 4 3.53464 11.4314 4.25883
59 4 6.38925 11.3648 0.86944
62 4 6.01831 11.5104 6.46005
349 2 8.50274 12.4008 3.12722
83 1 5.64432 8.24009 2.49259
84 1 9.13418 9.20572 5.54828
185 2 8.61054 13.0106 1.0504
87 1 7.45934 11.5941 5.21668
88 1 5.99031 13.297 7.1679
110 2 3.63164 8.90189 7.56027
286 3 6.14383 10.3553 7.97013
123 2 8.05824 11.473 1.14681
124 2 7.51747 8.96844 2.52538
125 2 6.01695 10.087 1.88868
78 1 0.90096 13.8149 2.08561
156 2 5.38284 8.70126 7.94268
176 2 4.58063 8.19619 2.17864
115 2 2.03264 13.9168 3.65888
178 2 5.84062 9.03875 3.30585
179 2 9.31245 9.38525 4.42791
180 2 10.0271 9.59724 6.1337
181 2 8.11153 9.7068 5.97844
122 2 8.65927 9.66308 0.268616
183 2 8.74622 9.0681 7.52336
187 2 7.3059 10.6208 4.67865
188 2 8.41393 11.6607 5.81694
189 2 7.19625 12.5877 4.52905
190 2 6.56779 13.313 8.23243
191 2 4.94522 13.7986 7.26107
275 3 9.36025 7.57675 1.40628
277 3 3.39573 10.0985 3.33112
278 3 4.09944 12.696 3.41404
350 2 6.68385 13.767 6.3772
280 3 5.78549 12.696 1.35636
285 3 4.74568 11.2766 5.55462
76 1 4.99713 7.55355 7.92663
276 3 9.99717 10.0284 2.45911
5 3 6.55782 13.9724 3.78763
177 2 6.39 8.00457 1.66898
126 2 3.13912 13.123 8.53859
162 2 2.02445 13.8084 1.69539
199 2 3.37196 11.8045 0.0440954
263 3 5.1385 7.27323 5.13329
279 3 2.08107 11.7009 4.93446
85 1 8.46074 9.02057 8.69
54 4 8.86665 7.27864 5.38159
287 3 9.25148 8.50657 13.4484
289 3 5.03334 11.5358 16.9929
53 4 6.16019 7.98396 11.112
198 2 2.0866 13.2232 16.0338
60 4 7.14839 10.1978 9.24176
61 4 2.84027 12.0058 9.82621
63 4 8.48478 9.74098 14.0614
64 4 3.87859 11.648 15.7918
65 4 8.56374 12.7 12.7649
89 1 7.85187 9.61601 15.847
90 1 4.48551 13.1177 14.4708
91 1 2.27263 12.2768 16.5998
92 1 4.57192 12.8353 9.91955
93 1 6.80054 12.6041 12.1965
182 2 9.42356 9.26902 9.29668
327 2 3.20702 8.79383 16.8415
184 2 8.08044 8.02854 9.02539
192 2 7.83732 8.37096 16.2097
193 2 6.72046 9.47889 14.1727
194 2 6.85928 10.1831 15.8673
195 2 4.43832 12.532 13.4651
196 2 5.50631 13.3338 14.9386
197 2 3.74774 13.9289 14.539
339 2 8.70355 10.2372 16.3535
284 3 1.97027 12.5703 11.0473
290 3 8.7301 11.2593 13.6408
202 2 5.04631 11.8786 10.3617
203 2 4.66885 13.7363 10.7228
204 2 6.73094 11.552 11.7843
205 2 6.9171 13.4271 11.3621
206 2 5.92338 12.847 13.028
288 3 3.51712 10.2574 14.9977
201 2 5.10649 13.0911 8.93081
256 3 1.57703 13.3848 13.5253
283 3 2.5291 10.5474 9.24109
272 3 10.4376 8.21734 10.9921
281 3 6.32008 9.45739 10.7267
282 3 8.06799 11.4901 9.44799
44 4 1.36236 12.1458 12.547
266 3 5.13574 7.68317 12.2527
170 2 5.58958 14.2451 12.0962
56 4 9.31913 7.55094 12.0778
255 3 2.02909 10.79 12.9856
200 2 1.55549 11.4361 16.3963
ITEM: TIMESTEP
200
ITEM: NUMBER OF ATOMS
350
ITEM: BOX BOUNDS xy xz yz pp pp pp
-8.0552999999999990e+00 1.5678200000000000e+01 -7.0408999999999997e+00
0.0000000000000000e+00 1.4745456000000001e+01 -1.0144000000000000e+00
0.0000000000000000e+00 1.7638300000000001e+01 6.6825000000000001e-01
ITEM: ATOMS id type x y z
346 2 5.21192 1.8486 0.96093
9 4 0.284533 2.50769 5.742
13 4 -0.0598152 4.89081 8.1137
33 4 5.44049 3.68556 7.47671
23 4 3.12074 2.39431 4.01377
26 4 5.54523 1.37403 5.45962
30 4 4.73268 4.48697 2.42438
234 3 5.779 2.54248 6.50698
32 4 3.06161 6.75134 0.315734
108 2 5.65311 3.09642 1.88066
15 4 -1.2719 7.24508 6.77362
70 1 2.61586 1.38054 2.40319
74 1 1.20846 5.59462 4.15775
97 2 -2.3272 6.4245 5.76917
342 2 -2.40194 4.48292 5.67517
304 3 -0.492497 1.81813 2.15607
140 2 3.14061 1.87121 1.55242
141 2 1.51283 1.38921 2.36494
150 2 2.10867 5.01748 4.61731
151 2 1.42535 5.73749 3.04413
152 2 0.300932 4.96796 4.49605
309 2 -0.372243 6.43597 3.40812
207 3 -1.05005 2.4238 4.79949
208 3 0.28803 1.15319 6.57428
212 3 0.12895 3.97632 6.80468
213 3 -1.06355 6.16078 7.91129
224 3 1.62417 2.58438 4.81005
225 3 2.08782 1.55088 8.43349
226 3 4.10425 1.42057 4.7135
303 2 0.169468 4.76439 0.721916
230 3 3.71863 3.78345 3.43777
232 3 3.84718 5.1104 1.1374
31 4 1.52477 7.2142 5.11809
257 3 6.7926 1.34059 4.4408
302 2 1.13042 3.88311 2.18809
237 3 2.84398 6.94923 6.11723
238 3 4.75418 5.03965 6.78843
139 2 3.04533 0.337515 2.56417
314 3 -3.01897 6.0619 3.55353
299 4 -0.108509 2.32346 0.69164
300 1 0.905037 3.87204 1.09851
301 2 1.86736 3.85051 0.53113
7 4 1.20201 0.510235 7.71558
71 1 5.81093 2.29354 0.0697088
6 4 0.949002 1.53684 16.2573
10 4 -0.84788 2.48525 13.4084
345 2 4.5383 0.735718 15.8259
38 4 3.58168 7.06331 12.2681
16 4 -0.527808 5.64262 13.4761
17 4 -1.36751 7.30942 11.1763
297 2 2.66255 3.34601 13.5881
28 4 3.5936 3.56026 16.3645
34 4 1.50125 6.90094 9.86419
295 2 1.69753 2.35631 12.2912
37 4 -0.6071 6.80287 16.1581
66 1 -0.22111 2.03745 11.7199
293 1 5.16282 0.648299 14.9305
72 1 6.10011 1.64139 10.7588
143 2 5.33334 2.20835 17.1841
98 2 0.690983 5.85843 12.3901
104 2 2.69558 2.2754 10.8817
298 2 5.76561 1.56717 14.7071
296 2 3.80872 2.68473 12.0293
128 2 -0.0295823 3.05512 11.2116
305 3 -0.0311317 2.05823 17.4695
130 2 0.736831 1.30822 11.8514
12 4 -3.1208 5.01538 16.8637
25 4 2.8856 2.60582 9.20318
145 2 5.43121 2.27614 10.0016
146 2 5.52253 0.723384 11.2013
209 3 -0.00872956 1.38095 14.6156
294 2 2.57415 1.31572 14.3128
211 3 -0.817068 3.76179 9.1666
214 3 -0.786323 4.03621 13.4342
215 3 -2.73401 7.34506 10.4099
216 3 -1.82605 6.8261 12.8853
228 3 2.46701 2.52639 16.276
236 3 0.0416285 6.65325 10.8219
239 3 4.26202 4.2978 15.2184
338 2 -3.13066 5.93385 12.8639
241 3 0.0188108 6.01873 14.8996
243 3 -2.14439 6.2526 16.6234
244 3 2.86216 7.00466 10.7207
245 3 3.54734 5.48721 12.8764
291 4 4.00488 0.984075 13.3657
292 1 2.74677 2.51043 12.8376
233 3 4.3 3.12753 8.90464
106 2 3.02539 4.70546 17.5739
36 4 4.78598 4.88483 13.7569
107 2 2.10875 4.09149 9.30346
242 3 0.512644 7.09268 17.3174
210 3 -2.20397 3.68237 17.4066
235 3 1.527 5.58226 8.88624
129 2 -1.1428 1.50485 11.2326
94 2 -0.925208 1.19768 9.0364
18 4 -5.38128 11.3967 3.04741
19 4 -2.92529 9.80686 7.81944
20 4 -4.13125 12.1082 6.09309
24 4 -0.193641 13.8426 7.64169
39 4 2.33095 9.08924 2.66113
40 4 2.09778 9.44379 8.32435
42 4 1.15509 11.513 6.20672
75 1 0.961709 10.1597 1.78515
86 1 -6.17225 12.7805 1.81726
99 2 -4.29278 12.0804 1.85368
100 2 -2.6347 12.8519 5.86294
111 2 -0.3584 11.2854 5.62302
153 2 0.0830834 9.65665 2.34722
154 2 1.07523 9.97752 0.656961
155 2 1.08239 11.3143 2.01351
231 3 0.116473 7.42972 5.91047
186 2 -5.52191 13.7259 2.13516
218 3 -2.01523 8.56846 7.23834
219 3 -4.87443 11.8423 4.64499
220 3 -3.853 10.6756 6.75303
221 3 -4.94329 13.0279 7.15034
322 2 -5.12544 13.0074 0.108445
246 3 1.5961 8.28299 3.87307
247 3 3.00353 7.99311 1.37427
335 2 -0.640929 9.89022 0.61903
348 2 1.09396 12.6346 2.43324
252 3 1.32613 10.3331 7.19961
310 2 -3.30178 10.0378 0.670719
227 3 -1.32996 13.7915 6.40781
249 3 -2.0571 10.9741 8.52924
307 4 -2.04362 8.93141 0.550038
308 1 -2.17137 8.75797 4.04348
306 4 -1.91523 7.16841 3.04866
311 2 -2.42099 9.75575 3.50103
312 2 -1.1175 8.77451 4.48634
313 2 -2.94471 8.60193 4.88298
315 3 -2.06724 7.77459 1.52576
163 2 -0.130775 14.011 1.8225
253 3 1.09227 12.9199 7.15574
317 2 -5.16494 12.2206 8.59309
21 4 -2.40382 10.2819 14.2819
22 4 -3.27647 12.2219 12.0224
41 4 -1.37519 11.9216 9.60506
68 1 -3.67059 8.99652 14.6402
69 1 -0.803343 9.18182 11.0301
77 1 0.74022 9.37632 15.1659
101 2 -0.705559 9.73408 13.9386
102 2 -1.81696 11.1921 15.6103
103 2 -4.76977 11.8533 11.4743
112 2 -0.885886 8.42511 15.6203
113 2 -0.198825 10.9601 10.4559
114 2 -0.423226 12.0945 12.3423
133 2 -2.76867 8.19259 15.0645
134 2 -4.25221 8.60567 13.7716
135 2 -4.39019 9.41391 15.4628
136 2 -0.725653 9.35456 9.92422
137 2 0.108533 9.51651 11.6192
138 2 -1.77073 9.61862 11.431
159 2 0.470926 10.5107 14.8973
319 3 -6.13448 12.8786 11.4732
161 2 0.56369 8.37637 14.3984
127 2 -6.83344 14.0465 13.9028
255 3 1.69562 10.687 12.8773
222 3 -2.92916 11.1944 13.1788
223 3 -3.28095 13.8008 12.5432
43 4 2.40314 9.61804 13.8247
251 3 -2.37495 12.1671 10.8261
248 3 1.24625 8.28915 9.00666
160 2 1.55998 9.33021 16.0225
341 2 -4.4042 14.1665 16.8176
318 3 -7.07653 13.909 9.011
320 1 -5.57508 13.9162 16.6783
321 2 -5.84009 13.3442 15.703
316 4 -6.50868 12.589 9.61783
334 2 -3.11838 9.06352 16.5829
344 2 -1.41845 13.7078 14.7854
254 3 2.80843 8.17122 13.299
250 3 -0.657855 13.229 9.10411
14 4 -4.3313 7.95818 9.80887
217 3 -4.00139 9.24448 8.99822
328 2 2.66131 7.75951 15.7974
44 4 1.25628 12.1768 12.4848
1 4 14.2452 1.59082 3.51609
2 1 12.6775 2.45341 2.82301
3 2 12.5953 2.1814 1.70244
4 2 11.7578 2.20445 3.37922
343 2 12.5603 5.8152 0.721892
11 4 11.328 5.52612 4.28956
46 4 7.96687 1.16031 3.38162
49 4 9.77697 3.70403 2.48425
50 4 6.08628 6.84379 3.81385
51 4 8.86508 6.21628 1.04782
52 4 9.72435 5.99233 7.95249
324 2 12.4908 3.92549 1.45278
67 1 12.2064 4.7723 5.92335
118 2 7.36629 6.51393 0.00881996
82 1 7.07601 4.2228 8.32205
95 2 13.4434 2.35891 7.31418
175 2 7.08843 5.28723 7.90401
117 2 10.8649 3.38315 1.20266
120 2 10.6952 4.82639 7.17344
131 2 11.608 3.80402 6.08482
132 2 12.2547 5.44846 6.84306
157 2 5.99219 6.8518 7.92666
35 4 4.37257 6.5714 6.3194
323 1 12.2636 4.68343 0.538069
173 2 7.76483 3.59358 7.67167
337 2 11.6077 0.819624 2.26971
260 3 8.84412 2.3889 2.89431
261 3 10.7358 4.17392 3.67862
262 3 5.65346 5.56849 3.06245
336 2 7.4087 1.42167 7.96077
264 3 8.82792 4.78766 1.76157
340 2 12.9785 3.49593 3.05694
267 3 10.4129 6.72744 4.77416
268 3 7.61414 6.91441 4.40753
269 3 8.77259 6.6727 6.931
168 2 10.7128 1.85848 8.57025
54 4 8.89963 7.23219 5.32523
142 2 6.51389 3.10248 0.426505
158 2 4.31352 7.29837 8.66193
266 3 5.33871 7.47074 12.2084
27 4 8.35227 0.699874 14.112
29 4 6.75333 2.71477 12.1415
330 2 7.02566 6.86527 16.099
47 4 9.65348 3.06322 15.0742
48 4 11.4338 2.62519 10.7912
55 4 11.0549 5.08014 12.7255
73 1 8.08693 3.8958 11.3901
79 1 8.54526 3.32819 16.7241
80 1 10.0037 2.1732 9.42537
81 1 11.667 1.09817 12.0145
332 2 9.00516 6.85711 16.6821
96 2 11.7101 4.77444 15.361
109 2 5.78445 6.09784 14.1536
116 2 10.1144 3.29838 16.9785
329 1 7.85658 6.42999 16.7954
331 2 7.85463 5.2302 16.7109
240 3 5.7269 3.72248 12.9461
147 2 7.58931 4.73787 10.8905
148 2 8.79646 3.27782 10.6062
149 2 8.67947 4.15956 12.2842
274 3 9.89455 6.10455 12.6708
165 2 8.21487 2.23473 16.8523
166 2 7.97756 3.87455 15.1469
167 2 9.46189 1.39933 10.029
333 2 13.3216 1.84472 12.8551
169 2 9.42598 3.11236 9.10939
171 2 10.6365 0.615659 11.818
174 2 7.19132 4.16472 9.41404
172 2 11.5475 1.6289 13.0513
144 2 7.09389 1.35006 10.2505
229 3 7.59456 1.69756 13.0119
258 3 9.73762 1.49467 14.6915
259 3 12.6885 2.55162 9.88019
8 4 13.8694 2.61473 8.96393
270 3 10.8694 4.27554 14.1338
271 3 11.1281 4.0199 11.5567
273 3 7.80667 7.3138 11.4519
121 2 5.87312 6.97902 9.63778
119 2 8.73284 5.03807 9.01628
347 2 4.28644 7.29713 16.9047
164 2 8.09706 3.8884 17.5178
325 2 10.3253 5.196 17.5425
265 3 10.5467 6.93021 8.84495
45 4 5.24664 13.4171 2.69028
57 4 9.16641 9.00979 1.60559
58 4 3.53472 11.3683 4.22199
59 4 6.46305 11.4695 0.803038
62 4 5.95646 11.4925 6.37964
349 2 8.46395 12.544 2.79694
83 1 5.81579 8.17556 2.35172
84 1 9.09414 9.14235 5.4862
185 2 9.00806 13.1132 0.806469
87 1 7.41939 11.5539 5.10795
88 1 5.86203 13.2826 7.10213
110 2 3.51701 8.82677 7.62007