ITEM: TIMESTEP
0
ITEM: NUMBER OF ATOMS
350
ITEM: BOX BOUNDS xy xz yz pp pp pp
-7.8789169999999995e+00 1.5678200000000000e+01 -7.0408999999999997e+00
0.0000000000000000e+00 1.4894400000000001e+01 -8.3801700000000001e-01
0.0000000000000000e+00 1.7638300000000001e+01 6.7500000000000004e-01
ITEM: ATOMS id type x y z
346 2 5.71092 1.86178 0.810779
9 4 0.466044 2.57632 5.65883
13 4 0.034508 4.96146 8.15735
33 4 5.34073 3.72595 7.34084
23 4 3.21546 2.316 3.96056
26 4 5.68491 1.26605 5.31978
30 4 4.93591 4.4561 2.52212
15 4 -1.28364 7.31892 6.82296
32 4 2.97186 6.66291 0.499135
235 3 1.54985 5.41764 8.76491
35 4 4.3064 6.55675 6.42869
70 1 2.58812 1.2503 2.45816
74 1 1.29923 5.75702 4.1359
97 2 -2.49024 6.76866 5.81113
342 2 -2.26252 4.93771 5.81396
304 3 -0.628951 1.59132 1.89105
140 2 3.28311 1.68753 1.64354
141 2 1.45873 1.35975 2.31511
150 2 2.2139 5.14002 4.37021
151 2 1.3482 6.03627 3.05323
152 2 0.448901 5.10431 4.49832
309 2 -0.344031 6.58851 3.45134
207 3 -0.691335 2.46462 4.53131
208 3 0.445566 1.13943 6.49337
212 3 0.244866 3.93848 6.59816
213 3 -1.03226 6.13714 7.8362
224 3 1.95024 2.74466 4.92036
225 3 2.58271 1.24973 8.16767
226 3 4.341 1.06587 4.57616
303 2 0.319941 4.64297 1.18702
230 3 4.12311 3.51458 3.39906
232 3 3.96129 5.18492 1.28008
343 2 -2.90706 5.93682 1.11814
257 3 6.89594 1.16672 4.21466
302 2 1.31503 3.46854 2.23589
237 3 2.77454 7.04922 6.17551
238 3 4.60013 5.02509 6.8118
139 2 2.89585 0.182719 2.77247
314 3 -3.13963 6.53427 3.55864
299 4 -0.207295 2.3826 0.404723
300 1 0.892268 3.69235 1.21721
301 2 1.79507 3.66385 0.530774
7 4 1.39068 0.437629 7.60525
234 3 5.73125 2.60807 6.33098
163 2 7.09665 0.226235 1.42328
108 2 5.9907 3.52424 1.61227
106 2 4.23948 4.22208 0.0918978
6 4 1.07747 1.7664 16.0899
10 4 -0.489676 2.41502 13.183
345 2 4.46762 0.663117 15.8619
38 4 3.70936 7.14694 12.0847
16 4 -0.290792 5.62079 13.4976
17 4 -1.20351 7.2994 11.2772
297 2 2.71366 3.40121 13.4791
28 4 3.8535 3.64071 16.4632
34 4 1.60598 6.99399 9.7869
295 2 1.88143 2.33776 12.1579
37 4 -0.377289 6.76977 16.3397
66 1 0.0106736 1.90645 11.4135
293 1 5.11579 0.747205 14.9851
72 1 6.33149 1.68178 10.5249
143 2 5.7266 2.42194 16.6764
98 2 1.08441 6.01448 12.6164
104 2 2.81597 1.97335 10.8085
298 2 5.7681 1.77167 14.8877
296 2 3.79534 2.85131 11.8475
128 2 0.353067 2.91467 11.0702
305 3 -0.0771048 2.25188 17.135
130 2 0.778838 1.06285 11.2925
12 4 -2.93304 5.24634 16.8854
25 4 2.96449 2.42559 9.12656
145 2 5.53666 2.15846 9.84422
146 2 6.04887 0.666914 11.0519
209 3 0.307276 1.45652 14.2892
294 2 2.71457 1.23891 14.1357
211 3 -0.680005 3.95581 9.1207
214 3 -0.457886 3.96199 13.3466
215 3 -2.64277 7.22919 10.5684
216 3 -1.56131 6.5456 13.0715
228 3 2.52831 2.56494 16.3002
236 3 0.361906 6.84055 10.6909
239 3 4.27898 4.21944 15.1128
338 2 -3.0783 5.91119 12.8751
241 3 0.0979284 6.0219 15.0345
243 3 -1.87108 6.40505 16.7909
244 3 3.03013 6.99498 10.5971
245 3 3.68772 5.73147 12.9483
291 4 4.25651 1.2072 13.2869
292 1 2.87868 2.56193 12.7062
328 2 2.60092 7.6671 15.8142
71 1 5.29967 3.11692 17.5533
36 4 4.81464 4.89896 13.7033
107 2 2.08591 3.88033 9.01897
242 3 0.672077 6.81199 17.5955
210 3 -2.28827 3.85872 17.239
129 2 -1.05225 1.662 11.0431
240 3 5.53819 3.78067 12.8167
94 2 -0.802294 1.36325 8.94505
105 2 7.03787 0.680234 15.2214
326 1 3.21251 7.73996 16.7427
233 3 4.39875 3.0255 8.84081
18 4 -5.48335 11.6118 3.06001
19 4 -2.82431 9.8782 7.95251
20 4 -4.11068 12.0642 6.07968
24 4 -0.0548453 13.8553 7.52746
39 4 2.38076 9.20289 2.79994
40 4 2.17694 9.59742 8.20834
42 4 1.13179 11.5452 6.07431
75 1 1.08916 10.3768 1.97781
86 1 -6.43354 12.9816 1.92883
99 2 -4.79069 12.2418 1.4997
100 2 -2.7359 13.0667 6.17387
111 2 -0.464661 11.3458 5.30889
153 2 0.0280487 10.0091 2.15435
154 2 1.39765 10.3239 0.906609
155 2 1.29335 11.4624 2.42255
231 3 -0.0206873 7.3795 5.94324
186 2 -5.70182 13.8846 2.15481
218 3 -1.7657 8.72348 7.4437
219 3 -4.54395 12.0254 4.46823
220 3 -3.70507 10.6025 6.65495
221 3 -5.10041 12.936 6.99397
322 2 -5.57258 13.3599 0.141853
246 3 1.55815 8.43169 4.03029
247 3 2.98104 8.1208 1.5779
335 2 0.0701475 9.40177 0.40907
348 2 0.848246 12.7719 2.36649
252 3 1.34414 10.2208 7.02896
253 3 1.16458 12.9534 6.92881
227 3 -1.32464 14.0011 6.41011
249 3 -1.96892 11.0489 8.57006
307 4 -1.54529 8.86968 0.367887
308 1 -2.07061 9.14435 3.97288
310 2 -2.57478 10.1875 0.0028594
311 2 -2.0512 9.85691 3.15817
312 2 -0.943432 8.98397 4.55031
313 2 -2.90327 9.22034 4.7034
315 3 -1.77266 8.06401 1.63967
317 2 -5.20802 12.2901 8.55863
306 4 -1.86242 7.48695 3.12864
31 4 1.41962 7.31683 5.27372
21 4 -2.29787 10.2963 14.4961
22 4 -2.87512 12.4604 12.1391
41 4 -1.06299 11.866 9.59567
68 1 -3.50551 8.95499 14.8101
69 1 -0.666075 9.13156 11.2677
77 1 0.81846 9.48323 14.8666
101 2 -0.994543 9.14869 14.1659
102 2 -1.53798 11.0198 15.8502
103 2 -4.49055 12.3047 11.6784
112 2 -0.534112 8.37485 15.8671
113 2 0.0467836 10.8567 10.3575
114 2 -0.148793 11.9172 12.468
133 2 -3.49176 7.96598 15.3926
134 2 -3.95155 8.92562 13.6151
135 2 -4.27871 9.6899 15.437
136 2 -0.799106 9.2773 10.1044
137 2 0.443672 9.40292 11.6853
138 2 -1.53564 9.50231 11.9316
159 2 0.407393 10.3339 14.1208
319 3 -6.0556 12.789 11.464
161 2 0.915728 8.34892 14.5791
127 2 -6.65097 14.2187 13.5874
217 3 -3.80649 9.11294 8.94888
222 3 -2.59962 11.3357 13.339
223 3 -2.7312 13.9777 12.5734
14 4 -4.09721 7.77272 9.82663
251 3 -1.98383 12.2597 10.9012
248 3 1.44307 8.39087 8.91264
160 2 1.15756 9.74732 15.9004
341 2 -4.58235 14.3108 17.0327
318 3 -6.85194 14.3522 9.172
320 1 -5.71058 14.2843 16.7531
321 2 -5.94523 13.6312 15.7975
316 4 -6.5168 12.8501 9.53683
334 2 -2.56057 8.69529 16.5613
344 2 -1.37599 13.9747 14.7759
254 3 2.78057 8.32646 13.0881
250 3 -0.501521 13.1663 9.00046
1 4 14.3788 1.60951 3.30789
2 1 12.7042 2.52774 2.9652
3 2 12.6913 2.44194 1.82487
4 2 11.7821 2.1081 3.46265
119 2 8.99481 4.55994 8.64652
11 4 11.3481 5.67848 4.33634
46 4 8.14807 1.12247 3.21282
49 4 9.83313 3.83062 2.4381
50 4 6.1421 6.91547 3.87076
51 4 8.69661 6.24182 0.968771
52 4 9.81763 5.82227 7.89025
324 2 12.6702 4.00896 1.59714
67 1 12.3399 4.99485 5.9735
263 3 5.17738 6.9664 5.13064
82 1 7.07462 4.06991 8.08921
95 2 13.2613 2.7509 7.40076
175 2 7.08063 5.18661 7.73016
117 2 11.0634 3.59362 1.22445
120 2 10.6373 4.70118 6.84001
131 2 11.8729 3.88266 5.69232
132 2 12.1183 5.37797 7.00627
157 2 6.01744 7.00665 8.0386
142 2 6.78148 3.34762 0.104433
323 1 12.4906 4.87523 0.777538
173 2 7.75815 3.45282 7.33568
337 2 11.8001 0.928985 2.16519
260 3 9.00409 2.40722 2.75547
261 3 10.6046 4.37115 3.68719
262 3 5.81888 5.56061 3.16691
336 2 7.72085 1.13638 7.83226
264 3 8.86638 4.89121 1.77368
340 2 13.1228 3.54986 3.37726
267 3 10.3395 6.70578 4.91693
268 3 7.6861 7.1511 4.50846
269 3 8.7296 6.68768 7.12977
54 4 8.96811 7.29598 5.47459
325 2 11.4731 4.79418 0.00213464
265 3 10.8806 6.659 8.73799
164 2 8.81531 3.10132 0.0309597
168 2 10.3392 1.3116 9.14346
27 4 8.31936 0.849699 14.0253
29 4 6.87483 2.79687 12.0007
330 2 7.47254 6.78534 15.7993
47 4 9.66579 3.16889 15.2969
48 4 11.5678 2.56669 11.0085
55 4 11.0585 5.13351 12.7938
73 1 8.0028 4.09874 11.2126
79 1 8.46517 3.27017 16.8302
80 1 10.0669 2.08046 9.88373
81 1 11.8504 0.94061 12.2899
332 2 9.13582 7.04688 16.7053
96 2 11.6314 5.08401 15.4764
109 2 6.06729 6.00017 14.2333
116 2 10.1569 3.28048 17.1356
329 1 8.02076 6.48065 16.6973
331 2 8.27295 5.27806 16.7019
347 2 4.05437 6.91447 16.8031
147 2 7.45725 4.78068 10.4729
148 2 8.75289 3.44313 10.6479
149 2 8.47367 4.63581 12.0204
274 3 9.96138 6.1223 12.2844
165 2 8.09329 2.20178 16.8756
166 2 7.96299 3.96907 15.3106
167 2 9.33523 1.67746 10.7446
333 2 13.543 1.81625 12.8849
169 2 9.59575 2.94474 9.3375
171 2 10.8561 0.565419 11.8194
174 2 7.29198 3.97393 9.1969
172 2 11.7236 1.303 13.3282
144 2 7.3258 1.62356 10.0607
229 3 7.67589 1.85976 12.9729
258 3 9.58974 1.72015 14.6055
259 3 12.7403 2.63083 9.98429
8 4 13.8706 2.7568 8.9073
270 3 10.7477 4.53705 14.353
271 3 11.2269 3.87239 11.8447
118 2 6.40255 6.92147 17.5766
45 4 5.24704 13.616 2.71755
57 4 8.90907 9.102 1.99578
58 4 3.61917 11.5667 4.29752
59 4 6.38276 11.5249 0.847825
62 4 5.92035 11.6893 6.49219
349 2 8.49125 12.6071 3.2693
83 1 5.6616 8.34472 2.64699
84 1 9.31629 9.23804 5.58164
185 2 8.53883 13.3255 1.0492
87 1 7.28139 11.6817 5.20506
88 1 6.10536 13.4889 7.28025
110 2 3.53042 8.86958 7.52878
286 3 6.25482 10.456 7.89972
123 2 8.07352 11.621 1.13318
124 2 7.44984 9.22587 2.82639
125 2 6.00708 10.1643 1.87939
78 1 1.07819 13.8438 2.02295
156 2 5.48302 8.86143 7.70857
176 2 4.58088 8.20817 2.22167
115 2 2.13727 13.9553 3.70334
178 2 5.85378 9.29344 3.16658
179 2 9.50847 9.57367 4.53234
180 2 10.2023 9.42207 6.2406
181 2 8.31542 9.52471 5.93855
122 2 8.50432 9.81076 0.540845
183 2 8.87607 9.1893 7.5758
187 2 7.16876 10.6919 4.66348
188 2 8.32607 11.7986 5.72218
189 2 7.01906 12.5949 4.42241
190 2 6.52477 13.3359 8.27347
191 2 5.10056 13.9572 7.24121
275 3 9.11021 7.64396 1.52804
277 3 3.50549 10.2145 3.27713
278 3 4.02705 12.9791 3.44635
350 2 6.80289 13.9699 6.53432
280 3 5.66214 12.8148 1.37448
285 3 4.61112 11.495 5.62114
76 1 5.12391 7.71232 7.82467
276 3 9.86929 10.0455 2.70858
5 3 6.64235 13.9663 3.50423
177 2 6.42582 8.15634 1.79211
126 2 3.36337 13.356 8.67455
162 2 2.02284 13.9396 1.36495
199 2 3.19443 11.6377 0.159805
158 2 4.33748 7.51839 8.66164
279 3 2.14785 11.7472 4.86662
85 1 8.59689 9.25511 8.74838
287 3 9.30738 8.65444 13.3513
289 3 5.18888 11.8322 17.0289
53 4 6.31669 8.28267 11.1278
198 2 2.62847 13.5276 16.3079
60 4 7.20887 10.4707 9.23543
61 4 2.92584 12.1583 9.78412
63 4 8.65745 9.91957 14.0603
64 4 3.99707 11.7214 15.9299
65 4 8.68925 12.7339 12.7063
89 1 7.75598 9.5677 15.8377
90 1 4.66636 13.2089 14.5908
91 1 2.40326 12.4205 16.6651
92 1 4.67803 12.8227 10.0993
93 1 6.89808 12.6855 12.2211
182 2 9.47757 9.70785 9.40855
327 2 3.58466 8.81913 16.9026
184 2 8.41538 8.20453 9.12525
192 2 7.8043 8.47326 16.1012
193 2 6.92057 9.43912 14.4581
194 2 7.10169 10.0949 16.5358
195 2 4.3406 12.8047 13.5604
196 2 5.75113 13.1455 14.7903
197 2 4.11804 14.0923 14.9928
339 2 9.24103 10.1621 16.0136
284 3 1.94641 12.7628 10.9719
290 3 8.76096 11.3856 13.5621
202 2 5.10964 11.8442 10.5812
203 2 4.74199 13.7628 10.8329
204 2 6.73894 11.672 11.7178
205 2 6.92676 13.5983 11.4749
206 2 6.0426 12.9578 13.1645
288 3 3.64876 10.2148 15.0538
201 2 5.2296 13.0538 9.08252
256 3 1.67864 13.5925 13.5628
283 3 2.72943 10.7206 9.13884
272 3 10.5062 8.33677 10.893
281 3 6.37622 9.8217 10.7769
282 3 7.88953 11.8495 9.42692
43 4 2.62758 9.75113 13.8741
266 3 5.31975 7.76786 12.1557
170 2 5.60572 14.316 12.3727
56 4 9.42866 7.6266 12.0148
273 3 7.92668 7.67018 11.3181
44 4 1.43683 12.3938 12.5355
255 3 2.32374 11.0878 12.8775
121 2 5.79557 7.50056 9.68872
200 2 1.53309 11.9687 16.0577
ITEM: TIMESTEP
100
ITEM: NUMBER OF ATOMS
350
ITEM: BOX BOUNDS xy xz yz pp pp pp
-7.8789169999999995e+00 1.5678200000000000e+01 -7.0408999999999997e+00
0.0000000000000000e+00 1.4894400000000001e+01 -8.3801700000000001e-01
0.0000000000000000e+00 1.7638300000000001e+01 6.7500000000000004e-01
ITEM: ATOMS id type x y z
346 2 5.3375 1.86396 0.868632
9 4 0.453258 2.56179 5.71036
13 4 0.00770044 4.99077 8.09448
33 4 5.38533 3.67554 7.47917
23 4 3.1742 2.30857 3.98715
26 4 5.60598 1.29644 5.41735
30 4 4.77843 4.56022 2.30623
343 2 -2.84049 5.81009 1.14533
32 4 3.01911 6.62733 0.417901
108 2 5.76211 3.40093 1.53729
15 4 -1.23333 7.36721 6.85395
70 1 2.46658 1.33508 2.4431
74 1 1.13039 5.57598 4.29555
97 2 -2.44846 6.83261 5.78716
342 2 -2.30791 4.91421 5.64748
304 3 -0.592875 1.6951 1.92675
140 2 2.82503 2.05569 1.61139
141 2 1.33143 1.36382 2.5136
150 2 2.13644 5.05372 4.91475
151 2 1.29836 5.51321 3.18788
152 2 0.139126 5.12036 4.50444
309 2 -0.345206 6.39812 3.28857
207 3 -0.776483 2.36997 4.59974
208 3 0.441804 1.19565 6.57519
212 3 0.293182 3.87871 6.65224
213 3 -1.07194 6.21875 7.91396
224 3 1.81208 2.6709 4.80335
225 3 2.38812 1.57149 8.30798
226 3 4.13403 1.23232 4.77226
303 2 0.373752 4.86276 0.882215
230 3 3.90998 3.58244 3.1329
232 3 3.93156 5.232 1.16845
31 4 1.45088 7.23566 5.1461
257 3 6.74752 1.2586 4.25112
302 2 1.25514 3.78562 2.15589
237 3 2.7985 7.0583 6.11613
238 3 4.83995 5.19875 6.81748
139 2 2.92365 0.295841 2.42689
314 3 -2.97881 6.36829 3.51697
299 4 -0.00226953 2.48089 0.495388
300 1 1.02153 3.93295 1.05281
301 2 1.84014 3.86252 0.29288
7 4 1.3974 0.510201 7.68008
234 3 5.72323 2.58865 6.43705
163 2 7.26409 0.36438 1.33499
106 2 4.22303 4.07673 0.0311578
6 4 1.14899 1.57908 16.1648
10 4 -0.638428 2.34325 13.309
345 2 4.67363 1.09957 15.8954
38 4 3.66551 7.21182 12.3108
16 4 -0.293612 5.72946 13.4686
17 4 -1.33308 7.43611 11.2561
297 2 2.72286 3.30935 13.5429
28 4 3.77871 3.55767 16.4809
34 4 1.58942 6.99495 9.87421
295 2 1.91738 2.19874 12.2972
37 4 -0.360805 6.98569 16.1968
66 1 -0.0031622 1.75309 11.6315
293 1 5.22253 0.935493 14.9054
72 1 6.2594 1.6142 10.7377
143 2 5.37823 2.0056 16.9716
98 2 1.05125 6.10205 12.559
104 2 2.78648 2.16527 10.8085
298 2 5.89516 1.90429 14.6018
296 2 3.76538 2.82448 11.9857
128 2 0.369682 2.73173 11.1991
305 3 0.0525906 2.17558 17.1954
130 2 0.663786 0.911233 11.4941
12 4 -2.94012 5.17995 16.9488
25 4 3.0051 2.58587 9.22405
145 2 5.61902 2.14321 9.9682
146 2 5.85485 0.674473 11.1744
209 3 0.337686 1.47603 14.3726
294 2 2.73878 1.19159 14.2398
211 3 -0.670277 3.91556 9.2742
214 3 -0.482633 3.90477 13.4134
215 3 -2.64744 7.22857 10.3798
216 3 -1.55759 6.53216 13.0221
228 3 2.52043 2.52425 16.2563
236 3 0.163285 6.77548 10.9575
239 3 4.36302 4.21011 15.129
338 2 -3.00903 5.81611 12.9598
241 3 0.113417 6.24296 14.9221
243 3 -1.80871 6.42894 16.7486
244 3 2.91593 7.09703 10.6795
245 3 3.61088 5.49589 12.9145
291 4 4.22771 1.07253 13.3023
292 1 2.88897 2.49007 12.7922
328 2 2.72139 7.29861 15.728
71 1 5.10813 2.8461 17.6192
36 4 4.8551 4.89266 13.6506
107 2 2.15955 4.04903 9.18841
242 3 0.881628 6.99624 17.267
210 3 -2.28482 3.74356 17.322
235 3 1.48517 5.58109 8.84748
326 1 3.33863 7.67092 16.6313
233 3 4.44645 3.02036 8.87976
94 2 -0.76503 1.41192 8.86054
18 4 -5.42386 11.5446 3.01502
19 4 -2.84458 9.95564 7.91152
20 4 -4.08269 12.1649 6.18212
24 4 -0.128126 13.9308 7.60758
39 4 2.27209 9.28374 2.77083
40 4 2.25303 9.52344 8.24968
42 4 1.14437 11.5865 6.19788
75 1 0.874801 10.3437 1.96765
86 1 -6.27858 12.8462 1.78221
99 2 -4.41941 12.4334 1.79048
100 2 -2.65183 13.0794 6.03419
111 2 -0.28842 11.3933 5.49673
153 2 -0.0868136 9.90731 2.32608
154 2 1.19274 10.0409 0.851391
155 2 1.00123 11.4659 2.2527
231 3 0.123898 7.44773 5.97742
186 2 -5.72325 13.8525 2.04679
218 3 -1.83762 8.7999 7.26497
219 3 -4.67567 11.8929 4.7409
220 3 -3.69323 10.701 6.64967
221 3 -4.90404 13.0912 7.16869
322 2 -5.17262 13.2321 0.145176
246 3 1.62994 8.31325 3.92647
247 3 2.85266 8.03022 1.54585
335 2 -0.56534 10.1346 0.470655
348 2 0.662891 12.819 2.24817
252 3 1.40344 10.2573 7.07703
253 3 1.15341 13.0324 6.97905
227 3 -1.24379 13.9645 6.41323
249 3 -1.92295 11.0272 8.65746
307 4 -1.72966 8.84593 0.370436
308 1 -2.15074 8.87061 4.0997
306 4 -1.7893 7.36015 3.0689
311 2 -2.46849 9.71634 3.36675
312 2 -1.01052 8.92316 4.51424
313 2 -2.97393 8.54133 4.84206
315 3 -1.73138 7.94924 1.63244
317 2 -4.94827 12.4029 8.72432
310 2 -3.1625 9.64809 0.411819
21 4 -2.29376 10.3392 14.3337
22 4 -2.97393 12.3562 12.1187
41 4 -1.15916 11.8728 9.64015
68 1 -3.50386 9.02969 14.8832
69 1 -0.644278 9.29359 11.1724
77 1 0.903766 9.2879 14.8038
101 2 -0.832929 9.49118 13.9427
102 2 -1.59524 11.3036 15.5199
103 2 -4.59835 11.9566 11.7438
112 2 -0.625024 8.61183 15.8656
113 2 0.111691 10.8104 10.1709
114 2 -0.126592 12.0526 12.6034
133 2 -3.46361 7.95578 15.2393
134 2 -3.95643 8.93023 13.7432
135 2 -4.06071 9.8321 15.6321
136 2 -0.504684 9.36597 10.0328
137 2 0.244887 9.67738 11.7578
138 2 -1.67614 9.67687 11.6489
159 2 0.406974 10.3003 14.6746
319 3 -6.02675 12.975 11.4783
161 2 0.461405 8.40733 14.3
127 2 -6.83687 14.2298 13.8042
217 3 -3.91918 9.23756 8.92997
222 3 -2.68392 11.3871 13.2446
223 3 -2.89178 13.9275 12.6041
43 4 2.60539 9.66928 13.9093
251 3 -2.15266 12.1875 10.8753
248 3 1.54377 8.30095 8.96588
160 2 1.2492 9.07268 15.9379
341 2 -4.23128 14.4243 17.0809
318 3 -6.92858 14.2319 9.09518
320 1 -5.32707 14.1509 16.7997
321 2 -5.48339 13.528 15.905
316 4 -6.40574 12.7873 9.55117
334 2 -2.28944 8.79771 16.4813
344 2 -1.26321 14.1919 14.8521
254 3 2.82134 8.29359 13.1296
250 3 -0.669046 13.2568 9.00525
14 4 -4.11087 7.82485 9.82424
1 4 14.2041 1.58466 3.34433
2 1 12.5079 2.36909 2.92867
3 2 12.5691 2.265 1.79974
4 2 11.5344 2.06466 3.45391
118 2 7.23389 6.25304 0.145568
11 4 11.3749 5.6693 4.34128
46 4 8.04467 1.26257 3.26488
49 4 9.85916 3.77011 2.51595
50 4 6.08813 6.88865 3.89293
51 4 8.79285 6.23043 1.01352
52 4 9.75741 6.07818 7.93029
324 2 12.5877 3.91521 1.69093
67 1 12.3161 5.03938 5.98629
8 4 13.9629 2.79952 8.78727
82 1 7.03644 4.24978 8.28208
95 2 13.4844 2.89983 7.24939
175 2 7.10158 5.32788 7.85396
117 2 10.9848 3.45426 1.25548
120 2 10.6792 4.92474 7.0497
131 2 11.6719 3.98555 5.96859
132 2 12.2105 5.55541 6.99038
157 2 6.02947 6.98661 8.05753
142 2 6.78807 2.92558 0.190128
323 1 12.4876 4.77232 0.839024
173 2 7.73609 3.4606 7.75179
337 2 11.5877 0.849586 2.11687
260 3 8.97766 2.4689 2.8459
261 3 10.7011 4.34438 3.70625
262 3 5.62288 5.63797 3.04834
336 2 7.38326 1.21177 8.01198
264 3 8.99224 4.92829 1.84026
340 2 12.9031 3.45031 3.4142
267 3 10.2894 6.6628 4.82698
268 3 7.66449 7.12473 4.31495
269 3 8.72113 6.87544 6.93861
325 2 11.4773 4.85407 0.168221
119 2 8.89604 4.88756 8.74067
35 4 4.37098 6.66883 6.37202
168 2 10.3471 1.14745 9.07416
27 4 8.39782 0.761513 13.9761
29 4 6.83077 2.85141 12.0463
330 2 7.31145 6.91067 15.7806
47 4 9.7125 3.17217 15.0828
48 4 11.497 2.57065 10.7768
55 4 11.1029 5.1198 12.8115
73 1 8.08784 4.06393 11.3302
79 1 8.65383 3.40094 16.6961
80 1 9.99441 2.01756 9.67324
81 1 11.9109 1.11586 12.1363
332 2 8.98511 7.0366 16.6061
96 2 11.9583 4.94324 15.4457
109 2 5.89705 6.17558 13.9924
116 2 10.2903 3.37621 16.9549
329 1 7.87625 6.51611 16.7125
331 2 8.05917 5.27837 16.5874
121 2 5.61968 7.14556 9.74591
147 2 7.66057 4.93126 10.799
148 2 8.82395 3.39241 10.7011
149 2 8.54528 4.34509 12.3482
274 3 10.0233 6.19729 12.3771
165 2 8.28631 2.42228 16.9326
166 2 7.96276 3.88948 15.1534
167 2 9.229 1.65928 10.5131
333 2 13.4421 1.77773 13.2177
169 2 9.62724 2.93902 9.14829
171 2 10.8605 0.678658 11.8391
174 2 7.30171 4.23401 9.37311
172 2 11.7323 1.57789 13.1581
144 2 7.33725 1.47754 10.3558
229 3 7.63735 1.72993 12.9364
258 3 9.70324 1.60523 14.583
259 3 12.6953 2.64488 9.76978
347 2 4.34115 7.24064 16.7524
270 3 10.813 4.5539 14.3105
271 3 11.1503 3.84223 11.8052
105 2 7.22996 0.632984 15.1965
265 3 10.704 6.81061 8.93733
129 2 14.5821 1.40979 11.2775
240 3 5.78801 3.80833 12.7375
164 2 8.07679 4.09878 17.4164
273 3 7.81683 7.49021 11.286
45 4 5.25967 13.5955 2.66209
57 4 9.02738 9.11712 1.76553
58 4 3.58128 11.5465 4.26711
59 4 6.39981 11.4627 0.89899
62 4 6.07529 11.6064 6.4551
349 2 8.44757 12.5568 3.00249
83 1 5.66447 8.31198 2.47632
84 1 9.17891 9.28257 5.49974
185 2 8.76403 13.0112 0.915902
87 1 7.52329 11.6905 5.21281
88 1 6.07116 13.4004 7.16167
110 2 3.72327 9.0049 7.54421
286 3 6.23194 10.4758 7.98191
123 2 8.0855 11.5239 1.20937
124 2 7.49164 9.1136 2.52091
125 2 6.03912 10.1642 1.91894
78 1 0.967511 13.9439 2.09832
156 2 5.46177 8.78401 7.89985
176 2 4.59492 8.16792 2.17667
115 2 2.07507 14.1257 3.67744
178 2 5.82398 9.11398 3.26549
179 2 9.38354 9.50204 4.36572
180 2 10.0653 9.63382 6.11934
181 2 8.15598 9.75144 5.95686
122 2 8.65238 9.75642 0.256995
183 2 8.82511 9.15714 7.45622
187 2 7.35792 10.7239 4.68373
188 2 8.46978 11.7537 5.82092
189 2 7.26389 12.6819 4.53248
190 2 6.66785 13.4034 8.19128
191 2 5.04226 13.8942 7.27964
275 3 9.36886 7.68479 1.41626
277 3 3.42945 10.2256 3.33192
278 3 4.14723 12.8281 3.4256
350 2 6.74301 13.8602 6.34963
280 3 5.80539 12.7953 1.37977
285 3 4.80017 11.3858 5.54963
76 1 5.09675 7.66044 7.90417
276 3 10.0214 10.1036 2.45195
5 3 6.59917 14.0898 3.79039
177 2 6.42204 8.05685 1.69373
126 2 3.23178 13.2317 8.5775
162 2 2.05952 14.0015 1.66943
199 2 3.36702 11.9402 0.0728493
158 2 4.19611 7.46691 8.62435
279 3 2.14496 11.796 4.94989
85 1 8.55605 9.13257 8.67666
54 4 8.92063 7.35758 5.38964
263 3 5.17947 7.33284 5.12986
287 3 9.38952 8.60165 13.3952
289 3 5.23188 11.6643 17.0239
53 4 6.26512 8.06004 11.0864
198 2 2.25547 13.3412 16.0252
60 4 7.24458 10.3028 9.23482
61 4 2.93797 12.102 9.84947
63 4 8.62966 9.84346 14.0508
64 4 4.04115 11.7813 15.8146
65 4 8.69536 12.8296 12.7633
89 1 8.03945 9.68537 15.8349
90 1 4.6186 13.2548 14.4971
91 1 2.44479 12.3891 16.6285
92 1 4.66786 12.9436 9.9382
93 1 6.92345 12.7651 12.1912
182 2 9.51504 9.41744 9.20767
327 2 3.37192 8.86915 16.8255
184 2 8.22397 8.13263 9.08007
192 2 7.99227 8.45494 16.2107
193 2 6.87401 9.5724 14.2097
194 2 7.04985 10.2453 15.8752
195 2 4.57424 12.6507 13.4714
196 2 5.65512 13.4826 14.981
197 2 3.87195 14.0572 14.5495
339 2 8.8842 10.3068 16.3477
284 3 2.0579 12.6558 11.0657
290 3 8.86003 11.3912 13.6406
202 2 5.13193 12.0012 10.4116
203 2 4.76243 13.8023 10.6733
204 2 6.89125 11.7224 11.7845
205 2 7.00091 13.5561 11.3686
206 2 6.06105 12.9755 13.0489
288 3 3.63445 10.3112 14.9614
201 2 5.20445 13.1892 8.91256
256 3 1.73435 13.5562 13.501
283 3 2.61464 10.6415 9.25252
272 3 10.5582 8.28095 10.98
281 3 6.4238 9.54912 10.7153
282 3 8.15595 11.5902 9.43488
255 3 2.16086 10.9294 13.0219
266 3 5.21902 7.7416 12.2069
170 2 5.67985 14.425 12.0749
56 4 9.45556 7.61571 12.0743
44 4 1.50389 12.2793 12.5778
200 2 1.73077 11.5376 16.445
ITEM: TIMESTEP
200
ITEM: NUMBER OF ATOMS
350
ITEM: BOX BOUNDS xy xz yz pp pp pp
-7.8789169999999995e+00 1.5678200000000000e+01 -7.0408999999999997e+00
0.0000000000000000e+00 1.4894400000000001e+01 -8.3801700000000001e-01
0.0000000000000000e+00 1.7638300000000001e+01 6.7500000000000004e-01
ITEM: ATOMS id type x y z
346 2 5.11474 2.00811 0.93842
9 4 0.327799 2.54386 5.75404
13 4 -0.0146724 4.95494 8.10563
33 4 5.52224 3.74391 7.45577
23 4 3.15883 2.40385 3.98513
26 4 5.57917 1.39641 5.46126
30 4 4.72655 4.55106 2.37119
71 1 5.77781 2.40157 0.0373125
32 4 3.07283 6.82962 0.301097
108 2 5.86187 3.50328 1.66895
306 4 -1.87825 7.21586 3.05656
70 1 2.65961 1.31551 2.43917
74 1 1.27524 5.64719 4.18694
97 2 -2.33248 6.5091 5.74389
342 2 -2.39627 4.63961 5.68567
304 3 -0.498165 1.82306 2.20347
140 2 3.1358 1.76513 1.53938
141 2 1.51718 1.38844 2.46257
150 2 2.13239 4.99349 4.59743
151 2 1.43854 5.81931 3.06348
152 2 0.325924 5.06646 4.50366
309 2 -0.322325 6.39031 3.35794
207 3 -1.00569 2.41976 4.83027
208 3 0.390903 1.18104 6.57899
212 3 0.155635 4.01444 6.79352
213 3 -1.02236 6.2274 7.90472
224 3 1.68058 2.63706 4.80618
225 3 2.16306 1.5841 8.4549
226 3 4.14421 1.44861 4.72484
303 2 0.170559 4.72587 0.779751
230 3 3.79099 3.70574 3.30741
232 3 3.82598 5.13823 1.09477
31 4 1.60213 7.27849 5.14286
257 3 6.82245 1.35157 4.43568
302 2 1.19342 3.90459 2.12778
237 3 2.89653 7.01777 6.14816
238 3 4.80667 5.06995 6.79209
139 2 3.02002 0.31403 2.58022
314 3 -2.97129 6.1027 3.55454
299 4 -0.0757381 2.3479 0.713897
300 1 0.894285 3.93453 1.05845
301 2 1.83545 3.88912 0.438534
7 4 1.28498 0.547602 7.73301
234 3 5.81813 2.58466 6.50539
15 4 -1.24004 7.30815 6.76984
6 4 1.09746 1.56921 16.2375
10 4 -0.715916 2.49553 13.4155
345 2 4.62879 0.656443 15.8448
38 4 3.70259 7.14169 12.2604
16 4 -0.411325 5.70325 13.4605
17 4 -1.28335 7.38861 11.1798
297 2 2.99575 3.47346 13.3013
28 4 3.71345 3.62315 16.3346
34 4 1.57301 6.98353 9.83967
295 2 1.82004 2.26578 12.3762
37 4 -0.444014 6.8577 16.1284
66 1 -0.0735209 2.02483 11.7544
293 1 5.31445 0.670723 14.9665
72 1 6.22668 1.67727 10.7272
143 2 5.37504 2.24714 17.1561
98 2 0.775724 5.93053 12.2641
104 2 2.8235 2.62405 10.8611
298 2 5.93733 1.64681 14.85
296 2 4.26711 2.3271 11.8982
128 2 0.0241324 3.10242 11.2965
305 3 0.171699 2.08067 17.4942
130 2 0.918816 1.36242 11.72
12 4 -2.94489 5.05643 16.8686
25 4 2.98156 2.71194 9.16831
145 2 5.48242 2.23602 9.93177
146 2 5.73028 0.759034 11.2048
209 3 0.1394 1.39284 14.6324
294 2 2.55681 1.37683 14.2455
211 3 -0.677241 3.83656 9.17791
214 3 -0.666615 4.10746 13.433
215 3 -2.65893 7.4402 10.3918
216 3 -1.67291 6.8386 12.8967
228 3 2.60112 2.58032 16.209
236 3 0.162111 6.73816 10.7307
239 3 4.41152 4.33592 15.1966
338 2 -3.013 5.99002 12.8397
241 3 0.179128 6.10726 14.8531
243 3 -1.95201 6.25378 16.6266
244 3 2.92269 7.05117 10.7562
245 3 3.6669 5.62416 12.8905
291 4 4.16844 0.954142 13.3441
292 1 2.88689 2.46321 12.8279
233 3 4.37378 3.15842 8.91654
106 2 3.13143 4.78127 17.4961
36 4 4.91579 4.97219 13.7621
107 2 2.20147 4.18557 8.95707
242 3 0.694979 7.12197 17.2574
210 3 -1.99913 3.67663 17.3997
235 3 1.6021 5.67015 8.85335
129 2 -1.0171 1.49789 11.2979
94 2 -0.812302 1.23645 9.10115
18 4 -5.3327 11.4642 3.04685
19 4 -2.86446 9.90856 7.82056
20 4 -4.06956 12.2117 6.07477
24 4 -0.183703 13.9463 7.60409
39 4 2.36776 9.1995 2.66897
40 4 2.21835 9.54108 8.33015
42 4 1.2026 11.5877 6.22336
75 1 1.01998 10.3198 1.86061
86 1 -6.12143 12.8373 1.81012
99 2 -4.28194 12.1997 1.81367
100 2 -2.57158 12.952 5.80092
111 2 -0.293883 11.2655 5.6716
153 2 0.126815 9.77967 2.46213
154 2 1.15619 10.0225 0.746327
155 2 1.15129 11.4556 2.00993
231 3 0.160615 7.50587 5.92265
186 2 -5.5063 13.8778 2.0777
218 3 -1.99009 8.65576 7.20672
219 3 -4.823 11.9351 4.65905
220 3 -3.79492 10.8011 6.74766
221 3 -4.85937 13.1348 7.18409
322 2 -5.08508 13.1475 0.107064
246 3 1.66917 8.37543 3.88298
247 3 3.01396 8.01882 1.28938
335 2 -0.6234 9.91529 0.804041
348 2 1.19608 12.8342 2.32246
252 3 1.42803 10.4496 7.24958
253 3 1.09619 13.0035 7.12311
227 3 -1.31938 13.9279 6.38411
249 3 -1.95561 11.0021 8.54489
307 4 -1.98005 8.99293 0.620394
308 1 -2.16363 8.8047 4.02774
310 2 -3.2431 10.0666 0.772057
311 2 -2.44302 9.8162 3.47008
312 2 -1.06042 8.8066 4.492
313 2 -2.95484 8.59212 4.78954
315 3 -1.98665 7.77139 1.55527
317 2 -5.01907 12.301 8.64162
163 2 -0.00358361 14.2337 1.72686
21 4 -2.18545 10.4056 14.2437
22 4 -3.1403 12.3162 12.0532
41 4 -1.28608 11.9831 9.59809
68 1 -3.56646 9.15874 14.801
69 1 -0.698441 9.31113 11.1141
77 1 0.924548 9.44536 15.1173
101 2 -0.539528 9.94124 13.8463
102 2 -1.66256 11.276 15.5921
103 2 -4.74182 11.9946 11.4852
112 2 -0.697204 8.48427 15.6854
113 2 -0.0663233 11.0551 10.444
114 2 -0.272754 12.2396 12.4155
133 2 -2.67218 8.27937 14.8036
134 2 -4.08459 9.1188 13.8192
135 2 -4.3564 8.875 15.531
136 2 -0.512054 9.42112 9.97088
137 2 0.13531 9.7344 11.6854
138 2 -1.69806 9.69777 11.3767
159 2 0.492222 10.5476 15.0952
319 3 -6.01161 13.0414 11.4518
161 2 0.684699 8.52527 14.3482
127 2 -6.69661 14.1817 13.8544
255 3 1.85195 10.8785 12.9924
222 3 -2.81149 11.2601 13.1793
223 3 -3.15848 13.8551 12.5995
43 4 2.52051 9.72075 13.8615
251 3 -2.28225 12.2345 10.8216
248 3 1.36896 8.39938 9.00878
160 2 1.71306 9.35938 16.028
341 2 -4.29946 14.1928 16.7709
318 3 -7.02158 14.0824 8.99951
320 1 -5.41061 14.0936 16.7101
321 2 -5.77283 13.5693 15.7544
316 4 -6.40387 12.7656 9.57765
334 2 -2.95022 9.21469 16.6771
344 2 -1.25111 13.8539 14.74
254 3 2.95585 8.28234 13.2542
250 3 -0.604483 13.3027 9.08748
14 4 -4.23276 8.02227 9.78786
217 3 -3.93115 9.32997 8.98255
328 2 2.86293 7.85404 15.7933
1 4 14.2785 1.60414 3.55499
2 1 12.7228 2.44703 2.851
3 2 12.6028 2.14596 1.72504
4 2 11.8939 2.10125 3.53455
118 2 7.42191 6.5601 0.0476829
11 4 11.3647 5.5982 4.2915
46 4 8.0018 1.23051 3.39138
49 4 9.82635 3.7524 2.50153
50 4 6.10681 6.92815 3.80491
51 4 8.89441 6.27526 1.07018
52 4 9.76214 6.07904 7.94016
324 2 12.5281 3.95455 1.47836
67 1 12.2033 4.89116 5.97478
35 4 4.44053 6.65395 6.31969
82 1 7.14206 4.27062 8.30049
95 2 13.5479 2.36558 7.37274
175 2 7.13886 5.34154 7.8358
117 2 10.9296 3.27756 1.29449
120 2 10.6643 4.84173 7.14661
131 2 11.6646 3.87832 6.19489
132 2 12.2035 5.67233 6.82535
157 2 6.12414 6.93822 7.88553
265 3 10.6643 6.98206 8.79262
323 1 12.3414 4.72019 0.562417
173 2 7.86257 3.6188 7.63175
337 2 11.663 0.793702 2.34411
260 3 8.88168 2.48006 2.91642
261 3 10.7671 4.21895 3.71244
262 3 5.58256 5.67446 3.06731
336 2 7.41962 1.35096 7.92932
264 3 8.93209 4.8556 1.74892
340 2 13.0245 3.55001 3.0762
267 3 10.4268 6.78817 4.72055
268 3 7.61947 6.94619 4.38945
269 3 8.79806 6.79754 6.90573
168 2 10.8372 1.80881 8.56878
343 2 12.6083 5.81561 0.803263
54 4 8.93653 7.28323 5.30196
162 2 8.92427 0.0742974 1.41739
142 2 6.63119 3.03887 0.326859
158 2 4.46412 7.36988 8.6784
8 4 14.0132 2.65857 8.99838
27 4 8.48527 0.747402 14.0735
29 4 6.88288 2.78479 12.1319
330 2 7.26242 7.02955 16.0807
47 4 9.78084 3.14021 15.113
48 4 11.5404 2.66689 10.8169
55 4 11.1652 5.15415 12.7275
73 1 8.17107 3.90504 11.3068
79 1 8.69502 3.38318 16.6886
80 1 10.1456 2.17213 9.42307
81 1 11.8014 1.1069 11.989
332 2 9.17512 6.90725 16.6455
96 2 11.8337 4.86356 15.3605
109 2 5.90588 6.17847 14.1989
116 2 10.2957 3.28465 16.9966
329 1 8.06097 6.49679 16.7893
331 2 8.05497 5.33299 16.705
121 2 5.98694 7.04699 9.58633
147 2 7.73654 4.84866 10.7746
148 2 8.92523 3.26931 10.5801
149 2 8.68412 4.15412 12.3407
274 3 9.98402 6.18005 12.7016
165 2 8.26255 2.32982 16.8257
166 2 8.11856 4.00045 15.1239
167 2 9.57317 1.4245 9.97969
333 2 13.4856 1.79789 12.7899
169 2 9.59886 3.08172 9.09306
171 2 10.769 0.656592 11.7207
174 2 7.36128 4.21093 9.38841
172 2 11.689 1.6732 13.0051
144 2 7.16162 1.44805 10.2142
229 3 7.70209 1.7387 13.0079
258 3 9.77673 1.58416 14.6627
259 3 12.8357 2.60949 9.92248
347 2 4.39701 7.20468 16.904
270 3 11.0158 4.33987 14.1398
271 3 11.2026 4.08814 11.5664
266 3 5.43645 7.52793 12.179
56 4 9.40261 7.55504 12.1332
119 2 8.74208 5.15734 9.00645
240 3 5.81659 3.84377 12.9577
164 2 8.35371 4.06816 17.4912
273 3 7.93217 7.39964 11.4537
325 2 10.5346 5.26771 17.5612
45 4 5.29724 13.513 2.73978
57 4 9.19959 9.11375 1.60936
58 4 3.59129 11.4549 4.25587
59 4 6.51125 11.5688 0.828932
62 4 6.02684 11.5912 6.37882
349 2 8.54307 12.5902 2.91577
83 1 5.80226 8.25766 2.34245
84 1 9.15195 9.19388 5.43193
185 2 8.99048 13.0754 0.789174
87 1 7.46751 11.6425 5.05664