ITEM: TIMESTEP
0
ITEM: NUMBER OF ATOMS
350
ITEM: BOX BOUNDS xy xz yz pp pp pp
-7.8789169999999995e+00 1.5678200000000000e+01 -7.0408999999999997e+00
0.0000000000000000e+00 1.4894400000000001e+01 -8.3801700000000001e-01
0.0000000000000000e+00 1.7638300000000001e+01 6.7500000000000004e-01
ITEM: ATOMS id type x y z
234 3 6.03666 2.79439 6.64402
9 4 0.464163 2.42512 5.7704
13 4 -0.160674 4.69704 8.07683
15 4 -1.38857 7.26704 6.60457
23 4 3.2696 2.79716 4.06281
26 4 5.79385 1.5977 5.56051
30 4 4.79506 4.8296 2.40726
233 3 4.32424 3.00791 8.57089
32 4 3.3574 7.00147 0.587357
33 4 5.13205 3.77136 7.44164
139 2 3.25007 0.660738 3.11183
70 1 2.80112 1.5972 2.6551
74 1 0.70772 5.77429 3.83989
97 2 -2.54562 6.87167 5.35766
108 2 5.64034 3.56714 1.5078
304 3 -0.148873 1.57392 2.24083
140 2 3.37396 1.81921 1.68687
141 2 1.68432 1.46969 2.4861
150 2 1.47206 5.11238 4.33674
151 2 1.02227 6.07531 2.81849
152 2 -0.430238 5.45078 3.88783
346 2 6.18892 2.02965 0.8084
207 3 -1.00301 2.34988 4.78016
208 3 0.534654 0.875108 6.42086
212 3 0.220542 3.54385 6.90652
213 3 -1.01343 5.97093 7.3899
224 3 1.79542 2.79052 4.93459
225 3 2.43935 1.13193 8.29995
226 3 4.45753 1.97368 4.74633
336 2 6.58959 0.882875 8.50793
230 3 3.59325 4.22006 3.28687
232 3 4.21092 5.82069 1.32967
302 2 1.45603 3.82594 2.11939
35 4 3.98828 6.60913 6.26779
303 2 1.667 4.7725 0.542742
237 3 2.58227 7.06621 5.74546
238 3 4.2737 4.96227 6.641
342 2 -1.682 5.33493 4.53732
314 3 -3.12766 7.06918 3.02083
299 4 0.371923 2.33569 0.591672
300 1 1.5999 3.69379 1.01192
301 2 2.56548 3.06405 0.666843
6 4 1.60422 1.48424 16.1694
10 4 -0.427033 2.31534 13.5973
12 4 -2.36163 5.06004 16.7722
297 2 3.82404 2.83999 12.2782
16 4 0.395669 5.40696 13.8306
106 2 4.15985 4.63114 17.5365
295 2 2.05213 1.93631 12.1772
28 4 4.16955 3.53616 16.1526
34 4 1.35013 6.77099 9.66973
36 4 4.87103 4.93373 13.3957
37 4 0.0874465 6.94284 16.2668
66 1 0.0406407 1.75797 11.866
17 4 -0.920911 7.2622 11.6015
211 3 -0.98924 3.81127 9.17422
305 3 0.50233 1.92426 17.3931
98 2 2.00361 5.34737 13.1774
104 2 3.25198 1.91327 10.7296
38 4 3.66541 7.23503 11.8387
72 1 6.43092 1.6307 10.4032
128 2 0.372767 2.74187 11.4025
129 2 -0.97388 1.42439 11.5294
130 2 0.870197 0.972908 11.7287
298 2 5.89463 1.64773 14.5678
143 2 5.88043 2.60847 16.524
145 2 5.36573 1.52872 10.1486
292 1 3.18008 2.02845 12.6998
209 3 0.490635 1.43962 14.5549
294 2 3.13386 2.19722 13.8564
240 3 5.44289 3.81889 12.4737
214 3 -0.0571234 3.88545 13.7486
25 4 3.07763 2.32682 9.06903
216 3 -0.351964 6.48568 13.0263
228 3 2.9164 2.43307 16.1304
236 3 -0.109879 6.73606 10.3845
239 3 4.5335 4.28326 14.801
215 3 -2.84259 7.40108 11.4167
241 3 0.86829 5.91417 15.2947
243 3 -1.4723 6.46128 16.6994
244 3 2.52847 6.98029 10.7246
245 3 3.60679 5.68319 12.8357
338 2 -3.2831 6.18396 12.2299
210 3 -1.6713 3.75627 17.4378
293 1 5.35251 0.605796 14.6268
107 2 1.88416 3.5045 9.22042
242 3 0.946792 7.20606 17.6042
146 2 6.99673 0.664591 10.5017
235 3 1.3558 5.24268 8.92483
328 2 3.18214 7.52828 15.9523
296 2 5.64526 0.461488 11.8332
94 2 -0.820519 1.23437 9.18878
335 2 -0.323241 10.4261 0.18478
19 4 -2.86488 9.41322 8.27173
20 4 -4.20649 11.8401 6.38447
24 4 -0.908403 13.6874 7.62472
39 4 2.34465 9.29547 2.66208
40 4 2.01102 9.49136 8.1867
42 4 0.75873 11.5601 6.10779
75 1 0.829438 10.2376 1.83197
315 3 -2.6399 9.26437 0.971963
99 2 -4.79495 13.0596 2.42176
100 2 -2.84814 12.7793 6.21722
111 2 -0.653764 10.9918 5.21627
153 2 0.127555 9.34713 1.58008
154 2 1.33946 10.64 0.90714
155 2 0.524722 11.0231 2.63024
227 3 -1.70889 14.088 6.22464
248 3 1.3705 8.11376 8.62838
218 3 -2.1526 8.31188 7.3551
219 3 -4.92686 11.5991 4.90778
220 3 -3.74125 10.5594 7.05709
221 3 -5.14863 12.7455 7.2654
309 2 -0.679411 8.58683 3.40564
246 3 1.52389 8.38877 3.80842
247 3 3.0518 8.4385 1.46229
253 3 0.396971 12.7755 7.10634
122 2 -4.23892 9.26379 0.936078
252 3 1.25295 10.2834 7.05376
86 1 -6.04491 13.1058 2.53557
186 2 -6.32362 13.7488 3.4068
306 4 -2.48336 8.51459 2.80841
307 4 -2.08013 10.4239 0.117543
308 1 -1.67442 9.81059 4.01813
310 2 -1.68206 11.9139 0.887603
311 2 -1.43029 10.7845 3.56615
312 2 -1.68914 9.67889 5.13265
313 2 -3.46458 9.67311 3.87349
250 3 -1.82986 12.8574 8.63517
231 3 -0.203514 7.80207 5.7385
185 2 -6.50636 13.5923 1.65149
31 4 1.13393 7.35066 4.95421
18 4 -5.73271 11.3917 3.51422
158 2 3.58997 7.78108 8.68205
7 4 -5.73461 14.4022 7.66084
21 4 -2.48907 9.8876 14.3972
22 4 -3.66041 11.8486 12.2317
41 4 -1.77872 11.6982 9.81657
68 1 -3.56233 8.37256 14.5785
69 1 -0.307412 9.02688 11.7373
77 1 1.58815 9.39129 14.7094
101 2 -0.786466 9.95901 14.3762
102 2 -2.71202 10.5133 16.057
103 2 -5.29166 11.6085 11.738
112 2 -0.0286954 8.38666 15.4054
113 2 -0.225459 11.9681 10.4173
114 2 -0.0337909 11.9185 13.0967
127 2 -6.5992 14.0858 14.1063
249 3 -1.59476 10.2051 9.17269
135 2 -3.34909 8.21805 15.6946
136 2 0.0176079 9.30596 10.6606
137 2 0.515895 9.17038 12.4926
138 2 -1.196 9.61455 12.0145
159 2 1.63475 8.28992 14.4528
160 2 0.549198 10.0424 14.3854
161 2 1.92337 9.73438 15.8292
341 2 -3.70249 14.3505 17.2221
133 2 -2.82106 7.75738 13.8484
222 3 -3.12162 10.8173 13.2741
223 3 -3.6202 13.3797 12.9457
322 2 -5.60879 13.6763 17.349
251 3 -2.7588 11.8746 10.9885
217 3 -3.91145 9.02075 9.38457
344 2 -1.12802 13.8403 14.5891
318 3 -6.9978 14.0634 9.07831
319 3 -6.25309 12.7415 11.328
320 1 -4.68223 14.0639 16.6902
321 2 -4.69995 13.5849 15.6143
291 4 -2.74402 14.7046 12.9668
334 2 -4.18272 12.2117 17.0906
317 2 -5.0993 11.9959 8.98162
345 2 -2.22295 14.7453 15.5424
1 4 14.4497 1.44515 3.4464
2 1 12.9405 2.36998 2.62466
3 2 13.0878 1.9554 1.52428
4 2 11.9228 2.27334 3.04068
118 2 6.69903 6.47829 0.927022
11 4 11.7009 5.79493 3.52945
46 4 8.34332 1.60455 3.37317
49 4 9.83798 3.95788 2.06559
50 4 6.29158 6.80316 4.25951
51 4 8.44005 6.50995 0.949412
52 4 10.1729 5.57549 8.46658
54 4 9.4434 6.94703 5.46418
257 3 7.14093 1.54008 4.45428
268 3 7.89563 6.82197 4.92629
324 2 12.8312 3.82649 1.21582
95 2 13.4649 2.23924 7.30632
263 3 5.18869 7.09803 5.37359
117 2 10.0943 2.99969 0.683675
120 2 11.1361 4.01881 8.1651
131 2 12.6789 3.89393 4.57318
269 3 9.79136 6.2294 7.08125
267 3 10.5862 6.36774 4.46724
340 2 13.2849 3.53072 2.77266
157 2 4.93052 6.49204 8.52483
173 2 6.49737 5.80384 7.91522
337 2 11.7741 0.809232 2.11781
260 3 9.07203 3.05419 3.12852
261 3 11.2382 4.54312 2.57267
262 3 5.8854 5.47592 3.29294
348 2 9.46201 0.684546 1.28324
264 3 8.8975 5.1555 1.52253
168 2 9.13028 3.37213 7.96901
174 2 7.38145 4.10815 7.97482
132 2 12.695 5.21573 5.90176
67 1 12.906 4.99195 4.87066
82 1 6.82324 4.93118 8.52821
78 1 8.53729 0.380245 1.89554
115 2 9.41374 0.31154 3.65766
162 2 7.48099 0.841489 1.49324
142 2 7.43639 3.22659 0.229894
323 1 12.662 4.57348 0.242939
76 1 4.43635 7.39521 7.97699
343 2 12.8188 5.67076 0.528422
71 1 5.65644 3.44044 17.6319
27 4 8.47506 0.913677 13.9894
29 4 6.85851 2.84214 11.9598
119 2 8.5539 5.37895 9.12143
47 4 10.0669 3.32327 15.0004
48 4 11.249 2.68812 10.6211
55 4 11.0602 5.17965 12.7435
73 1 7.90375 4.3995 11.5342
79 1 9.09196 4.30986 16.4529
96 2 12.572 4.64334 15.2453
81 1 11.0172 1.17382 11.7648
165 2 8.15796 4.1896 17.0986
105 2 7.24942 0.701477 15.1901
109 2 6.10842 6.03702 13.5296
116 2 10.4344 3.09137 16.7988
331 2 5.77672 6.44094 16.7269
121 2 6.84347 6.63778 9.50006
333 2 13.5597 1.9871 13.8236
147 2 7.4435 4.66535 10.4011
148 2 8.99805 4.29079 11.5924
149 2 7.57104 5.15029 12.3144
164 2 9.40726 5.36283 16.5084
265 3 10.993 6.42744 9.52748
166 2 8.5033 4.21425 14.83
167 2 9.69237 1.98482 9.19099
80 1 9.64299 3.30854 9.01303
169 2 8.96723 3.82355 9.89933
171 2 10.0878 0.826172 11.0587
175 2 6.11129 4.56043 9.3765
172 2 10.7023 1.43908 12.8046
144 2 6.99782 2.43955 9.6986
229 3 7.76678 1.86776 12.9542
258 3 9.78458 1.71067 14.6949
259 3 12.6233 2.51429 9.82381
266 3 5.13578 7.20557 11.1337
270 3 11.4828 4.39 14.051
271 3 10.9962 4.08848 11.6093
274 3 9.78932 6.07461 12.8971
325 2 10.7265 4.99028 17.2683
332 2 7.69144 6.15353 16.5439
329 1 6.75432 6.90993 16.8478
56 4 9.2026 7.56149 12.3757
273 3 7.63781 7.50845 11.9633
8 4 13.8665 2.52671 8.93832
170 2 11.9127 0.5563 11.6917
45 4 5.27685 13.5418 2.79485
57 4 9.7382 9.42639 1.15532
58 4 3.39812 11.6334 4.39982
59 4 6.72661 11.5162 1.21385
62 4 5.73771 11.3486 6.40885
126 2 2.88081 13.2328 8.68705
83 1 6.187 8.42036 3.15116
84 1 9.62885 8.78522 5.57065
85 1 8.63835 9.08913 8.23766
87 1 6.98961 11.1669 4.81929
88 1 5.90309 13.0512 7.29673
110 2 3.49787 9.02409 7.40315
200 2 3.82399 11.1879 0.468782
123 2 8.3726 11.9296 1.55404
163 2 1.41018 13.4721 2.23009
125 2 6.58771 10.2216 2.26462
5 3 6.69144 14.0052 3.71144
156 2 5.13845 8.22909 7.69766
176 2 5.87979 8.03622 2.15916
177 2 7.1697 8.96013 3.21254
178 2 5.25135 8.9109 3.69988
179 2 10.285 9.01648 4.61353
180 2 10.1281 9.20518 6.58594
181 2 8.49096 9.03823 5.40024
182 2 9.46153 9.64525 7.68386
183 2 8.00108 8.38301 7.56139
187 2 6.69813 10.2402 4.1096
188 2 8.01794 11.0852 5.24897
189 2 6.81441 12.2176 4.41996
190 2 6.58207 13.0007 8.23738
191 2 4.9087 13.5165 7.51847
275 3 9.02411 7.99398 1.09543
277 3 3.29001 10.4883 3.31868
278 3 4.07089 13.0195 3.75592
350 2 6.45586 13.5652 6.31888
280 3 5.6405 12.6132 1.57888
285 3 4.17042 11.1884 5.77245
286 3 6.32821 10.3582 7.49707
349 2 8.35006 12.1523 3.69421
276 3 9.78183 10.2668 2.4107
279 3 1.80377 11.9139 4.95549
43 4 3.06112 10.0278 13.7208
44 4 1.46176 12.4038 12.6178
254 3 3.40417 8.47521 12.8508
330 2 6.74246 7.9157 16.191
60 4 7.1575 10.0325 8.97374
61 4 2.47734 12.0062 9.86993
63 4 8.59348 10.1363 14.4548
64 4 4.41703 12.0366 16.1278
65 4 8.30467 12.9069 13.0187
89 1 6.88485 9.57545 15.1006
90 1 4.78296 13.5745 15.0551
91 1 2.74582 12.1323 17.0393
92 1 4.25382 12.7387 9.99302
93 1 6.57794 13.2173 12.5259
288 3 4.25689 10.5778 14.8453
290 3 8.38545 11.5106 13.6999
327 2 3.48188 9.2263 16.8272
192 2 7.31908 9.68828 16.2679
193 2 6.87269 8.53608 14.6997
194 2 5.86407 10.0262 14.9945
195 2 4.77643 13.0243 14.0407
196 2 5.81356 13.8795 15.4617
197 2 4.10524 14.4636 15.0345
199 2 2.58952 13.2839 16.8789
326 1 3.72929 8.10491 16.7812
284 3 1.35421 12.6509 10.8884
202 2 4.63736 11.8645 10.7015
203 2 4.28531 13.7804 10.6312
204 2 5.9809 12.2954 12.8124
205 2 6.68597 13.4321 11.3911
206 2 6.46134 14.2097 13.2297
53 4 6.52238 7.72215 10.8146
255 3 2.35545 11.1523 12.9436
256 3 1.73732 13.7155 13.4709
272 3 10.0478 8.18073 11.1156
289 3 5.7088 11.754 17.4123
281 3 6.46547 9.24179 10.1268
282 3 7.92014 11.5468 9.56865
339 2 9.53273 10.5131 15.7879
287 3 9.25256 8.76593 13.7824
14 4 11.3904 7.7219 10.3519
184 2 9.04369 8.60892 9.16138
124 2 8.4803 11.0447 17.4859
198 2 1.89134 11.4554 16.617
283 3 2.35304 10.6007 9.20096
201 2 4.86255 12.8194 9.00559
316 4 9.16388 12.5728 9.74356
134 2 11.0089 8.55964 14.2537
347 2 4.82874 7.76629 16.9531
ITEM: TIMESTEP
100
ITEM: NUMBER OF ATOMS
350
ITEM: BOX BOUNDS xy xz yz pp pp pp
-7.8789169999999995e+00 1.5678200000000000e+01 -7.0408999999999997e+00
0.0000000000000000e+00 1.4894400000000001e+01 -8.3801700000000001e-01
0.0000000000000000e+00 1.7638300000000001e+01 6.7500000000000004e-01
ITEM: ATOMS id type x y z
234 3 6.16398 2.64646 6.64574
9 4 0.443988 2.25053 5.77556
13 4 -0.0803654 4.67512 7.94474
15 4 -1.3161 7.1585 6.60072
23 4 3.23387 2.56401 4.00816
26 4 5.81588 1.55616 5.42566
30 4 4.74449 5.02521 2.47935
233 3 4.43435 2.87828 8.57511
343 2 -2.8127 5.68324 0.740474
33 4 5.25354 3.63022 7.4832
139 2 3.44779 0.395407 3.01641
70 1 2.98141 1.30875 2.59034
74 1 0.807413 5.7151 4.02516
97 2 -2.47784 6.72286 5.42586
108 2 5.57403 3.77669 1.61224
304 3 -0.183591 1.41499 2.1827
140 2 3.44194 1.64158 1.60613
141 2 1.84441 1.24274 2.52935
150 2 1.56484 4.98103 4.61695
151 2 0.98586 5.82759 2.90389
152 2 -0.310177 5.47335 4.33708
346 2 6.15681 2.32311 1.06307
207 3 -0.75947 2.17194 4.7561
208 3 0.494726 0.747952 6.51072
212 3 0.298396 3.59145 6.78787
213 3 -0.949531 5.79585 7.30274
224 3 1.92519 2.46639 4.92291
225 3 2.30475 1.16024 8.28304
226 3 4.51718 2.01641 4.65382
336 2 6.90424 0.844649 8.53314
230 3 3.64159 4.20604 3.30664
232 3 4.19914 5.93379 1.33023
302 2 0.919853 3.83725 2.26494
35 4 4.17619 6.41855 6.41459
303 2 1.53953 4.77107 0.634954
237 3 2.60804 6.81178 5.92545
238 3 4.48683 4.93093 6.8099
342 2 -1.66503 5.2253 4.49255
314 3 -3.1345 7.10758 2.96343
299 4 0.386089 2.26183 0.677892
300 1 1.44726 3.75392 1.21964
301 2 2.46514 3.32097 1.41986
71 1 6.25235 2.74743 0.055472
31 4 1.35956 7.29238 4.94779
6 4 1.46028 1.62662 16.2164
10 4 -0.376507 2.43953 13.5886
12 4 -2.40325 5.00535 16.7976
297 2 3.41638 3.03826 12.1864
16 4 0.492887 5.38711 13.7634
106 2 4.12519 4.65415 17.5236
295 2 1.87656 1.95897 12.4189
28 4 4.11984 3.43597 16.0765
34 4 1.14569 6.82861 9.67441
291 4 4.2594 0.583706 12.8672
37 4 0.0702205 6.81826 16.3159
66 1 -0.0634225 1.93896 11.7893
17 4 -1.0299 7.32382 11.8566
211 3 -0.933452 3.80954 9.06112
305 3 0.398647 2.05857 17.3395
98 2 2.15315 5.59146 13.1888
104 2 3.10413 2.01103 10.6722
38 4 3.69061 7.2411 11.8192
72 1 6.48107 1.64478 10.3217
128 2 0.350546 2.73289 11.0023
296 2 4.97921 0.787042 11.2886
130 2 0.484462 0.969018 11.7954
298 2 5.80527 1.48216 14.7462
143 2 5.60203 2.27226 16.6111
145 2 5.52092 1.1795 9.88552
292 1 3.02723 2.07808 12.6984
209 3 0.61745 1.42219 14.5284
294 2 3.04774 2.18497 13.8149
242 3 1.0404 7.05522 17.5761
214 3 0.107079 3.91386 13.68
25 4 3.00075 2.39761 9.0022
216 3 -0.519944 6.39423 13.0962
228 3 2.81896 2.56464 16.144
236 3 -0.191602 6.86389 10.5047
239 3 4.56341 4.22014 14.785
215 3 -2.72943 7.4343 11.4971
241 3 0.759984 5.85193 15.2625
243 3 -1.44026 6.32591 16.7228
244 3 2.4254 7.03312 10.8369
245 3 3.69324 5.59063 12.7456
338 2 -3.43672 6.33361 12.4414
210 3 -1.67109 3.66498 17.3261
235 3 1.47478 5.31825 8.82568
107 2 1.97419 3.78916 9.07092
129 2 -1.15576 1.74582 11.5313
162 2 0.385336 14.2219 2.0093
19 4 -2.92259 9.50879 8.19273
20 4 -4.21432 11.9611 6.42683
24 4 -0.805938 13.7114 7.61814
39 4 2.36858 9.38403 2.5126
40 4 1.94108 9.42346 8.11639
42 4 0.747902 11.5038 6.07134
75 1 1.01622 10.1834 1.38341
315 3 -2.54878 9.50833 1.06534
99 2 -4.63402 12.7857 2.10247
100 2 -2.89812 12.9457 6.26143
111 2 -0.63047 11.0249 5.12869
153 2 0.185952 9.40457 1.34966
154 2 1.57606 10.5096 0.416698
155 2 0.734266 11.0552 2.03566
227 3 -1.70363 14.1367 6.30761
248 3 1.29632 8.14798 8.78936
218 3 -2.11243 8.3329 7.40509
219 3 -4.90556 11.6258 4.92474
220 3 -3.58783 10.7027 7.02
221 3 -5.2182 12.5187 7.47368
309 2 -0.871243 8.63723 3.52687
246 3 1.64143 8.4276 3.7462
247 3 3.24805 8.48764 1.48234
253 3 0.426437 12.7292 7.05128
122 2 -4.13999 9.14873 0.880824
252 3 0.96831 10.1878 6.93729
86 1 -6.0801 13.0645 2.38402
186 2 -6.18143 13.7701 3.3039
306 4 -2.61129 8.6135 2.84393
307 4 -2.1265 10.5673 0.0121756
308 1 -1.76077 9.60353 4.31606
310 2 -1.84596 12.1088 0.631556
311 2 -1.59665 10.6655 3.89633
312 2 -1.47463 9.53556 5.40989
313 2 -3.52713 9.65411 4.0139
250 3 -1.68318 12.9647 8.64409
231 3 -0.0483328 7.56074 5.78026
185 2 -6.61887 13.4869 1.45789
32 4 3.53314 7.14167 0.628967
18 4 -5.64353 11.5187 3.4788
158 2 3.5114 7.5918 8.33148
7 4 -5.72353 14.3305 7.71716
21 4 -2.6197 9.85128 14.3946
22 4 -3.6706 11.9719 12.1475
41 4 -1.68175 11.7746 9.75549
68 1 -3.61761 8.35956 14.5702
69 1 -0.273814 9.05856 12.1669
77 1 1.50454 9.34536 14.9129
101 2 -0.87465 9.94379 14.6096
102 2 -2.81079 10.5523 15.9871
103 2 -5.26789 11.6708 11.7887
112 2 -0.0614845 8.40016 15.628
113 2 -0.0935105 11.9771 10.383
114 2 0.0104999 11.9132 13.1214
127 2 -6.88259 14.1057 14.0414
249 3 -1.79391 10.3672 8.96494
135 2 -3.52006 8.17182 15.738
136 2 0.339723 9.106 11.2286
137 2 0.391933 9.19022 13.2108
138 2 -1.154 9.74882 12.118
159 2 1.43796 8.27873 14.4412
160 2 0.445774 9.99574 14.9055
161 2 1.90279 9.2495 16.0064
341 2 -4.0011 13.9892 16.3287
293 1 -1.70507 14.7029 14.5505
222 3 -3.14194 10.8279 13.2853
223 3 -3.64496 13.5111 12.7357
322 2 -5.4156 13.7837 17.6203
251 3 -2.8653 11.868 10.8568
217 3 -4.09803 8.93916 9.11997
344 2 -0.96406 13.9871 14.0396
318 3 -7.18317 14.0465 9.02508
319 3 -6.55086 12.773 11.3157
320 1 -5.05126 14.0952 16.574
321 2 -5.70483 13.5664 15.7152
328 2 3.16828 7.84154 16.0361
334 2 -4.21416 12.3171 17.0821
317 2 -5.0848 12.0682 9.14303
345 2 -2.28255 14.2436 15.5105
133 2 -2.83173 7.68207 13.841
105 2 0.164468 14.6173 15.0949
335 2 -1.15833 11.2091 17.5549
1 4 14.4462 1.43804 3.39526
2 1 12.9317 2.41986 2.70641
3 2 12.8022 2.17606 1.60997
4 2 11.9606 2.29473 3.34282
118 2 6.66052 6.50488 1.07196
11 4 11.5946 5.79602 3.66497
46 4 8.34696 1.4767 3.5399
49 4 9.8642 3.98418 2.02628
50 4 6.34171 6.94128 4.15545
51 4 8.38797 6.57585 1.03502
52 4 10.1335 5.7417 8.48964
54 4 9.2898 6.9858 5.53152
257 3 7.07682 1.4261 4.4429
268 3 7.80228 6.8525 4.9296
324 2 12.8547 3.82879 1.27097
95 2 13.379 2.2624 7.38607
263 3 5.22068 7.02761 5.3577
117 2 10.5537 3.22262 0.575636
120 2 11.0463 4.22281 7.97803
131 2 12.7733 3.80208 4.49327
269 3 9.64354 6.32467 7.11214
267 3 10.4138 6.33574 4.57061
340 2 13.5052 3.51491 2.85669
157 2 5.1762 6.74295 8.53794
173 2 6.58043 5.82645 7.84949
337 2 11.6699 0.947187 2.20307
260 3 9.07059 2.77337 2.69258
261 3 11.1075 4.58215 2.77257
262 3 6.00607 5.73303 3.08372
348 2 9.27076 0.20389 1.60063
264 3 9.0741 5.22975 1.57679
168 2 9.23901 3.63049 8.02432
174 2 7.46139 4.01321 8.11486
132 2 12.6017 5.16534 5.86494
67 1 12.8806 4.92391 4.71698
82 1 6.82625 4.95482 8.52779
323 1 12.7405 4.618 0.348404
115 2 9.52041 0.342364 4.08335
142 2 7.23491 3.32235 0.0165305
170 2 11.8544 0.62378 11.5371
27 4 8.40921 0.864055 13.9626
29 4 6.96498 2.89426 11.8842
119 2 8.49897 5.47916 9.2425
47 4 9.82075 3.44374 15.0479
48 4 11.2291 2.85992 10.6052
55 4 10.9766 5.22858 12.828
73 1 7.9005 4.54377 11.423
79 1 9.06452 4.44841 16.5074
96 2 12.3228 4.78753 15.4116
81 1 10.9553 1.31539 11.6451
165 2 8.31095 4.35012 17.316
240 3 5.66548 3.70859 12.4748
109 2 6.17655 6.1174 13.7339
116 2 10.5083 3.32416 16.7168
331 2 5.68212 6.43522 17.1473
121 2 7.05451 6.632 9.5206
333 2 13.6286 2.27803 13.8713
147 2 7.50645 4.7001 10.3742
148 2 9.01616 4.43358 11.4985
149 2 7.47472 5.32237 12.1111
164 2 9.37993 5.53623 16.374
265 3 11.1454 6.41514 9.4107
166 2 8.14706 4.27305 14.946
167 2 9.62028 2.13044 9.09241
80 1 9.7366 3.3577 9.04276
169 2 9.0152 3.84373 9.88413
171 2 10.0341 0.895345 11.2042
175 2 6.0488 4.79073 9.36188
172 2 10.7921 1.61537 12.7031
144 2 6.95793 2.4635 9.62495
229 3 7.73702 1.85145 12.9264
258 3 9.44379 1.79391 14.6908
259 3 12.6194 2.58747 9.91629
266 3 5.0542 7.29191 11.1449
270 3 11.2499 4.62616 14.2242
271 3 10.9475 4.11061 11.7074
274 3 9.65771 6.07888 12.8286
325 2 10.8483 5.08176 17.3285
332 2 7.47861 5.96601 16.7384
329 1 6.6761 6.85259 16.9935
146 2 7.23967 0.837252 10.6845
94 2 14.7773 1.17056 9.19542
8 4 13.8217 2.56408 8.95922
36 4 5.01497 4.96117 13.3668
45 4 5.21695 13.6102 2.81541
57 4 9.88779 9.23 1.31415
58 4 3.35935 11.6001 4.48318
59 4 6.62029 11.6382 1.03835
62 4 5.78986 11.2996 6.45524
126 2 2.84571 13.0124 8.51086
83 1 6.41827 8.67671 3.15409
84 1 9.8522 8.77641 5.64575
85 1 8.60913 8.83271 8.30678
87 1 7.08498 11.3297 4.90173
88 1 5.94691 13.0386 7.28129
110 2 3.4192 9.01387 7.36229
200 2 3.94168 11.626 0.527226
123 2 8.20996 11.9565 1.50105
163 2 1.74844 13.217 2.85273
125 2 6.4363 10.1747 1.82628
5 3 6.5696 14.0227 3.66982
156 2 5.14848 8.45313 7.77674
176 2 5.99539 8.49744 2.08883
177 2 7.36643 9.24408 3.1214
178 2 5.62574 9.13155 3.89868
179 2 10.523 8.77881 4.73493
180 2 10.3576 9.05826 6.63542
181 2 8.88328 9.36289 5.54517
182 2 9.6018 9.34321 7.89682
183 2 8.18179 8.17606 7.58589
187 2 6.82311 10.2825 4.32751
188 2 8.09532 11.3026 5.42492
189 2 6.85913 12.3053 4.3921
190 2 6.3603 12.9223 8.31064
191 2 4.86098 13.4473 7.18409
275 3 9.12711 7.92671 1.16583
277 3 3.32309 10.4928 3.30477
278 3 4.0114 13.022 3.70842
350 2 6.69732 13.4442 6.54463
280 3 5.72011 12.7353 1.57313
285 3 4.27272 11.1082 5.69396
286 3 6.14798 10.2135 7.6049
349 2 8.35252 12.1437 3.53662
276 3 9.87394 10.0641 2.63836
279 3 1.82235 11.9829 5.00577
76 1 4.56612 7.5009 7.96294
78 1 1.48798 14.1539 2.3787
124 2 9.50256 10.2898 0.0122113
43 4 2.9429 9.87618 13.7479
44 4 1.57034 12.3465 12.7215
254 3 3.46062 8.51306 12.8712
330 2 6.72069 7.79206 16.2729
60 4 7.24548 10.0845 8.97429
61 4 2.50354 11.8949 9.82277
63 4 8.5346 9.99068 14.5915
64 4 4.41686 12.0161 16.0343
65 4 8.28148 12.8396 12.954
89 1 6.82172 9.41 15.0613
90 1 4.84204 13.7238 15.2739
91 1 2.77267 12.3037 17.0857
92 1 4.16215 12.8219 9.92817
93 1 6.55647 13.3178 12.5207
288 3 4.04561 10.5165 14.901
290 3 8.45796 11.4628 13.7593
327 2 3.94925 9.43705 16.7558
192 2 7.0734 9.49286 16.2706
193 2 6.79379 8.31914 14.5843
194 2 5.8272 9.92482 14.8406
195 2 3.90994 13.8765 14.6634
196 2 5.73296 13.3776 14.6486
197 2 5.00353 14.6043 15.9599
199 2 2.38066 13.3044 16.7601
326 1 3.86306 8.32722 16.8806
284 3 1.39865 12.5241 10.8143
202 2 4.57002 12.0595 10.7771
203 2 3.98796 13.8346 10.5082
204 2 6.05572 12.4172 13.1579
205 2 6.40212 13.2378 11.3683
206 2 6.47055 14.3407 12.9866
53 4 6.55338 7.76153 10.7414
255 3 2.55858 11.2028 13.0404
256 3 1.93847 13.7939 13.1984
272 3 10.331 8.10749 11.2413
289 3 5.64215 11.8721 17.1498
281 3 6.54072 9.25626 10.0771
282 3 8.04144 11.4328 9.3971
339 2 9.51163 10.2287 15.9406
287 3 9.23498 8.81758 13.7134
14 4 11.5199 7.73092 10.2768
184 2 8.72602 8.33076 9.34026
283 3 2.40608 10.4992 9.15408
198 2 2.03282 11.4667 16.8363
56 4 9.2068 7.59647 12.3482
201 2 4.83324 12.932 9.01897
316 4 9.03817 12.5656 9.74406
134 2 11.0041 8.45903 14.2011
273 3 7.63646 7.56703 11.8938
347 2 4.9552 7.86185 16.7771
ITEM: TIMESTEP
200
ITEM: NUMBER OF ATOMS
350
ITEM: BOX BOUNDS xy xz yz pp pp pp
-7.8789169999999995e+00 1.5678200000000000e+01 -7.0408999999999997e+00
0.0000000000000000e+00 1.4894400000000001e+01 -8.3801700000000001e-01
0.0000000000000000e+00 1.7638300000000001e+01 6.7500000000000004e-01
ITEM: ATOMS id type x y z
234 3 6.30437 2.61221 6.74004
9 4 0.58693 2.16771 5.60639
13 4 -0.137074 4.75968 7.90022
15 4 -1.21714 7.21762 6.5696
23 4 3.33525 2.50948 3.94223
26 4 5.91733 1.6623 5.48748
30 4 4.84664 4.96441 2.54845
233 3 4.51759 2.82132 8.70806
32 4 3.4527 7.03063 0.681846
33 4 5.38971 3.57769 7.61308
139 2 3.93039 0.377736 2.84418
70 1 3.18744 1.18891 2.53617
74 1 0.739248 5.53391 4.16284
97 2 -2.23345 6.80769 5.22528
108 2 5.67667 3.6999 1.70665
304 3 -0.412309 1.43477 1.96543
140 2 3.51596 1.77102 1.58587
141 2 2.13758 0.904355 2.58756
150 2 1.60363 4.84724 4.47126
151 2 0.744003 5.71096 3.04526
152 2 -0.264518 5.12559 4.52158
346 2 6.47188 2.46064 1.00414
207 3 -0.702427 2.25904 4.4646
208 3 0.595227 0.766697 6.37079
212 3 0.509899 3.42788 6.69598
213 3 -1.15976 5.77081 7.26365
224 3 1.94346 2.39343 4.68751
225 3 2.26411 1.41319 8.37614
226 3 4.62919 2.08507 4.73439
336 2 6.9147 1.0045 8.35909
230 3 3.7105 4.16333 3.30624
232 3 4.20899 5.89146 1.47067
302 2 1.20028 3.76605 2.50117
35 4 4.25113 6.45611 6.37431
303 2 1.36028 4.68855 0.920768
237 3 2.63496 6.75307 5.92273
238 3 4.62215 4.8049 6.83336
342 2 -1.65639 5.13217 4.69329
314 3 -3.14275 7.13486 3.01054
299 4 0.275742 2.30595 0.71842
300 1 1.37879 3.68133 1.39878
301 2 2.40646 3.19074 1.16355
235 3 1.40664 5.42246 8.80215
31 4 1.41867 7.15479 4.90287
242 3 1.77768 6.36345 0.00646286
6 4 1.41035 1.43808 16.1889
10 4 -0.43059 2.43272 13.5501
12 4 -2.4084 5.04641 16.8094
297 2 3.50629 3.05073 12.2281
16 4 0.427854 5.5643 13.7661
106 2 4.04164 4.65993 17.5388
295 2 1.79085 2.06499 12.3704
28 4 4.08174 3.43506 16.0761
34 4 1.2905 6.86579 9.61499
291 4 4.14416 0.653777 12.6296
37 4 0.056766 6.87857 16.3428
66 1 -0.164197 1.87387 11.7843
17 4 -0.973871 7.42894 11.7084
211 3 -0.762446 3.79956 9.08086
305 3 0.508455 2.02641 17.3812
98 2 1.8445 5.70131 12.9383
104 2 2.84521 2.35202 10.7127
38 4 3.6584 7.18968 11.9399
72 1 6.61142 1.4638 10.2697
128 2 0.151882 2.78047 11.1211
296 2 5.04578 0.701541 11.071
130 2 0.639016 1.0301 11.7055
298 2 5.8561 1.52863 14.1268
143 2 5.57509 2.26757 16.6696
145 2 5.71705 1.15855 9.71069
292 1 2.91672 2.1576 12.6604
209 3 0.497538 1.3707 14.4955
294 2 2.96476 2.31086 13.82
71 1 5.40343 3.54033 17.6256
214 3 0.0501611 3.94789 13.6536
25 4 3.05926 2.52072 9.0105
216 3 -0.654841 6.54276 13.1214
228 3 2.79627 2.43672 16.1059
236 3 -0.13382 6.82318 10.462
239 3 4.54046 4.22837 14.8411
215 3 -2.92786 7.49528 11.2487
241 3 0.755728 5.94501 15.2579
243 3 -1.45811 6.33984 16.647
244 3 2.4753 7.05383 10.6779
245 3 3.58404 5.50772 12.7731
338 2 -3.48341 6.42077 12.3019
210 3 -1.69772 3.75286 17.376
36 4 4.86698 4.86908 13.4348
240 3 5.51624 3.58361 12.3066
107 2 2.25442 3.9982 8.87147
162 2 0.657449 14.2703 1.83603
19 4 -2.78434 9.51583 8.09999
20 4 -4.17577 12.0364 6.39944
24 4 -0.776842 13.7838 7.56006
39 4 2.44534 9.31671 2.54206
40 4 1.94083 9.42283 8.01924
42 4 0.729266 11.5685 6.09099
75 1 1.17803 10.2194 1.3951
315 3 -2.67331 9.88637 1.36129
99 2 -4.49972 12.5531 2.21422
100 2 -2.88877 13.0367 6.27828
111 2 -0.652094 11.1616 5.09196
153 2 0.220111 9.85616 1.87235
154 2 1.29133 9.77355 0.373261
155 2 1.34013 11.3461 1.49513
227 3 -1.59963 14.1401 6.2309
248 3 1.16399 8.13794 8.72006
218 3 -1.98028 8.34357 7.33819
219 3 -4.92141 11.7185 4.98469
220 3 -3.56545 10.5934 6.88501
221 3 -5.08997 12.7791 7.50087
309 2 -1.01624 8.73921 3.57087
246 3 1.74673 8.17402 3.70441
247 3 3.305 8.42431 1.43557
253 3 0.481191 12.8104 7.04271
122 2 -4.12959 9.06343 0.826456
252 3 1.10283 10.2176 7.00227
86 1 -5.88846 12.9407 2.27756
186 2 -6.03013 13.8993 2.87896
306 4 -2.65317 8.68857 2.88237
307 4 -2.09597 10.7683 0.263562
308 1 -1.83869 9.74631 4.38469
310 2 -2.09777 12.3702 0.788337
311 2 -1.66692 10.7922 4.01072
312 2 -1.65891 9.66407 5.47518
313 2 -3.55185 9.49759 4.25486
250 3 -1.5509 13.0665 8.70334
231 3 0.144567 7.67101 5.84862
185 2 -6.26753 13.1364 1.26875
322 2 -4.74713 13.0404 0.0648521
18 4 -5.58502 11.4449 3.57364
158 2 3.60418 7.58321 8.39423
7 4 -5.76653 14.4429 7.77432
335 2 -0.323997 10.5694 0.233388
279 3 1.83916 11.7721 5.05653
163 2 0.930463 13.0177 3.3682
21 4 -2.72156 10.0265 14.4385
22 4 -3.63719 11.9681 12.136
41 4 -1.74379 11.8007 9.69976
68 1 -3.74615 8.52815 14.6473
69 1 -0.328898 9.10717 12.0101
77 1 1.38387 9.36691 14.7759
101 2 -1.0443 9.90817 14.6883
102 2 -2.85343 10.7448 16.196
103 2 -5.18538 11.4126 11.7151
112 2 -0.14022 8.38935 15.617
113 2 -0.259312 11.7073 10.5477
114 2 0.116022 12.4715 13.6218
127 2 -6.59755 14.0481 13.8399
249 3 -1.77498 10.3565 9.03999
135 2 -3.69309 8.31358 15.7862
136 2 0.420327 9.2254 11.131
137 2 0.248929 9.24692 13.08
138 2 -1.24739 9.828 11.9426
159 2 1.32627 8.23281 14.4621
160 2 0.298007 9.84914 14.9101
161 2 2.01068 9.52358 15.8298
341 2 -4.02972 14.1255 16.7933
293 1 -1.82615 14.7322 14.2924
222 3 -3.18648 10.9311 13.2694
223 3 -3.79391 13.5587 12.6054
105 2 0.129132 14.6458 14.7793
251 3 -2.75584 11.9751 10.8303
217 3 -3.84981 8.95541 9.09966
344 2 -1.35871 13.708 14.1757
318 3 -7.05855 14.1236 9.20976
328 2 3.31731 7.75627 15.9939
320 1 -5.17554 13.9484 16.6901
321 2 -5.49051 13.2575 15.768
133 2 -3.00834 7.79017 14.0009
334 2 -4.26271 12.1131 16.9668
317 2 -5.23544 12.0948 9.07653
283 3 2.39381 10.4293 9.12856
284 3 1.30993 12.3227 10.8448
345 2 -2.5813 14.7925 15.0603
1 4 14.4218 1.4205 3.25866
2 1 12.8446 2.41012 2.65468
3 2 12.3666 2.1878 1.62178
4 2 12.1043 2.28119 3.50503
118 2 6.65281 6.61674 1.23621
11 4 11.7179 5.62463 3.70979
46 4 8.34753 1.45083 3.49426
49 4 9.78802 3.80608 2.13847
50 4 6.35277 7.02498 4.25198
51 4 8.38336 6.47284 1.20548
52 4 10.1522 5.619 8.46199
54 4 9.38897 7.01882 5.62135
257 3 7.1022 1.55732 4.49422
268 3 7.84649 6.97492 4.94339
324 2 12.8351 3.81041 1.20588
95 2 13.4436 2.33 7.32403
263 3 5.19749 7.2191 5.32035
117 2 10.3901 3.13107 0.685555
120 2 11.2148 4.19529 8.23379
131 2 12.665 3.82735 4.96131
269 3 9.71664 6.2808 7.12488
267 3 10.5914 6.26983 4.61883
340 2 13.3186 3.504 2.66072
157 2 5.182 6.75473 8.54229
173 2 7.08422 5.51717 7.47307
337 2 11.6161 0.906961 2.40433
260 3 9.10165 2.61494 2.77359
261 3 11.0916 4.38913 2.81856
262 3 5.96911 5.7617 3.29901
115 2 9.56141 0.403197 4.1225
264 3 8.85805 5.05915 1.62004
168 2 9.26671 3.4352 8.0774
174 2 7.50922 3.90512 8.41165
132 2 12.6359 5.34167 6.03412
67 1 12.9585 4.92353 4.97165
82 1 6.98306 4.9213 8.45026
323 1 12.613 4.59812 0.315104
343 2 12.8055 5.76076 0.582061
170 2 11.8463 0.594173 11.1785
27 4 8.50984 0.976451 13.8748
29 4 6.7733 2.80426 11.7922
119 2 8.61412 5.36224 9.35398
47 4 9.81448 3.51795 15.0736
48 4 11.1837 2.89398 10.5767
55 4 10.9526 5.31193 12.8047
73 1 7.90468 4.36295 11.4227
79 1 8.97606 4.47718 16.5739
96 2 12.4272 4.75369 15.2626
81 1 10.9741 1.28287 11.5424
165 2 8.14638 4.20662 17.3474
273 3 7.70694 7.42453 11.7237
109 2 6.02841 6.07834 13.6426
116 2 10.4567 3.47727 16.7796
331 2 5.60408 6.53787 17.2565
121 2 6.82552 6.68547 9.33141
333 2 13.572 2.28125 13.823
147 2 7.56498 4.67442 10.3587
148 2 9.01799 4.17373 11.4957
149 2 7.50545 5.09523 12.2308
164 2 9.30092 5.54509 16.6726
265 3 11.0934 6.5007 9.35444
166 2 8.21455 4.38919 14.9837
167 2 9.67969 1.98944 9.22106
80 1 9.77175 3.27694 9.06453
169 2 9.07243 3.80508 9.92481
171 2 9.91297 0.851241 11.2947
175 2 6.08813 5.03632 9.22046
172 2 11.1201 1.87843 12.5625
144 2 7.23927 2.47107 9.63016
229 3 7.71675 1.90069 12.796
258 3 9.3602 2.03163 14.736
259 3 12.5868 2.77578 9.77388
266 3 5.14463 7.25388 11.2973
270 3 11.3494 4.52882 14.1355
271 3 10.8973 4.13787 11.6852
274 3 9.64335 6.14762 13.0157
325 2 10.6919 5.05858 17.4545
332 2 7.50488 6.1147 16.81
329 1 6.69051 6.94926 17.1271
146 2 7.37187 0.652426 10.4703
94 2 14.7463 1.19971 9.20099
8 4 13.8535 2.65947 8.88882
142 2 6.1791 4.31547 17.3134
129 2 14.4273 1.50547 11.5927
45 4 5.28393 13.5883 2.90044
57 4 9.99591 9.22202 1.48587
58 4 3.30487 11.6202 4.46577
59 4 6.55682 11.6658 1.07209
62 4 5.71192 11.3412 6.50309
126 2 2.64559 13.0813 8.55111
83 1 6.38779 8.75224 3.27787
84 1 9.73265 8.85114 5.72903
85 1 8.72257 8.85464 8.34536
87 1 7.10171 11.2847 5.17086
88 1 5.90553 13.1507 7.19029
110 2 3.41304 8.90331 7.21614
200 2 3.4473 11.745 0.360845
123 2 8.21815 12.1163 1.45242
124 2 9.38224 10.3784 0.396531