ITEM: TIMESTEP
0
ITEM: NUMBER OF ATOMS
350
ITEM: BOX BOUNDS xy xz yz pp pp pp
-7.9131060000000000e+00 1.5678200000000000e+01 -6.8987059999999998e+00
0.0000000000000000e+00 1.4894400000000001e+01 -1.0144000000000000e+00
0.0000000000000000e+00 1.7638300000000001e+01 6.7500000000000004e-01
ITEM: ATOMS id type x y z
234 3 5.99562 2.79439 6.64402
9 4 0.428502 2.42512 5.7704
13 4 -0.197563 4.69704 8.07683
15 4 -1.38447 7.26704 6.60457
23 4 3.25539 2.79716 4.06281
26 4 5.7521 1.5977 5.56051
30 4 4.81836 4.8296 2.40726
233 3 4.26533 3.00791 8.57089
32 4 3.42131 7.00147 0.587357
33 4 5.0925 3.77136 7.44164
139 2 3.22437 0.660738 3.11183
70 1 2.78953 1.5972 2.6551
74 1 0.725595 5.77429 3.83989
97 2 -2.53253 6.87167 5.35766
108 2 5.66036 3.56714 1.5078
304 3 -0.1564 1.57392 2.24083
140 2 3.37464 1.81921 1.68687
141 2 1.67321 1.46969 2.4861
150 2 1.47815 5.11238 4.33674
151 2 1.05376 6.07531 2.81849
152 2 -0.416096 5.45078 3.88783
346 2 6.20082 2.02965 0.8084
207 3 -1.02914 2.34988 4.78016
208 3 0.476739 0.875108 6.42086
212 3 0.184272 3.54385 6.90652
213 3 -1.03045 5.97093 7.3899
224 3 1.77209 2.79052 4.93459
225 3 2.36449 1.13193 8.29995
226 3 4.42799 1.97368 4.74633
336 2 6.51008 0.882875 8.50793
230 3 3.60132 4.22006 3.28687
232 3 4.25532 5.82069 1.32967
302 2 1.47228 3.82594 2.11939
35 4 3.98929 6.60913 6.26779
303 2 1.70909 4.7725 0.542742
237 3 2.59328 7.06621 5.74546
238 3 4.25437 4.96227 6.641
342 2 -1.67576 5.33493 4.53732
314 3 -3.08833 7.06918 3.02083
299 4 0.389137 2.33569 0.591672
300 1 1.62634 3.69379 1.01192
301 2 2.58919 3.06405 0.666843
6 4 1.45118 1.48424 16.1694
10 4 -0.545057 2.31534 13.5973
12 4 -2.48517 5.06004 16.7722
297 2 3.72496 2.83999 12.2782
16 4 0.30614 5.40696 13.8306
106 2 4.02408 4.63114 17.5365
295 2 1.94506 1.93631 12.1772
28 4 4.0372 3.53616 16.1526
34 4 1.31745 6.77099 9.66973
36 4 4.78128 4.93373 13.3957
37 4 -0.0120185 6.94284 16.2668
66 1 -0.0649805 1.75797 11.866
17 4 -0.968744 7.2622 11.6015
211 3 -1.04638 3.81127 9.17422
305 3 0.340986 1.92426 17.3931
98 2 1.92026 5.34737 13.1774
104 2 3.15971 1.91327 10.7296
38 4 3.61484 7.23503 11.8387
72 1 6.33922 1.6307 10.4032
128 2 0.281796 2.74187 11.4025
129 2 -1.07934 1.42439 11.5294
130 2 0.758151 0.972908 11.7287
298 2 5.75986 1.64773 14.5678
143 2 5.73496 2.60847 16.524
145 2 5.27564 1.52872 10.1486
292 1 3.06851 2.02845 12.6998
209 3 0.353912 1.43962 14.5549
294 2 3.01197 2.19722 13.8564
240 3 5.35157 3.81889 12.4737
214 3 -0.161016 3.88545 13.7486
25 4 3.00673 2.32682 9.06903
216 3 -0.422355 6.48568 13.0263
228 3 2.77325 2.43307 16.1304
236 3 -0.150337 6.73606 10.3845
239 3 4.42266 4.28326 14.801
215 3 -2.88712 7.40108 11.4167
241 3 0.768631 5.91417 15.2947
243 3 -1.58108 6.46128 16.6994
244 3 2.48692 6.98029 10.7246
245 3 3.53036 5.68319 12.8357
338 2 -3.34824 6.18396 12.2299
210 3 -1.81478 3.75627 17.4378
293 1 5.2067 0.605796 14.6268
107 2 1.82347 3.5045 9.22042
242 3 0.836074 7.20606 17.6042
146 2 6.89434 0.664591 10.5017
235 3 1.31556 5.24268 8.92483
328 2 3.0918 7.52828 15.9523
296 2 5.52702 0.461488 11.8332
94 2 -0.90358 1.23437 9.18878
335 2 -0.220899 10.4261 0.18478
19 4 -2.85663 9.41322 8.27173
20 4 -4.15437 11.8401 6.38447
24 4 -0.850694 13.6874 7.62472
39 4 2.40997 9.29547 2.66208
40 4 2.02094 9.49136 8.1867
42 4 0.810916 11.5601 6.10779
75 1 0.912794 10.2376 1.83197
315 3 -2.55734 9.26437 0.971963
99 2 -4.6895 13.0596 2.42176
100 2 -2.7849 12.7793 6.21722
111 2 -0.598005 10.9918 5.21627
153 2 0.204621 9.34713 1.58008
154 2 1.43644 10.64 0.90714
155 2 0.607643 11.0231 2.63024
227 3 -1.63264 14.088 6.22464
248 3 1.36205 8.11376 8.62838
218 3 -2.14585 8.31188 7.3551
219 3 -4.86183 11.5991 4.90778
220 3 -3.70892 10.5594 7.05709
221 3 -5.09661 12.7455 7.2654
309 2 -0.628902 8.58683 3.40564
246 3 1.56824 8.38877 3.80842
247 3 3.121 8.4385 1.46229
253 3 0.450943 12.7755 7.10634
122 2 -4.156 9.26379 0.936078
252 3 1.28254 10.2834 7.05376
86 1 -5.94018 13.1058 2.53557
186 2 -6.2215 13.7488 3.4068
306 4 -2.42737 8.51459 2.80841
307 4 -1.97711 10.4239 0.117543
308 1 -1.61803 9.81059 4.01813
310 2 -1.57213 11.9139 0.887603
311 2 -1.35947 10.7845 3.56615
312 2 -1.64564 9.67889 5.13265
313 2 -3.40807 9.67311 3.87349
250 3 -1.79094 12.8574 8.63517
231 3 -0.185074 7.80207 5.7385
185 2 -6.38759 13.5923 1.65149
31 4 1.156 7.35066 4.95421
18 4 -5.65528 11.3917 3.51422
158 2 3.57764 7.78108 8.68205
7 4 -5.67013 14.4022 7.66084
21 4 -2.53968 9.8876 14.3972
22 4 -3.66893 11.8486 12.2317
41 4 -1.76366 11.6982 9.81657
68 1 -3.62997 8.37256 14.5785
69 1 -0.339008 9.02688 11.7373
77 1 1.52934 9.39129 14.7094
101 2 -0.83614 9.95901 14.3762
102 2 -2.7736 10.5133 16.057
103 2 -5.29745 11.6085 11.738
112 2 -0.104778 8.38666 15.4054
113 2 -0.213938 11.9681 10.4173
114 2 -0.0505852 11.9185 13.0967
127 2 -6.6048 14.0858 14.1063
249 3 -1.58795 10.2051 9.17269
135 2 -3.42986 8.21805 15.6946
136 2 -1.82407e-05 9.30596 10.6606
137 2 0.477891 9.17038 12.4926
138 2 -1.2246 9.61455 12.0145
159 2 1.56759 8.28992 14.4528
160 2 0.500263 10.0424 14.3854
161 2 1.85636 9.73438 15.8292
341 2 -3.7378 14.3505 17.2221
133 2 -2.88727 7.75738 13.8484
222 3 -3.15127 10.8173 13.2741
223 3 -3.62081 13.3797 12.9457
322 2 -5.65215 13.6763 17.349
251 3 -2.75414 11.8746 10.9885
217 3 -3.91868 9.02075 9.38457
344 2 -1.14109 13.8403 14.5891
318 3 -6.95142 14.0634 9.07831
319 3 -6.24329 12.7415 11.328
320 1 -4.71488 14.0639 16.6902
321 2 -4.72622 13.5849 15.6143
291 4 -2.73161 14.7046 12.9668
334 2 -4.23805 12.2117 17.0906
317 2 -5.07259 11.9959 8.98162
345 2 -2.23687 14.7453 15.5424
1 4 14.4284 1.44515 3.4464
2 1 12.937 2.36998 2.62466
3 2 13.0916 1.9554 1.52428
4 2 11.9139 2.27334 3.04068
118 2 6.75419 6.47829 0.927022
11 4 11.7222 5.79493 3.52945
46 4 8.32434 1.60455 3.37317
49 4 9.85612 3.95788 2.06559
50 4 6.31538 6.80316 4.25951
51 4 8.49529 6.50995 0.949412
52 4 10.1407 5.57549 8.46658
54 4 9.45614 6.94703 5.46418
257 3 7.11008 1.54008 4.45428
268 3 7.9127 6.82197 4.92629
324 2 12.8569 3.82649 1.21582
95 2 13.4114 2.23924 7.30632
263 3 5.20388 7.09803 5.37359
117 2 10.1172 2.99969 0.683675
120 2 11.0915 4.01881 8.1651
131 2 12.6704 3.89393 4.57318
269 3 9.78013 6.2294 7.08125
267 3 10.6035 6.36774 4.46724
340 2 13.2914 3.53072 2.77266
157 2 4.90693 6.49204 8.52483
173 2 6.47323 5.80384 7.91522
337 2 11.7602 0.809232 2.11781
260 3 9.07009 3.05419 3.12852
261 3 11.2569 4.54312 2.57267
262 3 5.90597 5.47592 3.29294
348 2 9.45553 0.684546 1.28324
264 3 8.93324 5.1555 1.52253
168 2 9.08126 3.37213 7.96901
174 2 7.33973 4.10815 7.97482
132 2 12.6859 5.21573 5.90176
67 1 12.9054 4.99195 4.87066
82 1 6.78401 4.93118 8.52821
78 1 8.52141 0.380245 1.89554
115 2 9.37888 0.31154 3.65766
162 2 7.4739 0.841489 1.49324
142 2 7.46627 3.22659 0.229894
323 1 12.7052 4.57348 0.242939
76 1 4.42748 7.39521 7.97699
343 2 12.8701 5.67076 0.528422
71 1 5.50778 3.44044 17.6319
27 4 8.33895 0.913677 13.9894
29 4 6.76276 2.84214 11.9598
119 2 8.51298 5.37895 9.12143
47 4 9.94435 3.32327 15.0004
48 4 11.1656 2.68812 10.6211
55 4 10.9797 5.17965 12.7435
73 1 7.82799 4.3995 11.5342
79 1 8.96423 4.30986 16.4529
96 2 12.4601 4.64334 15.2453
81 1 10.9067 1.17382 11.7648
165 2 8.02232 4.1896 17.0986
105 2 7.09872 0.701477 15.1901
109 2 6.02832 6.03702 13.5296
116 2 10.2909 3.09137 16.7988
331 2 5.66746 6.44094 16.7269
121 2 6.81122 6.63778 9.50006
333 2 13.4361 1.9871 13.8236
147 2 7.38216 4.66535 10.4011
148 2 8.9206 4.29079 11.5924
149 2 7.49469 5.15029 12.3144
164 2 9.28949 5.36283 16.5084
265 3 10.9584 6.42744 9.52748
166 2 8.39147 4.21425 14.83
167 2 9.61679 1.98482 9.19099
80 1 9.58249 3.30854 9.01303
169 2 8.90268 3.82355 9.89933
171 2 9.98128 0.826172 11.0587
175 2 6.05954 4.56043 9.3765
172 2 10.5837 1.43908 12.8046
144 2 6.92152 2.43955 9.6986
229 3 7.65096 1.86776 12.9542
258 3 9.64912 1.71067 14.6949
259 3 12.5464 2.51429 9.82381
266 3 5.09224 7.20557 11.1337
270 3 11.3808 4.39 14.051
271 3 10.9166 4.08848 11.6093
274 3 9.71616 6.07461 12.8971
325 2 10.5971 4.99028 17.2683
332 2 7.58121 6.15353 16.5439
329 1 6.64849 6.90993 16.8478
56 4 9.14972 7.56149 12.3757
273 3 7.58868 7.50845 11.9633
8 4 13.799 2.52671 8.93832
170 2 11.7969 0.5563 11.6917
45 4 5.38325 13.5418 2.79485
57 4 9.82047 9.42639 1.15532
58 4 3.46877 11.6334 4.39982
59 4 6.82916 11.5162 1.21385
62 4 5.78466 11.3486 6.40885
126 2 2.92294 13.2328 8.68705
83 1 6.23848 8.42036 3.15116
84 1 9.65887 8.78522 5.57065
85 1 8.64372 9.08913 8.23766
87 1 7.05124 11.1669 4.81929
88 1 5.95785 13.0512 7.29673
110 2 3.51124 9.02409 7.40315
200 2 3.931 11.1879 0.468782
123 2 8.47576 11.9296 1.55404
163 2 1.52175 13.4721 2.23009
125 2 6.66641 10.2216 2.26462
5 3 6.79296 14.0052 3.71144
156 2 5.14082 8.22909 7.69766
176 2 5.93774 8.03622 2.15916
177 2 7.22595 8.96013 3.21254
178 2 5.30204 8.9109 3.69988
179 2 10.3272 9.01648 4.61353
180 2 10.1518 9.20518 6.58594
181 2 8.52528 9.03823 5.40024
182 2 9.4782 9.64525 7.68386
183 2 8.0064 8.38301 7.56139
187 2 6.75787 10.2402 4.1096
188 2 8.07429 11.0852 5.24897
189 2 6.8907 12.2176 4.41996
190 2 6.62655 13.0007 8.23738
191 2 4.9658 13.5165 7.51847
275 3 9.09268 7.99398 1.09543
277 3 3.36044 10.4883 3.31868
278 3 4.16208 13.0195 3.75592
350 2 6.5259 13.5652 6.31888
280 3 5.75024 12.6132 1.57888
285 3 4.22238 11.1884 5.77245
286 3 6.35395 10.3582 7.49707
349 2 8.43323 12.1523 3.69421
276 3 9.85947 10.2668 2.4107
279 3 1.87146 11.9139 4.95549
43 4 3.01893 10.0278 13.7208
44 4 1.45479 12.4038 12.6178
254 3 3.3555 8.47521 12.8508
330 2 6.65351 7.9157 16.191
60 4 7.16466 10.0325 8.97374
61 4 2.49493 12.0062 9.86993
63 4 8.54476 10.1363 14.4548
64 4 4.36995 12.0366 16.1278
65 4 8.29857 12.9069 13.0187
89 1 6.82382 9.57545 15.1006
90 1 4.76239 13.5745 15.0551
91 1 2.69023 12.1323 17.0393
92 1 4.27745 12.7387 9.99302
93 1 6.58006 13.2173 12.5259
288 3 4.20853 10.5778 14.8453
290 3 8.35831 11.5106 13.6999
327 2 3.39944 9.2263 16.8272
192 2 7.24705 9.68828 16.2679
193 2 6.80543 8.53608 14.6997
194 2 5.80865 10.0262 14.9945
195 2 4.76089 13.0243 14.0407
196 2 5.79182 13.8795 15.4617
197 2 4.09377 14.4636 15.0345
199 2 2.54711 13.2839 16.8789
326 1 3.6361 8.10491 16.7812
284 3 1.36767 12.6509 10.8884
202 2 4.6449 11.8645 10.7015
203 2 4.31273 13.7804 10.6312
204 2 5.97083 12.2954 12.8124
205 2 6.70202 13.4321 11.3911
206 2 6.46608 14.2097 13.2297
53 4 6.48731 7.72215 10.8146
255 3 2.33258 11.1523 12.9436
256 3 1.73462 13.7155 13.4709
272 3 10.0142 8.18073 11.1156
289 3 5.64556 11.754 17.4123
281 3 6.45275 9.24179 10.1268
282 3 7.93626 11.5468 9.56865
339 2 9.47394 10.5131 15.7879
287 3 9.19713 8.76593 13.7824
14 4 11.3602 7.7219 10.3519
184 2 9.03466 8.60892 9.16138
124 2 8.4092 11.0447 17.4859
198 2 1.83336 11.4554 16.617
283 3 2.36351 10.6007 9.20096
201 2 4.89724 12.8194 9.00559
316 4 9.18844 12.5728 9.74356
134 2 10.9465 8.55964 14.2537
347 2 4.73038 7.76629 16.9531
ITEM: TIMESTEP
100
ITEM: NUMBER OF ATOMS
350
ITEM: BOX BOUNDS xy xz yz pp pp pp
-7.9131060000000000e+00 1.5678200000000000e+01 -6.8987059999999998e+00
0.0000000000000000e+00 1.4894400000000001e+01 -1.0144000000000000e+00
0.0000000000000000e+00 1.7638300000000001e+01 6.7500000000000004e-01
ITEM: ATOMS id type x y z
234 3 6.12412 2.61956 6.6648
9 4 0.407322 2.25473 5.76803
13 4 -0.118107 4.66989 7.9502
15 4 -1.31499 7.16406 6.58933
23 4 3.21441 2.56298 4.00793
26 4 5.78569 1.54991 5.43591
30 4 4.77046 5.01897 2.48687
233 3 4.37906 2.87597 8.546
71 1 6.27671 2.74474 0.0692176
33 4 5.20927 3.62216 7.47056
139 2 3.45959 0.396151 3.03035
70 1 2.97843 1.29885 2.59974
74 1 0.831892 5.72477 4.02107
97 2 -2.48273 6.74462 5.40239
108 2 5.58401 3.75429 1.62682
304 3 -0.215617 1.41944 2.16826
140 2 3.44267 1.6395 1.61529
141 2 1.83932 1.22627 2.55045
150 2 1.54233 4.97676 4.65237
151 2 1.07893 5.86354 2.90799
152 2 -0.335594 5.51045 4.25047
346 2 6.157 2.2863 1.05547
207 3 -0.78809 2.18401 4.74035
208 3 0.456058 0.752278 6.50137
212 3 0.259347 3.5796 6.79125
213 3 -0.970272 5.79111 7.29222
224 3 1.89115 2.47704 4.92888
225 3 2.23418 1.1471 8.30514
226 3 4.50055 2.01851 4.65792
336 2 6.78551 0.828131 8.58028
230 3 3.63922 4.21067 3.30547
232 3 4.24639 5.9227 1.32288
302 2 0.911678 3.86389 2.26891
35 4 4.18012 6.4123 6.40354
303 2 1.53991 4.739 0.649675
237 3 2.61966 6.8187 5.92783
238 3 4.46111 4.91868 6.79326
342 2 -1.64609 5.23446 4.48536
314 3 -3.10842 7.10812 2.95803
299 4 0.392793 2.26208 0.678041
300 1 1.42451 3.76622 1.24555
301 2 2.44029 3.28561 1.44101
343 2 -2.77027 5.70109 0.726507
31 4 1.37346 7.29712 4.95434
6 4 1.3067 1.64834 16.2109
10 4 -0.503456 2.45383 13.567
12 4 -2.52652 5.02477 16.8018
297 2 3.29171 3.05333 12.1869
16 4 0.421715 5.38302 13.7659
106 2 3.99142 4.63944 17.5485
295 2 1.75717 1.96541 12.4051
28 4 3.98592 3.42968 16.0871
34 4 1.10725 6.83358 9.66502
291 4 4.13245 0.591865 12.8712
37 4 -0.0213308 6.82444 16.3021
66 1 -0.187913 1.94923 11.765
17 4 -1.07746 7.3206 11.8546
211 3 -1.00053 3.81785 9.0696
305 3 0.25203 2.07162 17.3459
98 2 2.08958 5.59881 13.1803
104 2 3.07797 2.04132 10.6839
38 4 3.63584 7.24636 11.8248
72 1 6.35071 1.61705 10.3195
128 2 0.261646 2.73938 10.9837
296 2 4.80894 0.846617 11.2846
130 2 0.356155 0.981916 11.8051
298 2 5.67945 1.4707 14.778
143 2 5.46142 2.21092 16.5623
145 2 5.4024 1.13163 9.86849
292 1 2.89832 2.09397 12.6916
209 3 0.477332 1.42174 14.5398
294 2 2.90876 2.20928 13.8329
242 3 0.933547 7.08224 17.5578
214 3 0.016377 3.91487 13.6644
25 4 2.96136 2.39436 9.00297
216 3 -0.571282 6.39423 13.1016
228 3 2.68536 2.58057 16.1498
236 3 -0.233711 6.87444 10.4933
239 3 4.45169 4.20921 14.7996
215 3 -2.77882 7.42528 11.5055
241 3 0.679808 5.82764 15.2738
243 3 -1.53633 6.32787 16.705
244 3 2.38572 7.04343 10.8361
245 3 3.62656 5.59877 12.7525
338 2 -3.5021 6.31087 12.4374
210 3 -1.81634 3.65392 17.3229
235 3 1.42242 5.31258 8.83592
107 2 1.9367 3.77786 9.0831
129 2 -1.25996 1.76179 11.4734
162 2 0.488517 14.2288 1.99409
19 4 -2.91062 9.50173 8.20185
20 4 -4.16083 11.9654 6.43186
24 4 -0.753229 13.7017 7.6253
39 4 2.43266 9.38057 2.52776
40 4 1.94002 9.42339 8.11947
42 4 0.808012 11.5077 6.06143
75 1 1.07262 10.1875 1.39548
315 3 -2.45911 9.46878 1.08153
99 2 -4.54511 12.7889 2.11516
100 2 -2.82983 12.9433 6.25521
111 2 -0.573196 11.0491 5.10422
153 2 0.194231 9.46597 1.38318
154 2 1.61665 10.4679 0.408677
155 2 0.849138 11.0788 2.0291
227 3 -1.63531 14.1296 6.31128
248 3 1.26837 8.16149 8.79015
218 3 -2.10826 8.33692 7.40849
219 3 -4.83922 11.6295 4.93126
220 3 -3.5613 10.7071 7.03261
221 3 -5.16359 12.5432 7.47818
309 2 -0.839214 8.63166 3.59164
246 3 1.67784 8.43917 3.7424
247 3 3.31213 8.48476 1.48931
253 3 0.48262 12.7287 7.05321
122 2 -4.07208 9.13417 0.87154
252 3 0.99262 10.1895 6.91965
86 1 -5.9851 13.0571 2.40309
186 2 -6.05148 13.7886 3.32818
306 4 -2.56732 8.59936 2.83998
307 4 -2.0532 10.5373 0.0135985
308 1 -1.70433 9.60928 4.30858
310 2 -1.66769 12.0617 0.61095
311 2 -1.53871 10.6726 3.87565
312 2 -1.42811 9.54835 5.40246
313 2 -3.46589 9.69639 3.97388
250 3 -1.64176 12.9572 8.64164
231 3 -0.0306799 7.56922 5.78294
185 2 -6.5503 13.4858 1.50226
32 4 3.5893 7.13994 0.635347
18 4 -5.57129 11.5131 3.49234
158 2 3.53038 7.5346 8.32151
7 4 -5.64755 14.3158 7.71504
322 2 -4.3973 13.1232 0.0234119
21 4 -2.65332 9.8445 14.3935
22 4 -3.66129 11.9691 12.1348
41 4 -1.66069 11.7703 9.7585
68 1 -3.65718 8.35444 14.5729
69 1 -0.330606 9.05125 12.1713
77 1 1.44773 9.33271 14.927
101 2 -0.919709 9.93179 14.6172
102 2 -2.88452 10.5259 15.9722
103 2 -5.25945 11.7058 11.7961
112 2 -0.142986 8.37379 15.6018
113 2 -0.0976158 11.9484 10.4229
114 2 -0.0169405 11.9578 13.0669
127 2 -6.91199 14.1258 14.0309
249 3 -1.78731 10.3525 8.98608
135 2 -3.55414 8.1817 15.7315
136 2 0.293312 9.10451 11.2319
137 2 0.35297 9.19661 13.2325
138 2 -1.21523 9.74452 12.0989
159 2 1.38402 8.26193 14.4544
160 2 0.394157 9.98455 14.9192
161 2 1.85383 9.26102 15.9642
341 2 -4.02227 14.0425 16.3135
293 1 -1.68106 14.7044 14.5496
222 3 -3.14797 10.8366 13.2732
223 3 -3.60783 13.5177 12.7023
133 2 -2.86548 7.6688 13.8443
251 3 -2.86348 11.8696 10.8426
217 3 -4.10033 8.93857 9.11981
344 2 -0.93429 14.0011 14.0383
318 3 -7.13339 14.0402 9.01225
319 3 -6.57052 12.7834 11.3117
320 1 -5.06444 14.1025 16.568
321 2 -5.72146 13.5932 15.7213
328 2 3.09113 7.84693 16.0494
334 2 -4.30188 12.3354 17.1678
317 2 -5.06011 12.0624 9.17653
345 2 -2.27981 14.2212 15.4701
335 2 -1.26048 11.2523 17.5788
1 4 14.4197 1.43485 3.38739
2 1 12.912 2.43188 2.70037
3 2 12.7617 2.22819 1.59541
4 2 11.9571 2.27151 3.35594
118 2 6.71729 6.53331 1.06231
11 4 11.6101 5.79597 3.66054
46 4 8.33308 1.48132 3.54255
49 4 9.88738 3.97882 2.01749
50 4 6.36116 6.94442 4.156
51 4 8.44536 6.58372 1.0325
52 4 10.0838 5.74604 8.48872
54 4 9.30466 6.98399 5.53717
257 3 7.06954 1.43737 4.44437
268 3 7.81864 6.85332 4.93232
324 2 12.8865 3.8572 1.28054
95 2 13.3034 2.27431 7.39332
263 3 5.23733 7.02871 5.3547
117 2 10.6118 3.24473 0.583757
120 2 11.0056 4.23473 7.99393
131 2 12.7872 3.80371 4.51017
269 3 9.63263 6.33414 7.10787
267 3 10.4397 6.34041 4.56975
340 2 13.4759 3.47807 2.89016
157 2 5.21808 6.72342 8.55884
173 2 6.60484 5.80543 7.7973
337 2 11.631 0.934147 2.17732
260 3 9.08158 2.77194 2.68642
261 3 11.1289 4.57189 2.77915
262 3 6.02855 5.72635 3.09089
348 2 9.26417 0.21071 1.62275
264 3 9.10419 5.23198 1.5805
168 2 9.20258 3.58609 8.04639
174 2 7.40812 3.97213 8.14881
132 2 12.6401 5.15694 5.8836
67 1 12.8857 4.92652 4.72938
82 1 6.79359 4.94584 8.50583
323 1 12.7855 4.63859 0.3506
115 2 9.54003 0.32066 4.08346
142 2 7.29174 3.25818 0.0347252
170 2 11.7171 0.609945 11.5329
27 4 8.28692 0.862691 13.967
29 4 6.86201 2.89154 11.8783
119 2 8.45276 5.49625 9.25065
47 4 9.7112 3.44713 15.0519
48 4 11.1515 2.86172 10.6104
55 4 10.9065 5.21678 12.8344
73 1 7.83273 4.5298 11.4228
79 1 8.93785 4.46071 16.5063
96 2 12.1964 4.83161 15.4302
81 1 10.844 1.32436 11.6269
165 2 8.18838 4.38781 17.3153
146 2 7.13093 0.84269 10.6987
109 2 6.09916 6.08886 13.7635
116 2 10.3862 3.34128 16.7241
331 2 5.55241 6.44546 17.1322
121 2 6.99039 6.59961 9.53616
333 2 13.4878 2.33744 13.8404
147 2 7.44115 4.66854 10.3705
148 2 8.93598 4.43068 11.5027
149 2 7.39723 5.3042 12.104
164 2 9.25775 5.54274 16.3663
265 3 11.1044 6.41118 9.40681
166 2 8.00661 4.27698 14.9339
167 2 9.61308 2.12539 9.1311
80 1 9.69197 3.35334 9.06133
169 2 8.9532 3.83705 9.91336
171 2 9.90815 0.901332 11.2194
175 2 6.01091 4.85555 9.31627
172 2 10.7081 1.67815 12.6831
144 2 6.79747 2.4575 9.58738
229 3 7.62407 1.85415 12.9295
258 3 9.33073 1.78648 14.7007
259 3 12.5571 2.59584 9.92851
266 3 5.01573 7.31744 11.1548
270 3 11.1481 4.60699 14.2202
271 3 10.8891 4.11622 11.7055
274 3 9.60311 6.08771 12.8117
325 2 10.7155 5.09793 17.3515
332 2 7.34509 5.97658 16.7509
329 1 6.56064 6.86882 16.9924
240 3 5.55792 3.72075 12.4755
94 2 14.6971 1.18303 9.16403
8 4 13.7565 2.57613 8.95956
36 4 4.92573 4.94803 13.377
45 4 5.32116 13.6154 2.8119
57 4 9.96306 9.22654 1.30647
58 4 3.41504 11.5934 4.48539
59 4 6.71557 11.6344 1.04997
62 4 5.84835 11.3006 6.45028
126 2 2.84797 12.9922 8.50926
83 1 6.45457 8.69467 3.16609
84 1 9.87327 8.77635 5.65581
85 1 8.59397 8.80786 8.3182
87 1 7.16388 11.3258 4.91305
88 1 5.97858 13.0354 7.28397
76 1 4.58744 7.47246 7.96873
200 2 4.05597 11.6475 0.508424
123 2 8.31822 11.9463 1.52057
163 2 1.84916 13.2457 2.88026
125 2 6.50551 10.1593 1.82238
5 3 6.68395 14.0285 3.66871
156 2 5.16139 8.44505 7.78229
176 2 6.02369 8.50769 2.10493
177 2 7.4188 9.2254 3.13489
178 2 5.67766 9.15349 3.92353
179 2 10.5406 8.79612 4.72385
180 2 10.3857 9.06489 6.63124
181 2 8.89721 9.37602 5.55456
182 2 9.58985 9.34849 7.94673
183 2 8.18431 8.17909 7.56406
187 2 6.87145 10.2844 4.343
188 2 8.16669 11.2807 5.44647
189 2 6.95909 12.3043 4.3807
190 2 6.37698 12.9311 8.32031
191 2 4.89842 13.4419 7.16694
275 3 9.20079 7.92409 1.16825
277 3 3.38616 10.487 3.31981
278 3 4.11359 13.0233 3.69978
350 2 6.72279 13.4556 6.56166
280 3 5.81975 12.7403 1.57988
285 3 4.3374 11.1018 5.68969
286 3 6.17814 10.2115 7.58773
349 2 8.42511 12.1363 3.56988
276 3 9.96454 10.0572 2.63896
279 3 1.89332 11.9991 5.00677
110 2 3.43272 8.99022 7.38829
78 1 1.60172 14.1692 2.38383
124 2 9.56953 10.2888 0.0112309
43 4 2.89067 9.85606 13.7537
44 4 1.56394 12.353 12.7062
254 3 3.41284 8.51003 12.8921
330 2 6.6138 7.80155 16.2489
60 4 7.25642 10.0884 8.97422
61 4 2.50888 11.8898 9.82341
63 4 8.49557 9.98929 14.5931
64 4 4.3548 12.0104 16.024
65 4 8.2712 12.8436 12.9555
89 1 6.77562 9.41559 15.0544
90 1 4.81094 13.7103 15.2566
91 1 2.71762 12.3251 17.0615
92 1 4.17905 12.8247 9.93206
93 1 6.55598 13.3364 12.5177
288 3 3.98981 10.493 14.9152
290 3 8.43457 11.4563 13.7647
327 2 3.83744 9.41528 16.7478
192 2 7.02221 9.49918 16.267
193 2 6.75438 8.33135 14.5801
194 2 5.80059 9.93707 14.8179
195 2 3.90723 13.8881 14.615
196 2 5.721 13.3464 14.6581
197 2 4.96444 14.5899 15.9466
199 2 2.33013 13.3237 16.7286
326 1 3.74773 8.3256 16.876
284 3 1.41207 12.5407 10.8047
202 2 4.59966 12.0816 10.787
203 2 4.01371 13.8558 10.4935
204 2 6.04329 12.4331 13.1489
205 2 6.41018 13.2585 11.362
206 2 6.48912 14.3547 12.9912
53 4 6.50592 7.77312 10.7431
255 3 2.50763 11.1881 13.0471
256 3 1.95473 13.7921 13.1984
272 3 10.2851 8.12127 11.226
289 3 5.58089 11.8638 17.1746
281 3 6.5178 9.26152 10.0641
282 3 8.05424 11.418 9.39509
339 2 9.48757 10.212 15.9442
287 3 9.2032 8.8169 13.7118
14 4 11.4824 7.72624 10.2749
184 2 8.69193 8.28224 9.32458
105 2 0.187136 14.6062 15.1002
198 2 1.96239 11.498 16.808
56 4 9.16054 7.60849 12.3427
201 2 4.84022 12.9333 9.01859
316 4 9.05944 12.5654 9.74729
134 2 10.9738 8.45211 14.2027
273 3 7.59502 7.584 11.8819
347 2 4.81264 7.87131 16.7916
283 3 2.40716 10.4968 9.15721
ITEM: TIMESTEP
200
ITEM: NUMBER OF ATOMS
350
ITEM: BOX BOUNDS xy xz yz pp pp pp
-7.9131060000000000e+00 1.5678200000000000e+01 -6.8987059999999998e+00
0.0000000000000000e+00 1.4894400000000001e+01 -1.0144000000000000e+00
0.0000000000000000e+00 1.7638300000000001e+01 6.7500000000000004e-01
ITEM: ATOMS id type x y z
32 4 3.49289 7.0222 0.687588
9 4 0.568673 2.16531 5.60533
13 4 -0.162296 4.7597 7.90086
15 4 -1.20722 7.22361 6.55941
23 4 3.3172 2.52931 3.94756
26 4 5.90181 1.64404 5.49851
30 4 4.8711 4.95256 2.56062
233 3 4.45618 2.81765 8.68245
31 4 1.42365 7.17675 4.90907
33 4 5.35349 3.55216 7.59622
139 2 3.99429 0.432891 2.80431
70 1 3.1815 1.20739 2.5368
74 1 0.799963 5.52264 4.15587
97 2 -2.25214 6.85111 5.25581
108 2 5.68508 3.64911 1.75363
304 3 -0.439796 1.43285 1.94746
140 2 3.42366 1.84013 1.59836
141 2 2.148 0.860242 2.62991
150 2 1.72792 4.90727 4.34821
151 2 0.657803 5.67067 3.04988
152 2 -0.115214 5.08629 4.68594
346 2 6.44391 2.44366 1.05787
207 3 -0.718456 2.25018 4.43558
208 3 0.580082 0.764903 6.35201
212 3 0.476668 3.41427 6.70529
213 3 -1.17503 5.76962 7.23606
224 3 1.93405 2.40779 4.69287
225 3 2.20902 1.41141 8.41615
226 3 4.62506 2.0886 4.73343
336 2 6.76045 0.974452 8.37549
230 3 3.7213 4.16498 3.31455
232 3 4.24917 5.86067 1.45817
302 2 1.23849 3.67985 2.5449
35 4 4.25254 6.44324 6.35537
303 2 1.11159 4.70544 1.11979
237 3 2.63286 6.7565 5.91933
238 3 4.61685 4.77012 6.81119
342 2 -1.68241 5.27899 4.67355
314 3 -3.10721 7.14691 3.02426
299 4 0.261565 2.32369 0.70894
300 1 1.32549 3.70292 1.45386
301 2 2.36333 3.41966 1.13993
235 3 1.36911 5.41894 8.80689
343 2 -2.81122 5.8052 0.573949
234 3 6.30012 2.58285 6.76713
71 1 6.27058 2.85091 0.032909
6 4 1.24436 1.45309 16.2005
10 4 -0.542929 2.45068 13.5233
12 4 -2.53567 5.06498 16.8129
297 2 3.40585 3.05891 12.2454
16 4 0.374279 5.5673 13.7607
106 2 3.90629 4.57267 17.5727
295 2 1.71205 2.06067 12.3576
28 4 3.96289 3.41872 16.0863
34 4 1.24912 6.87514 9.62128
291 4 4.03812 0.660855 12.6187
37 4 -0.0374852 6.86682 16.3357
66 1 -0.294628 1.84788 11.7739
17 4 -1.02109 7.43027 11.712
211 3 -0.827506 3.80904 9.07681
305 3 0.357119 2.03864 17.3768
98 2 1.80376 5.71505 12.9596
104 2 2.83299 2.39953 10.704
38 4 3.60409 7.19384 11.9581
72 1 6.52724 1.47265 10.2663
128 2 0.0117269 2.84935 11.1417
296 2 4.91213 0.680203 11.0558
130 2 0.599359 1.03451 11.7488
298 2 5.73716 1.50003 14.0892
143 2 5.40149 2.16931 16.6486
145 2 5.6322 1.0783 9.72609
292 1 2.80384 2.1741 12.6616
209 3 0.346766 1.38602 14.5115
294 2 2.8493 2.31173 13.8464
242 3 0.831763 7.0678 17.6288
214 3 -0.011228 3.94932 13.6005
25 4 3.00928 2.52734 9.01268
216 3 -0.682215 6.5558 13.1248
228 3 2.63877 2.44378 16.1125
236 3 -0.179292 6.83869 10.4554
239 3 4.4487 4.19716 14.8464
215 3 -2.96777 7.47831 11.2429
241 3 0.675419 5.90074 15.274
243 3 -1.56263 6.33831 16.635
244 3 2.42518 7.07623 10.6889
245 3 3.54246 5.53719 12.7513
345 2 4.33269 0.595229 15.046
210 3 -1.8529 3.7522 17.3714
338 2 -3.5683 6.37478 12.2891
36 4 4.80015 4.86188 13.4584
240 3 5.41134 3.5803 12.3321
328 2 3.31706 7.70824 16.0439
107 2 2.18481 3.98201 8.84198
162 2 0.762074 14.25 1.85206
19 4 -2.76895 9.51602 8.11217
20 4 -4.12089 12.0278 6.4145
24 4 -0.723034 13.7513 7.55996
39 4 2.47546 9.32707 2.5564
40 4 1.93545 9.40792 8.02341
42 4 0.776092 11.5559 6.07706
75 1 1.22366 10.2215 1.41278
315 3 -2.6371 9.85621 1.35698
99 2 -4.35831 12.589 2.23466
100 2 -2.83424 13.0177 6.2482
111 2 -0.589304 11.135 5.05799
153 2 0.245654 9.99484 1.94016
154 2 1.29494 9.65727 0.413022
155 2 1.53859 11.3675 1.41189
227 3 -1.52582 14.1247 6.20237
248 3 1.14286 8.12616 8.6979
218 3 -1.97229 8.33676 7.34561
219 3 -4.86141 11.7118 4.9931
220 3 -3.52114 10.5986 6.90472
221 3 -5.0202 12.7866 7.54022
309 2 -0.902138 8.68333 3.51897
246 3 1.76946 8.19738 3.70505
247 3 3.33528 8.40718 1.47177
253 3 0.529636 12.7987 7.03406
122 2 -4.07718 9.06924 0.80201
252 3 1.14993 10.2166 6.98551
86 1 -5.79602 12.9436 2.29282
186 2 -5.96868 13.8379 2.93548
306 4 -2.60229 8.66667 2.88914
307 4 -2.02157 10.7508 0.250612
308 1 -1.80783 9.74729 4.36693
310 2 -1.77125 12.3461 0.795681
311 2 -1.59578 10.7729 3.99413
312 2 -1.59297 9.62909 5.46066
313 2 -3.46672 9.53627 4.3719
250 3 -1.50459 13.0148 8.6886
231 3 0.148096 7.67146 5.84072
185 2 -6.2152 13.1718 1.28916
322 2 -4.60791 13.148 0.113376
18 4 -5.51067 11.4466 3.57359
158 2 3.58084 7.55665 8.40805
7 4 -5.68735 14.4359 7.7834
335 2 -0.308206 10.4407 0.220331
279 3 1.9156 11.7848 5.07312
163 2 1.03699 13.0147 3.35505
21 4 -2.74997 10.0087 14.4222
22 4 -3.62736 11.9921 12.1229
41 4 -1.71952 11.7804 9.70691
68 1 -3.77875 8.51892 14.6325
69 1 -0.399884 9.13566 12.0049
77 1 1.33573 9.35266 14.7957
101 2 -1.08963 9.89261 14.644
102 2 -2.89092 10.7197 16.1652
103 2 -5.19964 11.4614 11.7097
112 2 -0.222112 8.37875 15.5337
113 2 -0.219392 11.6841 10.5622
114 2 0.0818962 12.5308 13.5843
127 2 -6.69313 14.112 13.8607
249 3 -1.72834 10.331 9.07154
135 2 -3.72393 8.26071 15.7673
136 2 0.348725 9.24709 11.1241
137 2 0.166795 9.24194 13.1044
138 2 -1.38495 9.78658 11.8916
159 2 1.26599 8.25723 14.4701
160 2 0.23001 9.8803 14.8871
161 2 1.95811 9.53155 15.8223
341 2 -4.09587 14.0308 16.783
293 1 -1.79454 14.7307 14.2776
222 3 -3.1795 10.9443 13.2745
223 3 -3.75525 13.5768 12.6057
105 2 0.142182 14.5846 14.7751
251 3 -2.76043 11.9789 10.8062
217 3 -3.84151 8.95017 9.09999
344 2 -1.31467 13.6801 14.2523
318 3 -7.03218 14.1241 9.16534
133 2 -3.02384 7.78881 13.9575
320 1 -5.15032 13.9459 16.7383
321 2 -5.63994 13.3716 15.8046
284 3 1.30139 12.346 10.8325
334 2 -4.26138 12.1456 16.9781
317 2 -5.17594 12.0628 9.09616
283 3 2.39268 10.409 9.14827
1 4 14.3844 1.4284 3.23079
2 1 12.8127 2.42516 2.65513
3 2 12.3377 2.2401 1.63087
4 2 12.096 2.22974 3.51448
118 2 6.67198 6.64807 1.22784
11 4 11.7207 5.61921 3.71484
46 4 8.33908 1.44393 3.49863
49 4 9.80814 3.81001 2.13068
50 4 6.36319 7.0223 4.25321
51 4 8.41568 6.48684 1.20265
52 4 10.1173 5.61271 8.46487
54 4 9.40013 7.03042 5.6183
257 3 7.08174 1.54395 4.49027
268 3 7.86943 6.97767 4.94883
324 2 12.8632 3.86667 1.20557
95 2 13.3663 2.43918 7.32278
263 3 5.20893 7.20502 5.31671
117 2 10.4045 3.11434 0.687855
120 2 11.1431 4.15604 8.20688
131 2 12.7987 3.82525 4.95364
269 3 9.69989 6.26067 7.13144
267 3 10.6116 6.26505 4.62855
340 2 13.3136 3.52527 2.7241
157 2 5.14628 6.69216 8.53987
173 2 7.01832 5.5368 7.49881
337 2 11.5708 0.926735 2.43448
260 3 9.10048 2.60777 2.78592
261 3 11.1057 4.3913 2.82723
262 3 5.97852 5.75703 3.30853
115 2 9.50024 0.37943 4.14637
264 3 8.8966 5.07123 1.60935
168 2 9.17865 3.4767 8.04471
174 2 7.42839 3.92873 8.45838
132 2 12.6518 5.24033 6.06702
67 1 12.9568 4.93782 4.99132
82 1 6.91808 4.936 8.45478
323 1 12.6555 4.6334 0.310678
170 2 11.8778 0.72572 11.2604
27 4 8.40631 0.968894 13.8681
29 4 6.70959 2.82571 11.804
119 2 8.58848 5.33426 9.30078
47 4 9.72022 3.51976 15.0732
48 4 11.1399 2.89378 10.5944
55 4 10.8714 5.27759 12.7809
73 1 7.81751 4.38794 11.4395
79 1 8.87394 4.48228 16.5558
96 2 12.2992 4.76518 15.2787
81 1 10.8692 1.23879 11.5696
165 2 8.02164 4.25003 17.3315
146 2 7.3104 0.701334 10.5548
109 2 5.98678 6.03623 13.6996
116 2 10.3195 3.4862 16.7962
331 2 5.52405 6.57266 17.1961
121 2 6.79356 6.65196 9.35313
333 2 13.4031 2.35936 13.8383
147 2 7.45691 4.6943 10.3577
148 2 8.95643 4.18323 11.507
149 2 7.45527 5.11365 12.2514
164 2 9.19022 5.57479 16.5963
265 3 11.0493 6.50864 9.36844
166 2 8.07219 4.37309 14.9413
167 2 9.63471 2.00143 9.13134
80 1 9.68636 3.25151 9.01309
169 2 8.92155 3.7523 9.9149
171 2 9.92768 0.701444 11.1634
175 2 6.01603 5.03924 9.1949
172 2 10.7738 1.64926 12.6649
144 2 7.06832 2.44231 9.64876
229 3 7.62672 1.93856 12.7785
258 3 9.25307 2.0444 14.743
259 3 12.5521 2.7341 9.81565
266 3 5.09291 7.28847 11.3273
270 3 11.2393 4.51526 14.123
271 3 10.8112 4.11833 11.6483
274 3 9.58881 6.15166 12.9728
325 2 10.6005 5.07644 17.4305
332 2 7.37525 6.11139 16.7922
329 1 6.57831 6.96826 17.1283
8 4 13.7883 2.6937 8.87741
94 2 14.6722 1.2432 9.14786
273 3 7.6685 7.44604 11.7321
142 2 6.11422 4.21864 17.3655
129 2 14.2991 1.43526 11.6331
45 4 5.38895 13.593 2.90588
57 4 10.0537 9.21837 1.48951
58 4 3.38584 11.6344 4.46707
59 4 6.65299 11.6575 1.08438
62 4 5.74484 11.3466 6.48584
126 2 2.62054 13.0379 8.51398
83 1 6.40332 8.75985 3.29673
84 1 9.73744 8.84406 5.78403
85 1 8.68813 8.75878 8.37853
87 1 7.14852 11.2793 5.16151
88 1 5.92676 13.1694 7.20305
76 1 4.64494 7.48799 7.91633
200 2 3.53046 11.7552 0.29364