ITEM: TIMESTEP
0
ITEM: NUMBER OF ATOMS
350
ITEM: BOX BOUNDS xy xz yz pp pp pp
-8.0552999999999990e+00 1.5678200000000000e+01 -7.0408999999999997e+00
0.0000000000000000e+00 1.5043344000000001e+01 -1.0144000000000000e+00
0.0000000000000000e+00 1.7638300000000001e+01 6.8175000000000008e-01
ITEM: ATOMS id type x y z
234 3 5.97022 2.82233 6.64402
9 4 0.406459 2.44937 5.7704
13 4 -0.241442 4.74402 8.07683
15 4 -1.45461 7.33971 6.60457
23 4 3.22897 2.82514 4.06281
26 4 5.73825 1.61367 5.56051
30 4 4.77099 4.87789 2.40726
233 3 4.23853 3.03799 8.57089
32 4 3.35152 7.07148 0.587357
33 4 5.05763 3.80907 7.44164
139 2 3.21895 0.667346 3.11183
70 1 2.77457 1.61317 2.6551
74 1 0.669321 5.83203 3.83989
97 2 -2.59919 6.94039 5.35766
108 2 5.62526 3.60281 1.5078
304 3 -0.171282 1.58966 2.24083
140 2 3.35709 1.8374 1.68687
141 2 1.65946 1.48439 2.4861
150 2 1.42869 5.1635 4.33674
151 2 0.994089 6.13607 2.81849
152 2 -0.469116 5.50529 3.88783
346 2 6.18084 2.04995 0.8084
207 3 -1.05081 2.37337 4.78016
208 3 0.470445 0.883859 6.42086
212 3 0.151477 3.57928 6.90652
213 3 -1.08733 6.03064 7.3899
224 3 1.74608 2.81843 4.93459
225 3 2.35635 1.14325 8.29995
226 3 4.41007 1.99342 4.74633
336 2 6.50451 0.891704 8.50793
230 3 3.56038 4.26226 3.28687
232 3 4.19762 5.87889 1.32967
302 2 1.43484 3.8642 2.11939
35 4 3.9256 6.67522 6.26779
303 2 1.66157 4.82023 0.542742
237 3 2.52482 7.13687 5.74546
238 3 4.20729 5.01189 6.641
342 2 -1.72737 5.38828 4.53732
314 3 -3.15787 7.13987 3.02083
299 4 0.366006 2.35905 0.591672
300 1 1.58979 3.73073 1.01192
301 2 2.55881 3.09469 0.666843
6 4 1.44253 1.49909 16.1694
10 4 -0.563007 2.33849 13.5973
12 4 -2.52935 5.11064 16.7722
297 2 3.70126 2.86839 12.2782
16 4 0.257363 5.46103 13.8306
106 2 3.98448 4.67746 17.5365
295 2 1.93036 1.95568 12.1772
28 4 4.00802 3.57152 16.1526
34 4 1.25344 6.8387 9.66973
36 4 4.73707 4.98307 13.3957
37 4 -0.0752217 7.01227 16.2668
66 1 -0.0780193 1.77555 11.866
17 4 -1.03693 7.33482 11.6015
211 3 -1.08098 3.84939 9.17422
305 3 0.328399 1.9435 17.3931
98 2 1.87183 5.40085 13.1774
104 2 3.14469 1.9324 10.7296
38 4 3.54702 7.30738 11.8387
72 1 6.32689 1.64701 10.4032
128 2 0.258741 2.76929 11.4025
129 2 -1.08917 1.43863 11.5294
130 2 0.75291 0.982638 11.7287
298 2 5.74896 1.66421 14.5678
143 2 5.71519 2.63455 16.524
145 2 5.26424 1.54401 10.1486
292 1 3.05309 2.04874 12.6998
209 3 0.345085 1.45401 14.5549
294 2 2.9953 2.21919 13.8564
240 3 5.31815 3.85708 12.4737
214 3 -0.194609 3.9243 13.7486
25 4 2.98694 2.35009 9.06903
216 3 -0.482227 6.55053 13.0263
228 3 2.7551 2.4574 16.1304
236 3 -0.213723 6.80342 10.3845
239 3 4.38549 4.3261 14.801
215 3 -2.95676 7.4751 11.4167
241 3 0.715343 5.97331 15.2947
243 3 -1.6393 6.5259 16.6994
244 3 2.42122 7.0501 10.7246
245 3 3.47844 5.74002 12.8357
338 2 -3.4054 6.2458 12.2299
210 3 -1.84567 3.79384 17.4378
293 1 5.20624 0.611854 14.6268
107 2 1.79195 3.53955 9.22042
242 3 0.77075 7.27812 17.6042
146 2 6.89171 0.671237 10.5017
235 3 1.26655 5.29511 8.92483
328 2 3.02262 7.60356 15.9523
296 2 5.52693 0.466103 11.8332
94 2 -0.912407 1.24671 9.18878
335 2 -0.325089 10.5303 0.18478
19 4 -2.94759 9.50735 8.27173
20 4 -4.27033 11.9585 6.38447
24 4 -0.98465 13.8243 7.62472
39 4 2.31803 9.38843 2.66208
40 4 1.92916 9.58627 8.1867
42 4 0.697652 11.6757 6.10779
75 1 0.811119 10.34 1.83197
315 3 -2.64962 9.35701 0.971963
99 2 -4.81917 13.1902 2.42176
100 2 -2.91031 12.9071 6.21722
111 2 -0.705927 11.1017 5.21627
153 2 0.111754 9.4406 1.58008
154 2 1.33039 10.7464 0.90714
155 2 0.498419 11.1333 2.63024
227 3 -1.77114 14.2289 6.22464
248 3 1.28421 8.1949 8.62838
218 3 -2.22615 8.395 7.3551
219 3 -4.97594 11.715 4.90778
220 3 -3.81182 10.665 7.05709
221 3 -5.22128 12.873 7.2654
309 2 -0.713467 8.6727 3.40564
246 3 1.48581 8.47266 3.80842
247 3 3.03717 8.52288 1.46229
253 3 0.325908 12.9032 7.10634
122 2 -4.24828 9.35643 0.936078
252 3 1.18241 10.3862 7.05376
86 1 -6.07027 13.2369 2.53557
186 2 -6.35769 13.8863 3.4068
306 4 -2.51144 8.59974 2.80841
307 4 -2.08131 10.5282 0.117543
308 1 -1.7146 9.9087 4.01813
310 2 -1.69093 12.033 0.887603
311 2 -1.46595 10.8924 3.56615
312 2 -1.74047 9.77568 5.13265
313 2 -3.50332 9.76984 3.87349
250 3 -1.91621 12.986 8.63517
231 3 -0.260899 7.8801 5.7385
185 2 -6.52288 13.7282 1.65149
31 4 1.08439 7.42417 4.95421
18 4 -5.76785 11.5056 3.51422
158 2 3.50315 7.85889 8.68205
7 4 -5.81122 14.5463 7.66084
21 4 -2.63304 9.98648 14.3972
22 4 -3.78273 11.9671 12.2317
41 4 -1.87689 11.8152 9.81657
68 1 -3.70811 8.45628 14.5785
69 1 -0.424785 9.11715 11.7373
77 1 1.44105 9.48521 14.7094
101 2 -0.930228 10.0586 14.3762
102 2 -2.87259 10.6185 16.057
103 2 -5.40904 11.7246 11.738
112 2 -0.182749 8.47053 15.4054
113 2 -0.329632 12.0878 10.4173
114 2 -0.164758 12.0377 13.0967
127 2 -6.74026 14.2267 14.1063
249 3 -1.68649 10.3072 9.17269
135 2 -3.50604 8.30023 15.6946
136 2 -0.0889981 9.39902 10.6606
137 2 0.390968 9.26208 12.4926
138 2 -1.31614 9.7107 12.0145
159 2 1.49022 8.37282 14.4528
160 2 0.405344 10.1429 14.3854
161 2 1.76507 9.83172 15.8292
341 2 -3.87471 14.494 17.2221
133 2 -2.95955 7.83496 13.8484
222 3 -3.25436 10.9255 13.2741
223 3 -3.74966 13.5135 12.9457
322 2 -5.78228 13.813 17.349
251 3 -2.86869 11.9934 10.9885
217 3 -4.0053 9.11096 9.38457
344 2 -1.27391 13.9787 14.5891
318 3 -7.08858 14.204 9.07831
319 3 -6.36637 12.8689 11.328
320 1 -4.84913 14.2046 16.6902
321 2 -4.85609 13.7208 15.6143
291 4 -2.87369 14.8516 12.9668
334 2 -4.35363 12.3338 17.0906
317 2 -5.18911 12.1158 8.98162
345 2 -2.37838 14.8927 15.5424
1 4 14.4152 1.4596 3.4464
2 1 12.9143 2.39368 2.62466
3 2 13.0726 1.97495 1.52428
4 2 11.8924 2.29608 3.04068
118 2 6.68976 6.54307 0.927022
11 4 11.6656 5.85288 3.52945
46 4 8.30959 1.6206 3.37317
49 4 9.81733 3.99746 2.06559
50 4 6.24898 6.87119 4.25951
51 4 8.43055 6.57505 0.949412
52 4 10.0882 5.63125 8.46658
54 4 9.38876 7.0165 5.46418
257 3 7.09638 1.55548 4.45428
268 3 7.84636 6.89019 4.92629
324 2 12.8191 3.86476 1.21582
95 2 13.3918 2.26163 7.30632
263 3 5.13495 7.16901 5.37359
117 2 10.0875 3.02969 0.683675
120 2 11.0545 4.059 8.1651
131 2 12.6332 3.93287 4.57318
269 3 9.72055 6.2917 7.08125
267 3 10.5416 6.43142 4.46724
340 2 13.2572 3.56602 2.77266
157 2 4.84527 6.55696 8.52483
173 2 6.41822 5.86188 7.91522
337 2 11.7529 0.817324 2.11781
260 3 9.04074 3.08473 3.12852
261 3 11.2125 4.58855 2.57267
262 3 5.85247 5.53068 3.29294
348 2 9.44918 0.691391 1.28324
264 3 8.88227 5.20705 1.52253
168 2 9.05059 3.40585 7.96901
174 2 7.3017 4.14923 7.97482
132 2 12.636 5.26789 5.90176
67 1 12.8573 5.04187 4.87066
82 1 6.73796 4.98049 8.52821
78 1 8.51833 0.384048 1.89554
115 2 9.37717 0.314655 3.65766
162 2 7.46606 0.849904 1.49324
142 2 7.4341 3.25886 0.229894
323 1 12.6596 4.61922 0.242939
76 1 4.35658 7.46916 7.97699
343 2 12.8136 5.72747 0.528422
71 1 5.48012 3.47484 17.6319
27 4 8.33517 0.922814 13.9894
29 4 6.73892 2.87056 11.9598
119 2 8.46269 5.43274 9.12143
47 4 9.91686 3.35651 15.0004
48 4 11.1428 2.715 10.6211
55 4 10.9327 5.23144 12.7435
73 1 7.78841 4.44349 11.5342
79 1 8.92743 4.35296 16.4529
96 2 12.4195 4.68978 15.2453
81 1 10.8995 1.18556 11.7648
165 2 7.98697 4.23149 17.0986
105 2 7.09752 0.708492 15.1901
109 2 5.97312 6.09739 13.5296
116 2 10.2664 3.12229 16.7988
331 2 5.60945 6.50535 16.7269
121 2 6.74847 6.70416 9.50006
333 2 13.4215 2.00697 13.8236
147 2 7.33948 4.712 10.4011
148 2 8.88213 4.3337 11.5924
149 2 7.4479 5.20179 12.3144
164 2 9.24218 5.41646 16.5084
265 3 10.8977 6.49171 9.52748
166 2 8.355 4.25639 14.83
167 2 9.60046 2.00467 9.19099
80 1 9.55286 3.34162 9.01303
169 2 8.86823 3.86178 9.89933
171 2 9.97725 0.834434 11.0587
175 2 6.01752 4.60604 9.3765
172 2 10.5742 1.45347 12.8046
144 2 6.90084 2.46394 9.6986
229 3 7.63724 1.88644 12.9542
258 3 9.63764 1.72778 14.6949
259 3 12.525 2.53943 9.82381
266 3 5.02445 7.27762 11.1337
270 3 11.3423 4.4339 14.051
271 3 10.8801 4.12936 11.6093
274 3 9.66035 6.13536 12.8971
325 2 10.5538 5.04018 17.2683
332 2 7.526 6.21507 16.5439
329 1 6.58584 6.97903 16.8478
56 4 9.07884 7.63711 12.3757
273 3 7.51817 7.58354 11.9633
8 4 13.7772 2.55198 8.93832
170 2 11.7958 0.561863 11.6917
45 4 5.2489 13.6773 2.79485
57 4 9.72664 9.52065 1.15532
58 4 3.35412 11.7497 4.39982
59 4 6.71447 11.6314 1.21385
62 4 5.67363 11.4621 6.40885
126 2 2.79394 13.3651 8.68705
83 1 6.15549 8.50456 3.15116
84 1 9.57315 8.87307 5.57065
85 1 8.55598 9.18002 8.23766
87 1 6.94142 11.2786 4.81929
88 1 5.83013 13.1817 7.29673
110 2 3.42384 9.11434 7.40315
200 2 3.8193 11.2998 0.468782
123 2 8.35706 12.0489 1.55404
163 2 1.38788 13.6068 2.23009
125 2 6.56506 10.3238 2.26462
5 3 6.65432 14.1453 3.71144
156 2 5.06148 8.31138 7.69766
176 2 5.8582 8.11658 2.15916
177 2 7.13758 9.04973 3.21254
178 2 5.21435 9.00001 3.69988
179 2 10.2388 9.10664 4.61353
180 2 10.0622 9.29723 6.58594
181 2 8.43696 9.12861 5.40024
182 2 9.38469 9.74171 7.68386
183 2 7.92546 8.46684 7.56139
187 2 6.65704 10.3426 4.1096
188 2 7.96545 11.1961 5.24897
189 2 6.77021 12.3398 4.41996
190 2 6.49969 13.1307 8.23738
191 2 4.83352 13.6516 7.51847
275 3 9.01316 8.07392 1.09543
277 3 3.25683 10.5931 3.31868
278 3 4.03333 13.1497 3.75592
350 2 6.39267 13.7009 6.31888
280 3 5.62471 12.7393 1.57888
285 3 4.1127 11.3003 5.77245
286 3 6.25324 10.4618 7.49707
349 2 8.31312 12.2738 3.69421
276 3 9.75772 10.3695 2.4107
279 3 1.75422 12.033 4.95549
43 4 2.92391 10.1281 13.7208
44 4 1.33558 12.5279 12.6178
254 3 3.27566 8.55996 12.8508
330 2 6.58055 7.99486 16.191
60 4 7.06776 10.1329 8.97374
61 4 2.37864 12.1263 9.86993
63 4 8.44893 10.2377 14.4548
64 4 4.25576 12.1569 16.1278
65 4 8.17448 13.0359 13.0187
89 1 6.73384 9.67121 15.1006
90 1 4.63241 13.7103 15.0551
91 1 2.57542 12.2536 17.0393
92 1 4.15389 12.8661 9.99302
93 1 6.45268 13.3495 12.5259
288 3 4.10844 10.6835 14.8453
290 3 8.24845 11.6257 13.6999
327 2 3.31361 9.31856 16.8272
192 2 7.1564 9.78517 16.2679
193 2 6.72569 8.62144 14.6997
194 2 5.71413 10.1264 14.9945
195 2 4.63602 13.1546 14.0407
196 2 5.65895 14.0183 15.4617
197 2 3.95489 14.6082 15.0345
199 2 2.42073 13.4167 16.8789
326 1 3.56148 8.18596 16.7812
284 3 1.24533 12.7774 10.8884
202 2 4.53035 11.9832 10.7015
203 2 4.179 13.9182 10.6312
204 2 5.85278 12.4183 12.8124
205 2 6.57206 13.5664 11.3911
206 2 6.32904 14.3518 13.2297
53 4 6.41423 7.79938 10.8146
255 3 2.22601 11.2639 12.9436
256 3 1.60262 13.8526 13.4709
272 3 9.93662 8.26253 11.1156
289 3 5.53468 11.8716 17.4123
281 3 6.3642 9.33421 10.1268
282 3 7.82445 11.6623 9.56865
339 2 9.37486 10.6182 15.7879
287 3 9.11474 8.85359 13.7824
14 4 11.2869 7.79912 10.3519
184 2 8.95208 8.69501 9.16138
124 2 8.30544 11.1552 17.4859
198 2 1.72517 11.5699 16.617
283 3 2.26103 10.7067 9.20096
201 2 4.77249 12.9476 9.00559
316 4 9.06644 12.6986 9.74356
134 2 10.8664 8.64523 14.2537
347 2 4.65921 7.84395 16.9531
ITEM: TIMESTEP
100
ITEM: NUMBER OF ATOMS
350
ITEM: BOX BOUNDS xy xz yz pp pp pp
-8.0552999999999990e+00 1.5678200000000000e+01 -7.0408999999999997e+00
0.0000000000000000e+00 1.5043344000000001e+01 -1.0144000000000000e+00
0.0000000000000000e+00 1.7638300000000001e+01 6.8175000000000008e-01
ITEM: ATOMS id type x y z
234 3 6.106 2.65635 6.67432
9 4 0.397072 2.26439 5.77784
13 4 -0.162986 4.7354 7.94062
15 4 -1.3859 7.23257 6.61959
23 4 3.19946 2.58028 4.01682
26 4 5.76131 1.56518 5.45884
30 4 4.71154 5.09987 2.48445
233 3 4.34202 2.90428 8.54698
71 1 6.23321 2.81385 0.053468
33 4 5.1747 3.65795 7.48254
139 2 3.4181 0.427752 2.96957
70 1 2.92192 1.35437 2.59228
74 1 0.765363 5.79185 4.02373
97 2 -2.59059 6.82584 5.47669
108 2 5.5596 3.89445 1.57302
304 3 -0.216791 1.41759 2.16193
140 2 3.35794 1.75169 1.62486
141 2 1.80058 1.2471 2.56901
150 2 1.4776 5.06663 4.65765
151 2 0.998597 5.9026 2.90837
152 2 -0.367302 5.60408 4.28123
346 2 6.04898 2.32224 1.00885
207 3 -0.797902 2.16506 4.74222
208 3 0.433082 0.775426 6.52545
212 3 0.211214 3.64786 6.81148
213 3 -1.02295 5.87175 7.31676
224 3 1.86911 2.50125 4.94025
225 3 2.21669 1.18653 8.31487
226 3 4.47513 2.02595 4.67925
336 2 6.90311 0.773685 8.50009
230 3 3.62378 4.23473 3.30407
232 3 4.16578 5.997 1.33664
302 2 1.04677 3.72528 2.39291
35 4 4.10981 6.49575 6.40939
303 2 1.08481 4.67296 0.72638
237 3 2.54927 6.885 5.9227
238 3 4.41784 4.98635 6.79225
342 2 -1.73218 5.32265 4.48704
314 3 -3.16115 7.20405 2.94226
299 4 0.377102 2.27421 0.676965
300 1 1.32737 3.76114 1.27584
301 2 2.39367 3.426 1.17087
343 2 -2.79854 5.74739 0.709215
31 4 1.29745 7.37007 4.96482
6 4 1.29645 1.62041 16.2057
10 4 -0.498348 2.47941 13.5835
12 4 -2.58013 5.05126 16.8096
297 2 3.27772 3.02953 12.2073
16 4 0.371508 5.42745 13.7651
106 2 3.9616 4.7048 17.5146
295 2 1.75855 1.93457 12.4105
28 4 3.95416 3.46782 16.0722
34 4 1.04214 6.90766 9.66881
291 4 4.15032 0.582813 12.8609
37 4 -0.0615344 6.88196 16.3066
66 1 -0.195262 1.9533 11.7913
17 4 -1.13832 7.371 11.8584
211 3 -1.0168 3.87441 9.05496
305 3 0.23427 2.08392 17.3407
98 2 2.03793 5.64339 13.1852
104 2 3.01822 2.12407 10.6694
38 4 3.56683 7.31174 11.8209
72 1 6.34314 1.67382 10.3183
128 2 0.282256 2.72857 11.0123
235 3 1.38393 5.35343 8.84371
130 2 0.341153 0.981301 11.8282
298 2 5.66937 1.48947 14.7339
143 2 5.47084 2.35569 16.5624
145 2 5.36554 1.22224 9.90569
292 1 2.89108 2.05493 12.6977
209 3 0.47591 1.40748 14.5536
294 2 2.87151 2.2024 13.8518
94 2 -0.888226 1.26259 9.20269
214 3 -0.00141432 3.9484 13.6739
25 4 2.91839 2.43288 8.98753
216 3 -0.62643 6.4411 13.082
228 3 2.68383 2.57756 16.1311
236 3 -0.301858 6.94395 10.4852
239 3 4.39988 4.24154 14.7741
215 3 -2.84469 7.48242 11.4972
241 3 0.624084 5.8784 15.2728
243 3 -1.58121 6.36916 16.7162
244 3 2.31195 7.08987 10.8215
245 3 3.58127 5.65567 12.7498
338 2 -3.58245 6.38875 12.4609
210 3 -1.83568 3.70342 17.329
296 2 4.8333 0.856017 11.2379
107 2 1.86351 3.79356 9.03908
242 3 0.937134 7.19672 17.5058
129 2 -1.25623 1.80331 11.5121
162 2 0.348024 14.4001 2.02319
19 4 -2.99075 9.58168 8.19352
20 4 -4.27225 12.0774 6.44041
24 4 -0.872188 13.8139 7.62577
39 4 2.32951 9.47687 2.53006
40 4 1.84801 9.53161 8.12367
42 4 0.691632 11.6135 6.07917
75 1 0.984315 10.2514 1.38876
315 3 -2.59522 9.62078 1.06366
99 2 -4.63249 12.905 2.14835
100 2 -2.9584 13.0869 6.24101
111 2 -0.67227 11.1097 5.10824
153 2 0.157593 9.4707 1.39472
154 2 1.56254 10.5186 0.404651
155 2 0.72594 11.1615 2.02449
227 3 -1.77707 14.291 6.34569
248 3 1.2014 8.26065 8.79735
218 3 -2.15692 8.4123 7.41743
219 3 -4.95821 11.7359 4.94259
220 3 -3.66123 10.7949 7.02788
221 3 -5.27347 12.6853 7.47418
309 2 -0.902814 8.70804 3.55174
246 3 1.59613 8.52761 3.75336
247 3 3.23838 8.54358 1.49363
253 3 0.338972 12.8346 7.03921
122 2 -4.16755 9.27067 0.877999
252 3 0.885289 10.3034 6.93954
86 1 -6.12526 13.1745 2.40872
186 2 -6.22097 13.893 3.33485
306 4 -2.65192 8.70189 2.84393
307 4 -2.15418 10.6891 0.00729976
308 1 -1.796 9.67152 4.3291
310 2 -1.80211 12.2227 0.625937
311 2 -1.65211 10.7362 3.9169
312 2 -1.49697 9.60338 5.41796
313 2 -3.56753 9.73824 4.02065
250 3 -1.76993 13.0579 8.60787
231 3 -0.108226 7.63909 5.79684
185 2 -6.66063 13.5979 1.49541
32 4 3.51283 7.21342 0.640281
18 4 -5.6938 11.6346 3.49416
158 2 3.40249 7.71256 8.34528
7 4 -5.8052 14.4976 7.74128
21 4 -2.76473 9.98913 14.3955
22 4 -3.77518 12.0964 12.1195
41 4 -1.78498 11.8848 9.74688
68 1 -3.7586 8.48694 14.5433
69 1 -0.398976 9.10684 12.1703
77 1 1.35675 9.44722 14.9318
101 2 -1.03855 10.0528 14.6019
102 2 -2.98738 10.6827 15.9686
103 2 -5.37208 11.8489 11.7583
112 2 -0.202462 8.42002 15.5815
113 2 -0.245469 12.0587 10.4335
114 2 -0.127036 12.0723 13.0913
127 2 -7.06286 14.2744 14
249 3 -1.89398 10.4532 8.97778
135 2 -3.65746 8.32246 15.706
136 2 0.213574 9.1701 11.218
137 2 0.288897 9.28807 13.2166
138 2 -1.3093 9.77048 12.1033
159 2 1.32111 8.35803 14.4418
160 2 0.281874 10.0935 14.9061
161 2 1.78908 9.38542 16.0093
341 2 -4.08871 14.1819 16.3969
133 2 -3.00095 7.80477 13.823
222 3 -3.25777 10.9647 13.2711
223 3 -3.71897 13.6322 12.6929
293 1 -1.80775 14.8389 14.5447
251 3 -2.97547 11.9913 10.8282
217 3 -4.15816 8.99723 9.10625
344 2 -1.06684 14.1319 14.0389
318 3 -7.29023 14.1984 9.00924
319 3 -6.66067 12.916 11.3035
320 1 -5.20334 14.2178 16.6109
321 2 -5.83279 13.701 15.7636
328 2 3.06652 7.94355 16.045
334 2 -4.39082 12.3891 17.0007
317 2 -5.16476 12.251 9.11207
345 2 -2.39952 14.3763 15.5056
335 2 -1.37434 11.296 17.5696
322 2 -5.56871 14.0117 17.6308
1 4 14.4125 1.43649 3.38096
2 1 12.887 2.40647 2.72183
3 2 12.7517 2.1831 1.59634
4 2 11.9263 2.23575 3.35783
118 2 6.67917 6.58873 1.04187
11 4 11.548 5.87095 3.65633
46 4 8.31349 1.51393 3.54534
49 4 9.84534 4.03952 2.01402
50 4 6.29263 7.02632 4.15013
51 4 8.39919 6.6458 1.03315
52 4 10.0164 5.80555 8.53074
54 4 9.24131 7.0547 5.52553
257 3 7.06717 1.45323 4.46106
268 3 7.75773 6.94478 4.91443
324 2 12.855 3.81965 1.23466
95 2 13.3458 2.29763 7.37715
263 3 5.16491 7.09938 5.35079
117 2 10.5631 3.27741 0.575982
120 2 11.0406 4.3486 8.18462
131 2 12.6982 3.92824 4.46719
269 3 9.58394 6.36071 7.12039
267 3 10.3694 6.40731 4.55592
340 2 13.4204 3.49835 2.88601
157 2 5.04848 6.7635 8.48961
173 2 6.54018 5.83192 7.8509
337 2 11.6466 0.890423 2.16124
260 3 9.03532 2.8221 2.67657
261 3 11.0835 4.6381 2.78015
262 3 5.97014 5.82125 3.07833
348 2 9.27558 0.247973 1.64466
264 3 9.05584 5.29547 1.57362
168 2 9.10352 3.6788 8.00133
174 2 7.37532 4.02501 8.14103
132 2 12.5904 5.21348 5.8898
67 1 12.833 5.02443 4.73355
82 1 6.73919 4.98193 8.52479
323 1 12.7437 4.62925 0.357436
115 2 9.5184 0.428505 4.0346
142 2 7.24831 3.33167 0.111698
170 2 11.8907 0.92175 11.4459
27 4 8.28265 0.879181 13.941
29 4 6.8219 2.93325 11.889
119 2 8.38879 5.50398 9.29676
47 4 9.67378 3.47587 15.0295
48 4 11.0952 2.89148 10.6204
55 4 10.8417 5.29525 12.8466
73 1 7.79365 4.54843 11.449
79 1 8.89816 4.49454 16.4781
96 2 12.1191 4.85385 15.4587
81 1 10.8146 1.3433 11.6302
165 2 8.16581 4.4621 17.3034
8 4 13.7815 2.59909 8.94475
109 2 6.04123 6.13421 13.7713
116 2 10.2984 3.34965 16.716
331 2 5.49992 6.53125 17.1214
121 2 6.88532 6.71854 9.49293
333 2 13.4949 2.36225 13.8627
147 2 7.42046 4.72015 10.3996
148 2 8.92049 4.42689 11.5106
149 2 7.36275 5.33278 12.1355
164 2 9.23324 5.55867 16.3086
265 3 11.0352 6.49137 9.4236
166 2 7.95116 4.26327 14.9318
167 2 9.66182 2.26716 8.99054
80 1 9.63622 3.46433 8.99274
169 2 8.89729 3.83675 9.85168
171 2 9.97107 0.663586 11.2763
175 2 5.96042 4.85364 9.33731
172 2 10.6536 1.68219 12.7071
144 2 6.77903 2.50599 9.6261
229 3 7.59898 1.86766 12.9148
258 3 9.32478 1.80183 14.6673
259 3 12.5734 2.62052 9.89387
266 3 4.94916 7.38999 11.1657
270 3 11.0776 4.68442 14.2234
271 3 10.833 4.14292 11.7001
274 3 9.53082 6.16285 12.8109
325 2 10.6627 5.09902 17.3436
332 2 7.29736 6.072 16.7382
329 1 6.50936 6.95994 16.9776
240 3 5.55649 3.7449 12.4528
36 4 4.87716 4.99522 13.3611
146 2 7.10216 0.873524 10.6154
273 3 7.54103 7.62742 11.849
45 4 5.19299 13.7339 2.8174
57 4 9.86178 9.31444 1.32795
58 4 3.29528 11.7072 4.48189
59 4 6.59879 11.7385 1.05345
62 4 5.73181 11.4069 6.45581
126 2 2.69466 13.1127 8.51251
83 1 6.36947 8.79649 3.17838
84 1 9.78725 8.83957 5.6618
85 1 8.53375 8.93994 8.28104
87 1 7.03357 11.4474 4.90572
88 1 5.87088 13.1408 7.29819
76 1 4.45052 7.59067 7.95658
200 2 3.89587 11.7534 0.519033
123 2 8.20608 12.0314 1.56174
163 2 1.71138 13.438 2.92262
125 2 6.38637 10.2691 1.8409
5 3 6.57266 14.1388 3.69018
156 2 5.06884 8.53594 7.78866
176 2 5.96651 8.59055 2.11711
177 2 7.36575 9.29939 3.1697
178 2 5.58209 9.24612 3.91352
179 2 10.5722 8.81988 4.81115
180 2 10.2564 9.06861 6.67182
181 2 8.82276 9.40379 5.45103
182 2 9.57874 9.3065 7.89525
183 2 8.00969 8.34097 7.57414
187 2 6.72773 10.405 4.3304
188 2 8.03723 11.3739 5.41291
189 2 6.82378 12.4611 4.39253
190 2 6.24752 13.0235 8.32358
191 2 4.81655 13.5557 7.1516
275 3 9.13868 7.99435 1.19905
277 3 3.26324 10.5924 3.31932
278 3 3.97187 13.1392 3.6905
350 2 6.68997 13.5724 6.54688
280 3 5.69084 12.8248 1.60883
285 3 4.22786 11.2222 5.6786
286 3 6.06307 10.3028 7.60178
349 2 8.3217 12.2508 3.55896
276 3 9.84496 10.173 2.63534
279 3 1.78448 12.094 5.02833
110 2 3.33304 9.14 7.40182
78 1 1.46749 14.3377 2.3953
124 2 9.42633 10.351 0.0200847
43 4 2.79923 9.98755 13.7726
44 4 1.44745 12.4767 12.7157
254 3 3.32597 8.58178 12.8583
330 2 6.56276 7.90921 16.2428
60 4 7.16882 10.1933 8.97712
61 4 2.3887 11.9931 9.83124
63 4 8.39111 10.0811 14.577
64 4 4.25029 12.1198 16.0413
65 4 8.15722 12.9685 12.9629
89 1 6.67379 9.51632 15.0564
90 1 4.68514 13.8395 15.2572
91 1 2.60493 12.4321 17.0533
92 1 4.03994 12.9463 9.93028
93 1 6.44628 13.4534 12.5126
288 3 3.89015 10.6009 14.9042
290 3 8.33539 11.5743 13.754
327 2 3.812 9.49448 16.7462
192 2 6.93998 9.59307 16.2678
193 2 6.6644 8.43978 14.5793
194 2 5.64952 10.0133 14.8704
195 2 3.77249 13.9954 14.6225
196 2 5.60131 13.4736 14.6646
197 2 4.84202 14.7283 15.9236
199 2 2.16415 13.3928 16.7157
326 1 3.69535 8.40558 16.8949
284 3 1.29663 12.6142 10.8241
202 2 4.49297 12.187 10.7769
203 2 3.84201 13.9438 10.5173
204 2 5.91419 12.5549 13.1477
205 2 6.27812 13.386 11.3759
206 2 6.38182 14.4761 12.9968
53 4 6.44352 7.83702 10.7285
255 3 2.41513 11.3254 13.0731
256 3 1.81287 13.947 13.1766
272 3 10.2219 8.19514 11.2278
289 3 5.45308 11.9914 17.1841
281 3 6.46171 9.32279 10.0486
282 3 7.92377 11.5268 9.37113
339 2 9.35999 10.2747 15.9239
287 3 9.08371 8.92365 13.6895
14 4 11.4167 7.79057 10.2717
184 2 8.64554 8.43432 9.32699
105 2 0.0679994 14.7601 15.0898
198 2 1.90165 11.5462 16.7561
56 4 9.08699 7.67159 12.3318
201 2 4.71439 13.0653 8.99205
316 4 8.93411 12.714 9.71934
134 2 10.8573 8.57555 14.1711
283 3 2.32521 10.5983 9.16175
347 2 4.77231 7.9471 16.8223
ITEM: TIMESTEP
200
ITEM: NUMBER OF ATOMS
350
ITEM: BOX BOUNDS xy xz yz pp pp pp
-8.0552999999999990e+00 1.5678200000000000e+01 -7.0408999999999997e+00
0.0000000000000000e+00 1.5043344000000001e+01 -1.0144000000000000e+00
0.0000000000000000e+00 1.7638300000000001e+01 6.8175000000000008e-01
ITEM: ATOMS id type x y z
234 3 6.21721 2.64883 6.75988
9 4 0.541438 2.22051 5.61596
13 4 -0.217264 4.83692 7.93249
15 4 -1.27477 7.29869 6.57203
23 4 3.3169 2.54756 3.96244
26 4 5.86991 1.66051 5.52889
30 4 4.82341 5.03666 2.55719
233 3 4.39915 2.88562 8.67352
343 2 -2.83019 5.73126 0.562026
33 4 5.28341 3.62119 7.58086
139 2 4.03946 0.601291 2.66671
70 1 3.13697 1.28168 2.52684
74 1 0.706832 5.60542 4.14794
97 2 -2.28906 6.92579 5.23747
108 2 5.65523 3.91511 1.66392
304 3 -0.506843 1.30234 1.94033
140 2 3.21909 1.98523 1.59361
141 2 2.12848 0.80846 2.64318
150 2 1.59227 4.95427 4.35101
151 2 0.605535 5.82743 3.04762
152 2 -0.258482 5.18531 4.61651
346 2 6.09809 2.35034 1.00003
207 3 -0.728739 2.23637 4.43649
208 3 0.533165 0.808984 6.39299
212 3 0.424977 3.48527 6.69751
213 3 -1.21961 5.85484 7.26115
224 3 1.92166 2.43384 4.71878
225 3 2.13693 1.46617 8.46078
226 3 4.60564 2.07397 4.73845
336 2 6.80352 0.87986 8.37968
230 3 3.72296 4.19934 3.35157
232 3 4.10357 5.95659 1.47008
302 2 0.930019 3.3769 2.80017
35 4 4.17103 6.52497 6.35267
303 2 0.646008 4.63573 1.44514
237 3 2.57044 6.81052 5.91141
238 3 4.55937 4.84322 6.82213
342 2 -1.64707 5.25477 4.64208
314 3 -3.21508 7.25983 2.99258
299 4 0.191297 2.21966 0.754673
300 1 1.05806 3.59255 1.65805
301 2 2.13419 3.42971 1.23904
235 3 1.27608 5.44686 8.72568
31 4 1.35043 7.24021 4.90799
32 4 3.40947 7.17169 0.602342
71 1 6.1971 2.88075 0.0145442
6 4 1.24565 1.47807 16.2181
10 4 -0.527621 2.43904 13.5366
12 4 -2.53225 5.08666 16.8409
297 2 3.36816 3.03851 12.2934
16 4 0.352775 5.56926 13.7713
106 2 3.91898 4.7278 17.4836
295 2 1.67101 1.99742 12.3118
28 4 3.97475 3.46217 16.0415
34 4 1.1899 6.95014 9.61883
291 4 4.07585 0.668599 12.6059
37 4 -0.059835 6.98271 16.268
66 1 -0.273367 1.88315 11.7659
17 4 -1.06978 7.44353 11.7212
211 3 -0.823391 3.88161 9.07736
305 3 0.348529 2.02176 17.3916
98 2 1.76134 5.74168 12.9551
104 2 2.91948 2.44614 10.7489
38 4 3.53408 7.28493 11.9386
72 1 6.52715 1.47915 10.2386
128 2 -0.0162228 2.87288 11.1431
240 3 5.38501 3.65293 12.2748
130 2 0.609491 1.06434 11.6885
298 2 5.69728 1.49029 14.1307
143 2 5.55832 2.41571 16.5031
145 2 5.53413 1.2861 9.75752
292 1 2.79085 2.12649 12.672
209 3 0.384604 1.3779 14.4699
294 2 2.75446 2.23634 13.8065
242 3 0.976959 7.42867 17.4386
214 3 -0.0124791 3.94724 13.6097
25 4 2.9489 2.59278 9.04198
216 3 -0.727707 6.54523 13.1139
228 3 2.64646 2.37552 16.1198
236 3 -0.220989 6.88161 10.4451
239 3 4.3905 4.25728 14.7959
215 3 -3.01211 7.54837 11.2743
241 3 0.667058 5.90213 15.3004
243 3 -1.48633 6.32646 16.7627
244 3 2.37993 7.12576 10.689
245 3 3.51167 5.62907 12.7278
338 2 -3.61178 6.43892 12.3101
210 3 -1.95397 3.69668 17.3798
296 2 4.9533 0.681064 11.0847
36 4 4.74517 4.89824 13.4052
94 2 -0.974018 1.27176 9.11638
107 2 2.12356 4.00829 8.84674
162 2 0.62211 14.4209 1.90848
19 4 -2.8566 9.57338 8.12624
20 4 -4.21752 12.1548 6.40485
24 4 -0.845048 13.8817 7.54785
39 4 2.37831 9.41952 2.58497
40 4 1.85276 9.52302 8.03858
42 4 0.666074 11.6729 6.11543
75 1 1.12791 10.2143 1.38571
315 3 -2.71307 10.0033 1.37274
99 2 -4.46089 12.539 2.17167
100 2 -2.86492 13.1082 6.24559
111 2 -0.67992 11.2272 5.09212
153 2 0.156959 9.97664 1.89347
154 2 1.19448 9.67123 0.423886
155 2 1.34484 11.3546 1.37582
227 3 -1.64537 14.2614 6.2014
248 3 1.07933 8.21162 8.71064
218 3 -2.05948 8.43422 7.33174
219 3 -4.98956 11.8398 5.00492
220 3 -3.66226 10.7039 6.96628
221 3 -5.11396 12.9817 7.49404
309 2 -0.894099 8.66329 3.50761
246 3 1.69174 8.26584 3.72308
247 3 3.29057 8.54988 1.49691
253 3 0.413939 12.9331 7.02888
122 2 -4.16397 9.26487 0.84357
252 3 1.02297 10.3149 7.01122
86 1 -5.86828 13.0753 2.26788
186 2 -5.94127 14.0893 2.89593
306 4 -2.69957 8.78042 2.87427
307 4 -2.11065 10.8885 0.261923
308 1 -1.89637 9.83478 4.35062
310 2 -2.05396 12.5054 0.839036
311 2 -1.67001 10.8668 3.9293
312 2 -1.67664 9.7322 5.4397
313 2 -3.43424 9.59811 4.28613
250 3 -1.62284 13.1001 8.67789
231 3 0.0923906 7.73857 5.86181
185 2 -6.24449 13.2787 1.25544
322 2 -4.84414 13.0807 0.240726
18 4 -5.61061 11.5436 3.57903
158 2 3.47805 7.67009 8.33374
279 3 1.77798 11.869 5.07531
335 2 -0.394972 10.7499 0.258356
7 4 -5.86682 14.6352 7.83193
163 2 0.976113 13.2068 3.43105
21 4 -2.87467 10.1709 14.4127
22 4 -3.74177 12.1164 12.0965
41 4 -1.85405 11.8841 9.68699
68 1 -3.91009 8.68357 14.5844
69 1 -0.464582 9.15969 12.0382
77 1 1.23399 9.4276 14.8072
101 2 -1.19589 10.0448 14.6782
102 2 -3.03524 10.8787 16.1508
103 2 -5.3208 11.6742 11.6992
112 2 -0.389502 8.35069 15.2889
113 2 -0.41031 11.8591 10.5641
114 2 -0.0332887 12.6713 13.5757
127 2 -6.88999 14.2479 13.8515
249 3 -1.82742 10.4097 9.07492
135 2 -3.85565 8.4265 15.7115
136 2 0.253084 9.31921 11.1635
137 2 0.0773075 9.2484 13.0818
138 2 -1.49366 9.77636 11.9595
159 2 1.21743 8.33361 14.4238
160 2 0.138474 9.92455 14.8907
161 2 1.91225 9.63119 15.8681
341 2 -4.22863 14.257 17.0077
133 2 -3.20423 7.96623 13.9307
222 3 -3.30771 11.0915 13.242
223 3 -3.84675 13.7014 12.5552
293 1 -1.95778 14.859 14.2968
251 3 -2.93169 12.065 10.758
217 3 -3.92725 8.99406 9.11743
344 2 -1.42061 13.8184 14.1813
318 3 -7.18227 14.2805 9.18433
319 3 -6.60457 12.5859 11.2673
320 1 -5.31088 14.1176 16.8314
321 2 -5.58587 13.547 15.8332
284 3 1.18225 12.4083 10.905
334 2 -4.3992 12.3624 17.0248
317 2 -5.30566 12.27 8.96088
328 2 3.274 8.024 16.0723
283 3 2.29477 10.523 9.14807
105 2 0.0556078 14.6929 14.7862
345 2 -2.70909 14.8873 15.0677
1 4 14.3522 1.38165 3.25851
2 1 12.8026 2.40216 2.68566
3 2 12.4357 2.14821 1.59466
4 2 11.9818 2.27958 3.46205
118 2 6.63171 6.68543 1.16371
11 4 11.6713 5.71142 3.67103
46 4 8.30523 1.51282 3.53881
49 4 9.74934 3.8916 2.13139
50 4 6.28297 7.12459 4.25256
51 4 8.35401 6.56124 1.20015
52 4 10.0502 5.67914 8.47278
54 4 9.3448 7.07637 5.6376
257 3 7.07059 1.57158 4.52907
268 3 7.78012 7.05949 4.95108
324 2 12.8206 3.83002 1.09416
95 2 13.4169 2.46709 7.29144
263 3 5.14196 7.27507 5.33036
117 2 10.3279 3.13137 0.653956
120 2 11.0889 4.28418 8.19559
131 2 12.6444 3.91762 4.84971
269 3 9.6094 6.37842 7.13318
267 3 10.5672 6.32801 4.62432
340 2 13.3345 3.4389 2.7517
157 2 5.0282 6.77078 8.54171
173 2 6.91833 5.56615 7.5192
337 2 11.6617 0.789348 2.39251
260 3 9.03585 2.67826 2.81893
261 3 11.0878 4.44506 2.79873
262 3 5.90932 5.86731 3.29387
115 2 9.55254 0.505658 4.23324
264 3 8.8753 5.15072 1.58805
168 2 9.08011 3.48689 8.03122
174 2 7.41305 3.88654 8.45023
132 2 12.6313 5.35538 5.96622
67 1 12.9423 5.02617 4.93933
82 1 6.88575 4.96908 8.47398
323 1 12.6521 4.61065 0.279303
142 2 7.12764 3.509 0.0133539
129 2 14.282 1.43891 11.6633
27 4 8.39786 0.984717 13.8222
29 4 6.6505 2.84277 11.8067
119 2 8.51664 5.44737 9.34464
47 4 9.67494 3.54866 15.0475
48 4 11.1176 2.9642 10.5483
55 4 10.8202 5.34414 12.7933
73 1 7.75918 4.37241 11.4555
79 1 8.8119 4.50599 16.5549
96 2 12.3278 4.87729 15.3373
81 1 10.7974 1.32561 11.4928
165 2 7.96954 4.26339 17.3208
8 4 13.8072 2.72968 8.88793
109 2 5.94854 6.0479 13.6604
116 2 10.2593 3.48031 16.8218
331 2 5.47521 6.63324 17.242
121 2 6.71522 6.75433 9.30743
333 2 13.4336 2.31152 13.9345
147 2 7.42771 4.72837 10.4132
148 2 8.94207 4.22533 11.5271
149 2 7.36152 5.08449 12.3015
164 2 9.13307 5.5832 16.5654
265 3 10.9792 6.56245 9.40223
166 2 8.04715 4.37207 14.9302
167 2 9.61162 2.09625 9.08503
80 1 9.65473 3.35126 8.9557
169 2 8.87962 3.80213 9.86842
171 2 9.78005 0.902929 11.1137
175 2 5.96096 5.08967 9.21627
172 2 10.7682 1.48874 12.5951
144 2 7.08196 2.46235 9.65803
229 3 7.59396 1.9016 12.7818
258 3 9.24846 2.09249 14.6849
259 3 12.5127 2.84919 9.82698
266 3 5.02861 7.40915 11.3023
270 3 11.1824 4.60049 14.1679
271 3 10.8437 4.1658 11.6417
274 3 9.51602 6.21194 12.9313
325 2 10.577 5.0753 17.3814
332 2 7.41258 6.1914 16.8018
329 1 6.54854 7.03539 17.1107
273 3 7.63247 7.44074 11.6273
170 2 11.6737 0.666744 11.2063
146 2 7.30219 0.594307 10.2553
45 4 5.23866 13.6721 2.92968
57 4 9.94357 9.34565 1.51906
58 4 3.23127 11.7379 4.47137
59 4 6.56479 11.7769 1.09784
62 4 5.6401 11.434 6.49213
126 2 2.4945 13.1421 8.5112
83 1 6.28864 8.87579 3.33335
84 1 9.72392 8.90273 5.73338
85 1 8.67437 8.95922 8.32725
87 1 7.00441 11.3625 5.22156
88 1 5.82287 13.2192 7.23678
76 1 4.54986 7.56932 7.91148