ITEM: TIMESTEP
0
ITEM: NUMBER OF ATOMS
350
ITEM: BOX BOUNDS xy xz yz pp pp pp
-8.0552999999999990e+00 1.5678200000000000e+01 -7.0408999999999997e+00
0.0000000000000000e+00 1.4894400000000001e+01 -1.0144000000000000e+00
0.0000000000000000e+00 1.7814683000000002e+01 6.7500000000000004e-01
ITEM: ATOMS id type x y z
346 2 5.70281 1.86178 0.818886
9 4 0.409456 2.57632 5.71542
13 4 -0.0470655 4.96146 8.23892
33 4 5.26733 3.72595 7.41425
23 4 3.17585 2.316 4.00016
26 4 5.63171 1.26605 5.37298
30 4 4.91068 4.4561 2.54735
15 4 -1.35187 7.31892 6.89119
32 4 2.96687 6.66291 0.504127
235 3 1.4622 5.41764 8.85255
35 4 4.24212 6.55675 6.49298
70 1 2.56354 1.2503 2.48274
74 1 1.25787 5.75702 4.17726
97 2 -2.54835 6.76866 5.86925
342 2 -2.32066 4.93771 5.8721
304 3 -0.647862 1.59132 1.90996
140 2 3.26667 1.68753 1.65997
141 2 1.43558 1.35975 2.33826
150 2 2.1702 5.14002 4.41391
151 2 1.31767 6.03627 3.08376
152 2 0.403917 5.10431 4.54331
309 2 -0.378544 6.58851 3.48586
207 3 -0.736648 2.46462 4.57662
208 3 0.380633 1.13943 6.55831
212 3 0.178884 3.93848 6.66414
213 3 -1.11062 6.13714 7.91456
224 3 1.90104 2.74466 4.96956
225 3 2.50104 1.24973 8.24934
226 3 4.29524 1.06587 4.62192
303 2 0.308071 4.64297 1.19889
230 3 4.08912 3.51458 3.43305
232 3 3.94849 5.18492 1.29288
343 2 -2.91824 5.93682 1.12932
257 3 6.85379 1.16672 4.2568
302 2 1.29267 3.46854 2.25825
237 3 2.71279 7.04922 6.23726
238 3 4.53201 5.02509 6.87992
139 2 2.86812 0.182719 2.80019
314 3 -3.17522 6.53427 3.59422
299 4 -0.211342 2.3826 0.40877
300 1 0.880096 3.69235 1.22938
301 2 1.78977 3.66385 0.536082
7 4 1.31462 0.437629 7.6813
234 3 5.66794 2.60807 6.39429
163 2 7.08241 0.226235 1.43751
108 2 5.97457 3.52424 1.62839
106 2 4.23856 4.22208 0.0928168
6 4 0.916568 1.7664 16.2508
10 4 -0.621507 2.41502 13.3149
345 2 4.309 0.663117 16.0205
38 4 3.58851 7.14694 12.2055
16 4 -0.425767 5.62079 13.6326
17 4 -1.31628 7.2994 11.39
297 2 2.57886 3.40121 13.6139
28 4 3.68887 3.64071 16.6278
34 4 1.50811 6.99399 9.88477
295 2 1.75985 2.33776 12.2795
37 4 -0.540686 6.76977 16.5031
66 1 -0.103461 1.90645 11.5276
293 1 4.96594 0.747205 15.1349
72 1 6.22624 1.68178 10.6302
143 2 5.55983 2.42194 16.8431
98 2 0.958244 6.01448 12.7425
104 2 2.70789 1.97335 10.9166
298 2 5.61923 1.77167 15.0366
296 2 3.67687 2.85131 11.966
128 2 0.242365 2.91467 11.1809
305 3 -0.248455 2.25188 17.3064
130 2 0.665912 1.06285 11.4055
12 4 -3.10189 5.24634 17.0543
25 4 2.87322 2.42559 9.21782
145 2 5.43822 2.15846 9.94266
146 2 5.93835 0.666914 11.1625
209 3 0.164384 1.45652 14.4321
294 2 2.57321 1.23891 14.2771
211 3 -0.771212 3.95581 9.2119
214 3 -0.591352 3.96199 13.4801
215 3 -2.74846 7.22919 10.6741
216 3 -1.69202 6.5456 13.2023
228 3 2.36531 2.56494 16.4632
236 3 0.254998 6.84055 10.7978
239 3 4.12785 4.21944 15.264
338 2 -3.20705 5.91119 13.0039
241 3 -0.0524165 6.0219 15.1848
243 3 -2.03899 6.40505 16.9588
244 3 2.92416 6.99498 10.703
245 3 3.55824 5.73147 13.0778
291 4 4.12365 1.2072 13.4197
292 1 2.75162 2.56193 12.8332
328 2 2.44278 7.6671 15.9724
71 1 5.12414 3.11692 17.7288
36 4 4.6776 4.89896 13.8403
107 2 1.99572 3.88033 9.10916
242 3 0.496123 6.81199 17.7714
210 3 -2.46066 3.85872 17.4114
129 2 -1.16268 1.662 11.1535
240 3 5.41002 3.78067 12.9449
94 2 -0.891745 1.36325 9.0345
105 2 6.88566 0.680234 15.3736
326 1 3.04509 7.73996 16.9102
233 3 4.31035 3.0255 8.92922
18 4 -5.51395 11.6118 3.09061
19 4 -2.90384 9.8782 8.03204
20 4 -4.17148 12.0642 6.14048
24 4 -0.13012 13.8553 7.60273
39 4 2.35277 9.20289 2.82794
40 4 2.09485 9.59742 8.29042
42 4 1.07104 11.5452 6.13505
75 1 1.06938 10.3768 1.99758
86 1 -6.45282 12.9816 1.94812
99 2 -4.80569 12.2418 1.5147
100 2 -2.79764 13.0667 6.23561
111 2 -0.51775 11.3458 5.36198
153 2 0.00650519 10.0091 2.1759
154 2 1.38858 10.3239 0.915675
155 2 1.26913 11.4624 2.44678
231 3 -0.0801197 7.3795 6.00267
186 2 -5.72336 13.8846 2.17636
218 3 -1.84013 8.72348 7.51813
219 3 -4.58864 12.0254 4.51291
220 3 -3.77162 10.6025 6.7215
221 3 -5.17035 12.936 7.06391
322 2 -5.574 13.3599 0.143271
246 3 1.51784 8.43169 4.07059
247 3 2.96526 8.1208 1.59368
335 2 0.0660568 9.40177 0.413161
348 2 0.824581 12.7719 2.39016
252 3 1.27385 10.2208 7.09925
253 3 1.09529 12.9534 6.9981
227 3 -1.38874 14.0011 6.47422
249 3 -2.05462 11.0489 8.65576
307 4 -1.54897 8.86968 0.371566
308 1 -2.11034 9.14435 4.01261
310 2 -2.5748 10.1875 0.002888
311 2 -2.08278 9.85691 3.18976
312 2 -0.988935 8.98397 4.59582
313 2 -2.9503 9.22034 4.75043
315 3 -1.78906 8.06401 1.65606
317 2 -5.29361 12.2901 8.64421
306 4 -1.8937 7.48695 3.15992
31 4 1.36689 7.31683 5.32646
21 4 -2.44283 10.2963 14.6411
22 4 -2.99651 12.4604 12.2605
41 4 -1.15895 11.866 9.69162
68 1 -3.65361 8.95499 14.9582
69 1 -0.778752 9.13156 11.3804
77 1 0.669793 9.48323 15.0153
101 2 -1.1362 9.14869 14.3075
102 2 -1.69648 11.0198 16.0087
103 2 -4.60734 12.3047 11.7951
112 2 -0.692783 8.37485 16.0257
113 2 -0.056791 10.8567 10.461
114 2 -0.273473 11.9172 12.5926
133 2 -3.64568 7.96598 15.5465
134 2 -4.0877 8.92562 13.7513
135 2 -4.43308 9.6899 15.5913
136 2 -0.900151 9.2773 10.2055
137 2 0.326818 9.40292 11.8022
138 2 -1.65496 9.50231 12.051
159 2 0.266185 10.3339 14.262
319 3 -6.17024 12.789 11.5786
161 2 0.769937 8.34892 14.7249
127 2 -6.78685 14.2187 13.7232
217 3 -3.89598 9.11294 9.03837
222 3 -2.73301 11.3357 13.4724
223 3 -2.85693 13.9777 12.6991
14 4 -4.19548 7.77272 9.92489
251 3 -2.09284 12.2597 11.0102
248 3 1.35395 8.39087 9.00177
160 2 0.998558 9.74732 16.0594
341 2 -4.75268 14.3108 17.203
318 3 -6.94366 14.3522 9.26372
320 1 -5.87811 14.2843 16.9207
321 2 -6.10321 13.6312 15.9555
316 4 -6.61217 12.8501 9.6322
334 2 -2.72618 8.69529 16.7269
344 2 -1.52375 13.9747 14.9237
254 3 2.64969 8.32646 13.219
250 3 -0.591525 13.1663 9.09046
1 4 14.3457 1.60951 3.34096
2 1 12.6745 2.52774 2.99485
3 2 12.673 2.44194 1.84312
4 2 11.7475 2.1081 3.49728
119 2 8.90835 4.55994 8.73299
11 4 11.3048 5.67848 4.37971
46 4 8.11595 1.12247 3.24495
49 4 9.80875 3.83062 2.46248
50 4 6.10339 6.91547 3.90947
51 4 8.68692 6.24182 0.978458
52 4 9.73873 5.82227 7.96916
324 2 12.6543 4.00896 1.61311
67 1 12.2802 4.99485 6.03324
263 3 5.12607 6.9664 5.18195
82 1 6.99373 4.06991 8.1701
95 2 13.1873 2.7509 7.47477
175 2 7.00333 5.18661 7.80746
117 2 11.0511 3.59362 1.23669
120 2 10.5689 4.70118 6.90841
131 2 11.816 3.88266 5.74924
132 2 12.0483 5.37797 7.07633
157 2 5.93705 7.00665 8.11898
142 2 6.78044 3.34762 0.105477
323 1 12.4828 4.87523 0.785314
173 2 7.68479 3.45282 7.40904
337 2 11.7784 0.928985 2.18684
260 3 8.97654 2.40722 2.78303
261 3 10.5677 4.37115 3.72407
262 3 5.78721 5.56061 3.19858
336 2 7.64253 1.13638 7.91058
264 3 8.84864 4.89121 1.79142
340 2 13.0891 3.54986 3.41103
267 3 10.2903 6.70578 4.9661
268 3 7.64102 7.1511 4.55354
269 3 8.6583 6.68768 7.20107
54 4 8.91337 7.29598 5.52933
325 2 11.473 4.79418 0.00215598
265 3 10.7933 6.659 8.82537
164 2 8.815 3.10132 0.0312693
168 2 10.2477 1.3116 9.2349
27 4 8.17911 0.849699 14.1656
29 4 6.75482 2.79687 12.1207
330 2 7.31455 6.78534 15.9573
47 4 9.51282 3.16889 15.4499
48 4 11.4577 2.56669 11.1186
55 4 10.9305 5.13351 12.9218
73 1 7.89068 4.09874 11.3247
79 1 8.29687 3.27017 16.9985
80 1 9.96803 2.08046 9.98257
81 1 11.7275 0.94061 12.4128
332 2 8.96877 7.04688 16.8724
96 2 11.4766 5.08401 15.6311
109 2 5.92496 6.00017 14.3757
116 2 9.98557 3.28048 17.307
329 1 7.85379 6.48065 16.8643
331 2 8.10593 5.27806 16.8689
347 2 3.88634 6.91447 16.9711
147 2 7.35252 4.78068 10.5776
148 2 8.64641 3.44313 10.7544
149 2 8.35347 4.63581 12.1406
274 3 9.83854 6.1223 12.4073
165 2 7.92454 2.20178 17.0444
166 2 7.80988 3.96907 15.4637
167 2 9.22778 1.67746 10.852
333 2 13.4142 1.81625 13.0138
169 2 9.50237 2.94474 9.43088
171 2 10.7379 0.565419 11.9376
174 2 7.20001 3.97393 9.28887
172 2 11.5903 1.303 13.4615
144 2 7.22519 1.62356 10.1613
229 3 7.54616 1.85976 13.1026
258 3 9.44368 1.72015 14.7516
259 3 12.6405 2.63083 10.0841
8 4 13.7815 2.7568 8.99638
270 3 10.6042 4.53705 14.4965
271 3 11.1085 3.87239 11.9631
118 2 6.22678 6.92147 17.7523
45 4 5.21987 13.616 2.74472
57 4 8.88911 9.102 2.01574
58 4 3.57619 11.5667 4.3405
59 4 6.37428 11.5249 0.856303
62 4 5.85543 11.6893 6.55711
349 2 8.45856 12.6071 3.302
83 1 5.63513 8.34472 2.67346
84 1 9.26047 9.23804 5.63745
185 2 8.52834 13.3255 1.05969
87 1 7.22934 11.6817 5.25711
88 1 6.03256 13.4889 7.35305
110 2 3.45513 8.86958 7.60407
286 3 6.17582 10.456 7.97871
123 2 8.06219 11.621 1.14451
124 2 7.42158 9.22587 2.85465
125 2 5.98829 10.1643 1.89819
78 1 1.05796 13.8438 2.04318
156 2 5.40593 8.86143 7.78566
176 2 4.55866 8.20817 2.24389
115 2 2.10024 13.9553 3.74038
178 2 5.82211 9.29344 3.19825
179 2 9.46315 9.57367 4.57767
180 2 10.1399 9.42207 6.303
181 2 8.25603 9.52471 5.99794
122 2 8.49891 9.81076 0.546254
183 2 8.80031 9.1893 7.65156
187 2 7.12212 10.6919 4.71011
188 2 8.26884 11.7986 5.77941
189 2 6.97483 12.5949 4.46663
190 2 6.44203 13.3359 8.3562
191 2 5.02814 13.9572 7.31363
275 3 9.09493 7.64396 1.54332
277 3 3.47271 10.2145 3.3099
278 3 3.99259 12.9791 3.48081
350 2 6.73754 13.9699 6.59966
280 3 5.64839 12.8148 1.38823
285 3 4.55491 11.495 5.67735
76 1 5.04566 7.71232 7.90292
276 3 9.8422 10.0455 2.73567
5 3 6.6073 13.9663 3.53927
177 2 6.4079 8.15634 1.81003
126 2 3.27663 13.356 8.7613
162 2 2.00919 13.9396 1.3786
199 2 3.19283 11.6377 0.161403
158 2 4.25086 7.51839 8.74826
279 3 2.09918 11.7472 4.91529
85 1 8.50941 9.25511 8.83586
287 3 9.17386 8.65444 13.4848
289 3 5.01859 11.8322 17.1992
53 4 6.20541 8.28267 11.2391
198 2 2.46539 13.5276 16.4709
60 4 7.11652 10.4707 9.32779
61 4 2.828 12.1583 9.88196
63 4 8.51685 9.91957 14.2009
64 4 3.83777 11.7214 16.0892
65 4 8.56219 12.7339 12.8334
89 1 7.59761 9.5677 15.996
90 1 4.52045 13.2089 14.7367
91 1 2.23661 12.4205 16.8318
92 1 4.57704 12.8227 10.2003
93 1 6.77587 12.6855 12.3433
182 2 9.38348 9.70785 9.50264
327 2 3.41564 8.81913 17.0717
184 2 8.32413 8.20453 9.2165
192 2 7.64329 8.47326 16.2623
193 2 6.77599 9.43912 14.6027
194 2 6.93633 10.0949 16.7012
195 2 4.20499 12.8047 13.696
196 2 5.60323 13.1455 14.9382
197 2 3.96811 14.0923 15.1427
339 2 9.0809 10.1621 16.1737
284 3 1.83669 12.7628 11.0816
290 3 8.62533 11.3856 13.6978
202 2 5.00383 11.8442 10.687
203 2 4.63366 13.7628 10.9412
204 2 6.62176 11.672 11.835
205 2 6.81201 13.5983 11.5896
206 2 5.91095 12.9578 13.2961
288 3 3.49822 10.2148 15.2043
201 2 5.13878 13.0538 9.17335
256 3 1.54301 13.5925 13.6985
283 3 2.63804 10.7206 9.23023
272 3 10.3972 8.33677 11.0019
281 3 6.26845 9.8217 10.8847
282 3 7.79526 11.8495 9.52119
43 4 2.48884 9.75113 14.0129
266 3 5.19819 7.76786 12.2773
170 2 5.48199 14.316 12.4964
56 4 9.30851 7.6266 12.1349
273 3 7.81349 7.67018 11.4313
44 4 1.31147 12.3938 12.6608
255 3 2.19497 11.0878 13.0063
121 2 5.69869 7.50056 9.7856
200 2 1.37251 11.9687 16.2183
ITEM: TIMESTEP
100
ITEM: NUMBER OF ATOMS
350
ITEM: BOX BOUNDS xy xz yz pp pp pp
-8.0552999999999990e+00 1.5678200000000000e+01 -7.0408999999999997e+00
0.0000000000000000e+00 1.4894400000000001e+01 -1.0144000000000000e+00
0.0000000000000000e+00 1.7814683000000002e+01 6.7500000000000004e-01
ITEM: ATOMS id type x y z
346 2 5.29439 1.92702 0.844896
9 4 0.401902 2.55634 5.77301
13 4 -0.0871506 4.98728 8.16797
33 4 5.31132 3.6707 7.54274
23 4 3.12664 2.31299 4.05088
26 4 5.55578 1.29489 5.4772
30 4 4.7453 4.54275 2.32894
31 4 1.40783 7.24504 5.19716
32 4 3.0069 6.62041 0.430803
108 2 5.75336 3.41859 1.57426
163 2 7.18011 0.413899 1.41443
70 1 2.4104 1.34776 2.50816
74 1 1.05927 5.57289 4.37318
97 2 -2.52568 6.86124 5.83529
342 2 -2.34318 4.89262 5.69383
304 3 -0.610141 1.67176 1.98258
140 2 2.79383 2.05123 1.66235
141 2 1.26516 1.3888 2.54282
150 2 2.04355 5.0458 5.02227
151 2 1.28274 5.58438 3.27147
152 2 0.0768294 5.0813 4.49417
309 2 -0.37306 6.38343 3.34293
207 3 -0.810578 2.3462 4.64129
208 3 0.388352 1.19113 6.63632
212 3 0.231412 3.86324 6.72099
213 3 -1.15606 6.2183 7.96228
224 3 1.78686 2.6695 4.86368
225 3 2.28858 1.56234 8.41855
226 3 4.10076 1.24097 4.82441
303 2 0.377296 4.82042 0.869825
230 3 3.84877 3.60711 3.15742
232 3 3.93157 5.21033 1.15986
343 2 -2.83962 5.81056 1.14547
257 3 6.70741 1.26344 4.3262
302 2 1.28122 3.80278 2.14016
237 3 2.75256 7.07319 6.16959
238 3 4.77646 5.19941 6.88338
139 2 2.85223 0.304185 2.51487
314 3 -3.03483 6.38308 3.53915
299 4 -0.00709002 2.48567 0.487883
300 1 1.02419 3.93754 1.05036
301 2 1.83699 3.85575 0.278554
7 4 1.31854 0.492046 7.76348
234 3 5.6558 2.58406 6.51032
71 1 5.94556 2.21775 0.000667916
106 2 4.22906 4.04151 0.0402378
6 4 0.984013 1.58088 16.3291
10 4 -0.760093 2.36357 13.444
345 2 4.51927 1.1047 15.9997
38 4 3.55912 7.22661 12.4247
16 4 -0.430231 5.74769 13.5868
17 4 -1.42581 7.41197 11.3694
297 2 2.56866 3.328 13.5829
28 4 3.60667 3.55577 16.6418
34 4 1.48253 7.00236 9.9672
295 2 1.78026 2.17467 12.4081
37 4 -0.527831 6.97677 16.3406
66 1 -0.157169 1.7471 11.746
293 1 5.10188 0.936899 15.0615
72 1 6.15725 1.6417 10.8062
143 2 5.24268 1.9903 17.1669
98 2 0.883773 6.19024 12.6068
104 2 2.67686 2.21346 10.9198
298 2 5.75828 1.88272 14.777
296 2 3.62701 2.82035 12.097
128 2 0.195677 2.73309 11.3398
305 3 -0.127594 2.19027 17.3567
130 2 0.515168 0.914611 11.5656
12 4 -3.10286 5.18273 17.1048
25 4 2.91872 2.5971 9.30002
145 2 5.50978 2.16703 10.036
146 2 5.78071 0.611164 11.1948
209 3 0.212129 1.46591 14.5327
294 2 2.51886 1.13847 14.2774
211 3 -0.752864 3.93608 9.33755
214 3 -0.604188 3.9119 13.5318
215 3 -2.73933 7.23138 10.4919
216 3 -1.70648 6.53045 13.1449
228 3 2.34914 2.53211 16.4249
236 3 0.0485939 6.77601 11.0775
239 3 4.20241 4.24199 15.2401
338 2 -3.14467 5.81129 13.0927
241 3 -0.0589881 6.23876 15.066
243 3 -1.98972 6.43315 16.8951
244 3 2.77866 7.09628 10.8064
245 3 3.49019 5.52022 13.0382
291 4 4.0764 1.0493 13.4418
292 1 2.75743 2.48218 12.8897
328 2 2.56551 7.31755 15.9133
233 3 4.37235 3.00911 8.93394
36 4 4.71136 4.90192 13.8103
107 2 2.07221 4.06059 9.23446
242 3 0.712951 6.98934 17.4202
210 3 -2.43206 3.73602 17.5077
235 3 1.39697 5.60302 8.95254
326 1 3.17199 7.68532 16.8292
94 2 -0.84759 1.42163 8.94701
18 4 -5.45858 11.5464 3.08531
19 4 -2.92808 9.93628 8.00084
20 4 -4.1594 12.1632 6.27992
24 4 -0.210952 13.9127 7.68175
39 4 2.24149 9.28749 2.82742
40 4 2.16525 9.52287 8.34634
42 4 1.09952 11.5825 6.26562
75 1 0.857048 10.347 2.01126
86 1 -6.26666 12.827 1.78215
99 2 -4.41744 12.404 1.88699
100 2 -2.72256 13.067 6.12555
111 2 -0.339515 11.4043 5.57313
153 2 -0.10367 9.90956 2.37012
154 2 1.18437 10.0097 0.902752
155 2 0.979868 11.4676 2.27377
231 3 0.065785 7.46868 6.05661
186 2 -5.74096 13.8524 2.05731
218 3 -1.91578 8.79756 7.34798
219 3 -4.73759 11.9009 4.83587
220 3 -3.77085 10.7001 6.74227
221 3 -4.97567 13.0916 7.27041
322 2 -5.14871 13.2478 0.136488
246 3 1.5871 8.30545 3.96998
247 3 2.8636 8.00691 1.57724
335 2 -0.58358 10.1474 0.513542
348 2 0.623628 12.8412 2.26115
252 3 1.34901 10.2492 7.15009
253 3 1.08855 13.0171 7.05903
227 3 -1.30945 13.9582 6.46365
249 3 -2.03719 11.0145 8.77023
307 4 -1.73962 8.84329 0.382548
308 1 -2.16939 8.87915 4.14756
306 4 -1.83049 7.33586 3.08242
311 2 -2.48453 9.69853 3.40072
312 2 -1.04924 8.95103 4.56561
313 2 -3.00916 8.55612 4.89983
315 3 -1.76641 7.9396 1.64362
317 2 -5.04128 12.4784 8.78685
310 2 -3.16554 9.66076 0.40532
15 4 -1.29009 7.37211 6.90595
21 4 -2.44518 10.3371 14.4683
22 4 -3.08623 12.3625 12.226
41 4 -1.27075 11.8792 9.73143
68 1 -3.64252 9.03449 15.0366
69 1 -0.753468 9.29709 11.3587
77 1 0.708829 9.27286 14.9545
101 2 -1.03916 9.43595 14.0901
102 2 -1.73526 11.2896 15.6283
103 2 -4.77506 12.0414 11.8685
112 2 -0.808465 8.64307 16.0376
113 2 0.056428 10.9273 10.2632
114 2 -0.236407 12.0627 12.7081
133 2 -3.57211 7.97532 15.4033
134 2 -4.10447 8.90803 13.9259
135 2 -4.19215 9.83149 15.7647
136 2 -0.557309 9.288 10.1699
137 2 0.166262 9.58398 11.964
138 2 -1.75986 9.67593 11.7987
159 2 0.302972 10.3182 14.7327
319 3 -6.13989 12.9699 11.5675
161 2 0.407969 8.39367 14.3372
127 2 -6.9287 14.2244 13.9505
217 3 -4.0069 9.23008 9.02197
222 3 -2.80337 11.3733 13.3597
223 3 -2.99376 13.9146 12.7341
43 4 2.48149 9.66525 14.0432
251 3 -2.25661 12.2159 10.9722
248 3 1.44602 8.30779 9.05872
160 2 1.18664 9.0531 16.0164
341 2 -4.37828 14.4774 17.2562
318 3 -7.02625 14.2264 9.1672
320 1 -5.50043 14.161 16.969
321 2 -5.60126 13.4781 16.1275
316 4 -6.49539 12.7975 9.6363
334 2 -2.47022 8.8143 16.6698
344 2 -1.40848 14.1934 15.0343
254 3 2.74054 8.30851 13.2535
250 3 -0.787142 13.2432 9.05673
14 4 -4.21893 7.83402 9.91337
1 4 14.19 1.58455 3.36515
2 1 12.4913 2.34988 2.92323
3 2 12.5079 2.27045 1.81847
4 2 11.5242 2.04984 3.45292
325 2 11.485 4.82766 0.166771
11 4 11.3283 5.68035 4.38624
46 4 8.01242 1.26963 3.30572
49 4 9.83413 3.78192 2.54101
50 4 6.03768 6.88842 3.94142
51 4 8.78297 6.23001 1.02408
52 4 9.68678 6.0833 8.00084
324 2 12.6046 3.8993 1.64893
67 1 12.3024 5.05147 6.02231
8 4 13.877 2.80991 8.88186
82 1 6.95721 4.24135 8.35756
95 2 13.3852 2.86854 7.34977
175 2 7.03023 5.30583 7.90366
117 2 10.9777 3.44442 1.32349
120 2 10.6793 4.98218 7.11202
131 2 11.6585 3.99199 6.01341
132 2 12.215 5.56294 7.01487
157 2 5.98637 6.98824 8.12219
142 2 6.74365 3.03089 0.154535
323 1 12.4919 4.75597 0.823702
173 2 7.66342 3.42548 7.87215
337 2 11.5453 0.827927 2.15231
260 3 8.94788 2.48167 2.89119
261 3 10.6702 4.35438 3.74207
262 3 5.5709 5.63739 3.0766
336 2 7.27179 1.18536 8.10956
264 3 8.97788 4.93252 1.85598
340 2 12.8964 3.44195 3.41206
267 3 10.2384 6.66521 4.88857
268 3 7.60513 7.13226 4.37025
269 3 8.65261 6.86886 6.9844
118 2 7.22455 6.23708 0.144269
119 2 8.80047 4.87905 8.79001
35 4 4.31869 6.6688 6.42491
168 2 10.3287 1.22164 9.15773
27 4 8.27158 0.750343 14.1148
29 4 6.70016 2.85951 12.17
330 2 7.08281 6.89496 16.0645
47 4 9.56314 3.17019 15.2182
48 4 11.3869 2.58577 10.8815
55 4 10.9683 5.112 12.9532
73 1 7.9672 4.06041 11.4292
79 1 8.52022 3.40715 16.8134
80 1 9.86786 2.05752 9.79161
81 1 11.7906 1.11052 12.2315
332 2 8.7428 7.07172 16.8199
96 2 11.787 4.92384 15.577
109 2 5.74196 6.17541 14.2017
116 2 10.1199 3.40656 17.1275
329 1 7.74014 6.5123 16.9151
331 2 7.94806 5.2879 16.7699
240 3 5.68161 3.8067 12.8736
147 2 7.5521 4.96104 10.9091
148 2 8.67423 3.41414 10.7602
149 2 8.39553 4.33473 12.4446
274 3 9.90548 6.19632 12.5013
165 2 8.15483 2.42195 17.0228
166 2 7.86335 3.90672 15.2714
167 2 9.19057 1.58116 10.6216
333 2 13.3394 1.81249 13.221
169 2 9.377 2.89458 9.30893
171 2 10.7401 0.676473 11.9014
174 2 7.17556 4.25267 9.41897
172 2 11.6093 1.55643 13.2503
144 2 7.28039 1.56481 10.4388
229 3 7.51601 1.72759 13.0748
258 3 9.55446 1.60056 14.7357
259 3 12.6068 2.67283 9.8987
347 2 4.17283 7.25955 16.9585
270 3 10.6713 4.54609 14.4475
271 3 11.0405 3.85536 11.9412
121 2 5.53511 7.13974 9.81751
129 2 14.4164 1.40537 11.3726
164 2 7.92123 4.05985 17.5407
265 3 10.5839 6.83523 9.04141
273 3 7.69577 7.49582 11.3655
105 2 7.10015 0.606784 15.2865
45 4 5.23509 13.5823 2.71421
57 4 8.99105 9.11163 1.84745
58 4 3.55018 11.5481 4.32299
59 4 6.35935 11.4554 0.917661
62 4 6.00742 11.5861 6.53338
349 2 8.49955 12.518 2.99666
83 1 5.61004 8.28828 2.51968
84 1 9.11595 9.28384 5.57521
185 2 8.82259 12.9769 0.892495
87 1 7.46157 11.7169 5.32192
88 1 6.00451 13.398 7.26369
110 2 3.6546 9.01066 7.6741
286 3 6.13866 10.472 8.04007
123 2 8.05361 11.5197 1.2807
124 2 7.45518 9.05083 2.62881
125 2 5.99307 10.1421 1.90732
78 1 0.927307 13.9456 2.15076
156 2 5.35998 8.77586 7.95571
176 2 4.50737 8.09843 2.225
115 2 1.99012 14.1753 3.68398
178 2 5.74037 9.11841 3.2561
179 2 9.33376 9.5103 4.46149
180 2 9.95436 9.64019 6.18701
181 2 8.08532 9.73984 6.01531
122 2 8.56743 9.86573 0.401414
183 2 8.75457 9.12411 7.55316
187 2 7.24712 10.7366 4.78737
188 2 8.40156 11.7358 5.89044
189 2 7.24168 12.6803 4.60982
190 2 6.62298 13.414 8.29206
191 2 4.88607 13.7404 7.40232
275 3 9.34298 7.69759 1.42732
277 3 3.36801 10.2152 3.39352
278 3 4.10707 12.8212 3.46305
350 2 6.59225 13.9569 6.49195
280 3 5.73746 12.7643 1.43205
285 3 4.74455 11.3913 5.61059
76 1 5.03197 7.66022 7.98278
276 3 9.99014 10.0838 2.56225
5 3 6.55816 14.0652 3.8041
177 2 6.33261 8.07242 1.72043
54 4 8.86931 7.36055 5.45439
162 2 2.0118 14.0048 1.69704
199 2 3.38453 11.9683 0.0217612
158 2 4.11224 7.44981 8.68641
279 3 2.1158 11.8234 5.01632
85 1 8.44793 9.10266 8.76727
126 2 3.09532 13.2265 8.68949
263 3 5.12819 7.32225 5.17491
287 3 9.27766 8.57884 13.4249
289 3 5.04453 11.7059 17.1995
53 4 6.1634 8.06035 11.1653
198 2 2.0943 13.3465 16.1558
60 4 7.15013 10.3122 9.29509
61 4 2.84225 12.0906 9.95958
63 4 8.6046 9.85239 14.1839
64 4 3.8964 11.7887 15.9799
65 4 8.57616 12.8454 12.8646
89 1 7.68198 9.61108 15.9274
90 1 4.51175 13.2357 14.6538
91 1 2.28472 12.4016 16.7554
92 1 4.56359 12.9524 9.99622
93 1 6.78331 12.7541 12.3283
182 2 9.35737 9.40624 9.33956
327 2 3.19312 8.84399 17.0181
184 2 8.07938 8.09848 9.15801
192 2 7.63382 8.4659 16.2629
193 2 6.82527 9.53473 14.3229
194 2 7.09438 10.2418 16.5834
195 2 4.45864 12.6637 13.6292
196 2 5.53752 13.4826 15.1198
197 2 3.74997 14.0346 14.7145
339 2 8.92497 9.95206 16.0737
284 3 1.96301 12.6361 11.2074
290 3 8.73249 11.4247 13.6999
202 2 5.04169 12.0007 10.4918
203 2 4.63768 13.8076 10.7504
204 2 6.71441 11.7325 11.9081
205 2 6.84993 13.5563 11.5172
206 2 5.98052 12.9602 13.1931
288 3 3.47599 10.2905 15.1106
201 2 5.09521 13.176 9.03084
256 3 1.61939 13.568 13.5967
283 3 2.49853 10.6521 9.34499
272 3 10.4612 8.29601 11.0724
281 3 6.31943 9.56072 10.783
282 3 8.07008 11.5867 9.5041
255 3 2.02007 10.9268 13.1802
266 3 5.10034 7.74837 12.2726
170 2 5.55773 14.454 12.1538
56 4 9.34314 7.60255 12.1649
200 2 1.57026 11.5349 16.5765
44 4 1.39339 12.2777 12.698
ITEM: TIMESTEP
200
ITEM: NUMBER OF ATOMS
350
ITEM: BOX BOUNDS xy xz yz pp pp pp
-8.0552999999999990e+00 1.5678200000000000e+01 -7.0408999999999997e+00
0.0000000000000000e+00 1.4894400000000001e+01 -1.0144000000000000e+00
0.0000000000000000e+00 1.7814683000000002e+01 6.7500000000000004e-01
ITEM: ATOMS id type x y z
346 2 5.20845 1.94719 0.905827
9 4 0.262151 2.52722 5.81842
13 4 -0.0898667 4.95836 8.16159
33 4 5.44544 3.73008 7.51554
23 4 3.0867 2.42283 4.07078
26 4 5.53539 1.40589 5.50545
30 4 4.66232 4.51764 2.40394
31 4 1.52443 7.30171 5.20923
32 4 3.04186 6.8168 0.324126
108 2 5.70139 3.25288 1.85301
306 4 -1.90758 7.21085 3.06505
70 1 2.52318 1.32035 2.55
74 1 1.19268 5.62736 4.30323
97 2 -2.34919 6.57254 5.75379
342 2 -2.36487 4.67146 5.71761
304 3 -0.392447 1.73015 2.32939
140 2 3.0008 1.7003 1.61346
141 2 1.41149 1.37085 2.53
150 2 2.02436 4.9797 4.69039
151 2 1.29599 5.81424 3.18486
152 2 0.235624 5.16132 4.71697
309 2 -0.398142 6.41545 3.48376
207 3 -1.03505 2.40328 4.84112
208 3 0.313472 1.15893 6.6295
212 3 0.0858821 3.99678 6.87605
213 3 -1.10874 6.21618 7.91102
224 3 1.65814 2.64198 4.91373
225 3 2.0546 1.60284 8.5723
226 3 4.1254 1.46794 4.75194
303 2 0.198472 4.77371 0.722582
230 3 3.71794 3.7208 3.35609
232 3 3.818 5.14575 1.09517
15 4 -1.29801 7.3354 6.8135
257 3 6.7893 1.38985 4.51783
302 2 1.22942 3.89099 2.09712
237 3 2.83369 7.01821 6.21049
238 3 4.73523 5.0403 6.82485
139 2 3.03185 0.370659 2.95386
314 3 -3.03573 6.14931 3.55164
299 4 -0.0170896 2.35219 0.643598
300 1 0.938575 3.95304 1.00189
301 2 1.81364 3.87367 0.370342
7 4 1.20306 0.563409 7.82511
234 3 5.7542 2.56447 6.57472
6 4 0.934438 1.55602 16.4023
10 4 -0.855952 2.4826 13.5352
345 2 4.51467 0.640719 16.079
38 4 3.62122 7.14919 12.345
16 4 -0.560425 5.72567 13.5658
17 4 -1.39164 7.41321 11.3113
297 2 2.96719 3.4566 13.3579
28 4 3.53738 3.6259 16.4643
34 4 1.4421 6.99619 9.9673
295 2 1.74757 2.35767 12.4145
37 4 -0.592623 6.88046 16.2546
66 1 -0.18419 2.04451 11.8803
293 1 5.17423 0.67496 15.1703
72 1 6.04665 1.71918 10.8693
143 2 5.34728 2.36446 17.2355
98 2 0.692298 5.94489 12.4047
104 2 2.85692 2.58226 10.9187
298 2 5.71623 1.67989 14.9227
296 2 4.16791 2.11493 12.0125
128 2 -0.145633 3.15428 11.4415
305 3 -0.011348 2.0907 17.6015
130 2 0.866889 1.42438 11.7431
12 4 -3.09277 5.05486 17.0033
25 4 2.91318 2.74755 9.2457
145 2 5.33297 2.27256 10.1787
146 2 5.65557 0.728004 11.233
209 3 -0.0082054 1.38378 14.74
294 2 2.38775 1.49698 14.3358
211 3 -0.775569 3.85039 9.27143
214 3 -0.751805 4.12368 13.57
215 3 -2.73463 7.41874 10.4744
216 3 -1.82698 6.85477 13.0251
228 3 2.42685 2.56883 16.3464
236 3 0.018675 6.68063 10.9013
239 3 4.26084 4.34609 15.2852
338 2 -3.14724 6.00046 12.9159
241 3 0.0527809 6.13611 14.9982
243 3 -2.1064 6.24459 16.7616
244 3 2.77209 7.06708 10.8746
245 3 3.56429 5.67683 12.9855
291 4 4.0123 0.966772 13.4913
292 1 2.7991 2.44337 12.9064
106 2 2.97943 4.73209 17.6525
233 3 4.31473 3.16516 8.97264
36 4 4.78578 4.99547 13.8966
107 2 2.15293 4.23521 9.0242
242 3 0.540392 7.13532 17.3959
210 3 -2.21919 3.71148 17.5383
235 3 1.51181 5.70763 8.91119
129 2 -1.10029 1.49665 11.4302
94 2 -0.8964 1.25154 9.18656
71 1 4.78792 3.13666 17.8054
18 4 -5.39735 11.4614 3.16483
19 4 -2.96157 9.90677 7.93444
20 4 -4.14957 12.2102 6.17821
24 4 -0.283938 13.9204 7.6768
39 4 2.33273 9.16704 2.71677
40 4 2.1168 9.51646 8.43308
42 4 1.15187 11.5717 6.31635
75 1 1.00718 10.3127 1.93534
86 1 -6.06755 12.7653 1.8686
99 2 -4.24124 12.0994 1.94739
100 2 -2.65347 12.9329 5.89655
111 2 -0.318784 11.2202 5.7378
153 2 0.101174 9.7598 2.52003
154 2 1.12194 10.068 0.823247
155 2 1.17462 11.4717 2.14421
231 3 0.137854 7.5734 6.00592
186 2 -5.52641 13.8061 2.17242
218 3 -2.08357 8.65054 7.27861
219 3 -4.91489 11.9567 4.75998
220 3 -3.90053 10.8036 6.8727
221 3 -4.94539 13.1374 7.28097
322 2 -5.15959 13.1843 0.176626
246 3 1.59571 8.35975 3.917
247 3 2.94125 7.98747 1.33695
335 2 -0.68124 9.9469 0.911431
348 2 1.1566 12.8138 2.38269
252 3 1.3794 10.4182 7.32251
253 3 1.01576 12.9865 7.22863
227 3 -1.35619 13.9175 6.41167
249 3 -2.07866 10.963 8.68838
307 4 -1.98942 8.98957 0.633954
308 1 -2.1573 8.83113 4.02925
310 2 -3.27363 10.0457 0.795225
311 2 -2.37337 9.81398 3.43377
312 2 -1.03358 8.77528 4.46769
313 2 -2.98545 8.60885 4.79871
315 3 -2.01933 7.72982 1.5169
163 2 -0.0851243 14.2188 1.88507
317 2 -5.11893 12.4348 8.69235
21 4 -2.35067 10.389 14.3833
22 4 -3.27895 12.334 12.1572
41 4 -1.38356 11.9915 9.6818
68 1 -3.63082 9.15238 14.9146
69 1 -0.786899 9.27684 11.219
77 1 0.784372 9.35604 15.1709
101 2 -0.764135 9.78702 13.9784
102 2 -1.68041 11.3827 15.6683
103 2 -4.84601 12.05 11.6655
112 2 -0.833984 8.53196 15.8375
113 2 -0.2813 11.1719 10.7309
114 2 -0.327413 12.204 12.477
133 2 -2.86145 8.37073 15.3598
134 2 -4.24325 8.83459 14.0328
135 2 -4.19633 9.83265 15.6444
136 2 -0.397685 9.31217 10.1358
137 2 -0.0461145 9.67692 11.9062
138 2 -1.863 9.67784 11.2473
159 2 0.254273 10.3839 15.1861
319 3 -6.14631 13.1057 11.5144
161 2 0.52136 8.47532 14.3899
127 2 -6.86714 14.2149 13.9776
255 3 1.78633 10.8887 13.1809
222 3 -2.95316 11.222 13.2762
223 3 -3.28355 13.8178 12.8157
43 4 2.42613 9.72328 14.0485
251 3 -2.37377 12.2253 10.9376
248 3 1.23927 8.39537 9.10866
160 2 1.46881 9.13311 16.1492
341 2 -4.54453 14.2501 17.1292
318 3 -7.11894 14.0796 9.06943
320 1 -5.6168 14.1378 16.9539
321 2 -5.88213 13.5506 16.0185
316 4 -6.51528 12.7801 9.65996
334 2 -3.0207 9.26329 16.8354
344 2 -1.3573 13.885 14.9202
254 3 2.86719 8.29395 13.3622
250 3 -0.71074 13.2852 9.15812
14 4 -4.32412 7.99887 9.8796
328 2 2.73714 7.89127 16.0278
217 3 -4.03805 9.29837 9.03484
1 4 14.274 1.59049 3.55321
2 1 12.7332 2.45193 2.84229
3 2 12.5616 2.18874 1.70263
4 2 11.9103 2.14442 3.48596
168 2 10.7736 1.81692 8.74053
11 4 11.3263 5.61381 4.32802
46 4 7.97877 1.25816 3.46578
49 4 9.8084 3.76191 2.53571
50 4 6.05201 6.92508 3.86932
51 4 8.85849 6.26405 1.06395
52 4 9.70292 6.05903 7.98846
324 2 12.5526 3.9065 1.43308
67 1 12.2253 4.91117 5.9685
343 2 12.5754 5.75862 0.764163
82 1 7.0543 4.27397 8.34047
95 2 13.4448 2.40466 7.48346
175 2 7.11672 5.3261 7.82366
117 2 10.9123 3.31809 1.30729
120 2 10.6567 4.917 7.16404
131 2 11.6795 3.88087 6.11292
132 2 12.2465 5.54611 6.92176
157 2 6.05981 6.87471 7.9516
142 2 6.52531 3.19086 0.339741
323 1 12.3143 4.66702 0.519589
173 2 7.76087 3.60583 7.71371
337 2 11.6316 0.823498 2.33559
260 3 8.84073 2.48906 2.95236
261 3 10.7611 4.19921 3.76313
262 3 5.53935 5.65067 3.10474
336 2 7.31223 1.31979 8.03855
264 3 8.92684 4.88638 1.82863
340 2 13.0781 3.54691 3.11266
267 3 10.3615 6.7956 4.79171
268 3 7.58168 6.94124 4.42246
269 3 8.70382 6.76409 6.96968
118 2 7.34895 6.51908 0.0875156
35 4 4.38409 6.64335 6.35665
265 3 10.5352 6.95733 8.90459
54 4 8.88154 7.27735 5.3688
162 2 8.7789 0.118044 1.43237
158 2 4.39158 7.39302 8.72678
8 4 13.9159 2.66191 9.09063
27 4 8.36505 0.759814 14.168
29 4 6.77073 2.79113 12.2523
330 2 7.00299 6.91626 16.2123
47 4 9.67803 3.12663 15.2561
48 4 11.4564 2.65697 10.9211
55 4 11.032 5.16174 12.8465
73 1 8.0214 3.93172 11.4469
79 1 8.56479 3.35717 16.8648
80 1 10.044 2.21756 9.5133
81 1 11.7172 1.10885 12.0911
332 2 8.96243 7.10788 16.9364
96 2 11.6887 4.88466 15.5388
109 2 5.8119 6.16605 14.357
116 2 10.1938 3.14054 17.1593
329 1 7.79107 6.49495 16.9679
331 2 7.98244 5.28224 16.8978
240 3 5.64765 3.89 13.1142
147 2 7.62821 4.85223 10.899
148 2 8.75903 3.34137 10.7079
149 2 8.52128 4.1858 12.4808
274 3 9.85446 6.17471 12.7493
165 2 8.08584 2.33386 16.8561
166 2 7.96393 3.98772 15.3216
167 2 9.34592 1.48257 10.0473
333 2 13.4388 1.77008 12.8518
169 2 9.5734 3.19689 9.16397
171 2 10.6705 0.693733 11.8551
174 2 7.33011 4.25039 9.49315
172 2 11.6604 1.64472 13.1216
144 2 7.11814 1.68198 10.3009
229 3 7.56841 1.75047 13.1334
258 3 9.64235 1.60643 14.7703
259 3 12.7213 2.62091 10.016
347 2 4.26807 7.3531 17.1387
270 3 10.8716 4.37478 14.2767
271 3 11.0998 4.0608 11.7219
121 2 5.89214 7.00247 9.64574
119 2 8.724 5.11884 9.02724
164 2 8.24039 3.95281 17.7085
56 4 9.2773 7.53775 12.1706
273 3 7.85159 7.42333 11.4843
325 2 10.3099 5.20238 17.7943
266 3 5.32747 7.54363 12.2093
45 4 5.24971 13.5226 2.80819
57 4 9.12404 9.08648 1.75711
58 4 3.56854 11.4694 4.38078
59 4 6.46588 11.5807 0.863489
62 4 5.93746 11.612 6.43162
349 2 8.45527 12.5467 2.8715
83 1 5.71579 8.26407 2.42045
84 1 9.10859 9.1708 5.52407
185 2 9.22706 12.9214 0.763275
87 1 7.40704 11.7138 5.17745
88 1 5.83436 13.4076 7.13164
110 2 3.54334 8.89202 7.68167