ITEM: TIMESTEP
0
ITEM: NUMBER OF ATOMS
274
ITEM: BOX BOUNDS xy xz yz pp pp pp
-8.3797999999999995e+00 1.8013900000000000e+01 -8.3797999999999995e+00
0.0000000000000000e+00 1.3273200000000001e+01 1.1950000000000001e+00
0.0000000000000000e+00 1.6075500000000002e+01 4.3120000000000003e-01
ITEM: ATOMS id type q x y z
119 2 -0.00564545 7.2892 1.28071 5.43188
12 4 1.33972 -0.850364 6.3146 5.08988
7 4 1.10747 1.18363 2.11864 5.21215
9 4 1.30915 -0.409223 4.50206 1.67757
10 4 1.60288 0.49131 4.36863 7.14443
242 1 -0.68411 3.23127 0.516367 3.07375
21 4 0.80768 5.57513 1.53004 5.74681
26 4 1.28957 5.30107 4.67645 6.87956
41 1 -0.65547 0.969134 0.36643 5.93267
44 1 -0.679105 4.18411 3.98924 1.84591
55 3 -0.80992 1.17977 0.866651 0.965311
56 3 -0.804894 -0.107382 2.4188 4.23866
58 3 -0.811567 -1.60911 4.3428 2.64195
59 3 -0.876294 0.0476743 3.26633 0.872294
243 2 0.166981 3.37129 1.53847 2.71585
61 3 -0.782703 1.48917 3.09119 6.34709
62 3 -0.87232 -0.226637 5.28791 6.10232
74 3 -0.798963 5.43429 0.469342 7.32915
78 3 -0.878336 0.804419 5.22582 2.40178
81 3 -0.772179 5.30122 3.06094 6.02174
84 3 -0.818475 2.81052 5.92371 4.08751
85 3 -0.79295 4.72304 5.87831 6.01409
113 2 0.0989764 -1.69265 5.45167 3.89507
111 2 0.012701 2.63791 2.13092 4.17588
112 2 -0.0262105 -1.01402 5.43382 0.40667
5 4 1.37316 0.452102 2.01246 0.0628111
118 2 -0.0193385 4.41833 0.86199 4.59951
24 4 1.18503 5.03405 5.12744 0.671248
222 3 -0.741732 6.34518 1.62051 1.22299
223 2 -0.0878728 6.14403 1.06204 3.98538
141 2 0.182824 4.50849 2.85385 1.748
142 2 0.199147 3.07296 4.15574 1.64563
143 2 0.195823 4.52496 4.52976 2.83403
220 4 1.02849 6.74934 0.529608 2.32157
135 2 0.203106 1.04179 0.353926 7.12813
25 4 1.44058 1.47301 6.38391 3.2046
267 2 0.174101 -3.64515 6.0618 0.467284
244 2 0.14189 2.87599 0.392139 4.10157
82 3 -0.805357 1.49229 5.20468 8.03763
138 2 0.154764 1.1433 0.479271 11.3859
8 4 1.27544 1.76968 2.67288 10.9206
13 4 1.21003 0.372792 4.9617 12.7316
229 2 -0.019224 3.6453 6.36701 13.2785
20 4 1.30391 4.44618 3.0165 9.26583
23 4 1.22165 6.87044 2.96686 11.2085
99 3 -0.816488 7.96281 1.04695 8.57374
226 4 0.900884 3.62993 6.31389 15.0643
42 1 -0.687954 1.95478 1.13402 11.9736
57 3 -0.822146 0.36573 2.49828 10.1356
63 3 -0.877995 -0.450913 3.83636 13.5016
64 3 -0.79239 1.83849 4.20162 12.2006
65 3 -0.814163 -2.22107 5.73198 9.679
66 3 -0.861881 -0.305617 5.74322 11.516
73 3 -0.809851 3.07695 2.72914 9.97043
75 3 -0.846861 5.47784 3.24592 10.403
76 3 -0.849268 6.7317 1.44764 11.8874
80 3 -0.785252 4.60366 4.31184 8.28405
29 4 0.963582 3.68811 6.36111 11.1064
137 2 0.182677 2.92807 0.706338 11.9182
114 2 -0.044536 0.866531 6.14688 13.8718
248 2 0.151538 3.70332 3.68233 15.3955
124 2 0.0811993 3.30385 4.83112 11.7889
136 2 0.176782 1.55545 1.30467 13.007
179 4 1.26546 7.53303 2.94395 15.6484
183 1 -0.686504 5.90164 2.39024 14.9709
14 4 1.50048 -1.06335 6.65068 10.5119
86 3 -0.792478 2.63568 6.52347 9.98778
196 2 0.163414 5.47131 3.26071 14.4457
117 2 0.100379 4.95752 1.68587 8.27396
227 3 -0.807888 5.07235 5.95369 15.643
195 2 0.212193 6.16728 1.59256 14.1762
245 1 -0.685189 2.92159 3.10139 14.7997
246 2 0.205282 2.54435 3.678 13.8725
247 2 0.180647 3.4157 2.15613 14.5197
123 2 -0.0193053 5.23863 5.90099 10.5368
228 2 -0.0278297 2.4717 5.02604 15.1206
197 2 0.189457 5.28308 1.97772 15.8121
187 3 -0.775279 8.99699 0.4012 12.5636
262 3 -0.817001 0.437087 1.80725 15.1857
27 4 1.41791 1.55502 6.63632 8.81775
60 3 -0.811243 -0.677064 3.64319 8.08193
272 2 0.176984 0.624056 10.1154 0.19338
3 3 -0.828194 -5.83044 11.4824 0.769397
268 2 0.168466 -4.14738 8.18056 1.01344
16 4 1.45686 -3.04583 7.93591 6.65787
17 4 1.26994 -4.3828 9.93424 4.83652
154 2 0.159088 0.927885 9.35204 7.07942
161 2 0.179822 -1.23952 9.99933 0.279228
31 4 1.24528 -2.02081 10.3262 2.95531
33 4 1.15293 -0.0667473 11.1147 5.38026
48 1 -0.671732 -1.175 8.93681 1.98175
49 1 -0.652491 0.0139022 9.43155 6.27296
67 3 -0.841591 -3.76136 7.0118 7.78427
68 3 -0.858329 -1.9371 7.13923 5.88395
28 4 1.20167 3.88318 6.79201 4.90104
70 3 -0.800675 -4.15409 8.57983 5.57333
79 3 -0.845019 0.243385 7.20954 4.41539
87 3 -0.813059 1.80474 7.57654 2.17166
30 4 0.99269 2.49077 8.26903 0.944086
89 3 -0.768605 -2.07028 11.8855 2.09342
90 3 -0.816132 -3.47133 9.92455 3.52909
93 3 -0.821044 -1.03772 10.7725 4.27072
94 3 -0.811607 -0.538335 12.2631 6.48202
115 2 -0.016053 -3.89876 11.2085 5.75364
147 2 0.163912 1.79678 7.49509 6.56043
151 2 0.193723 -0.0969376 9.32337 1.56638
152 2 0.149569 -2.00707 8.82335 1.19033
153 2 0.200966 -1.13184 8.01794 2.62734
251 1 -0.661527 -5.13632 8.7563 1.21081
155 2 0.280599 0.075713 8.55358 5.54223
156 2 0.278923 -1.02348 9.42747 6.86379
46 1 -0.66413 2.42154 7.85765 7.52623
148 2 0.179584 3.532 7.64099 7.47862
265 2 0.192246 -4.39581 12.5846 2.59846
19 4 1.3143 -1.37747 12.7614 7.81807
1 4 1.34824 -6.57361 12.5255 1.81084
69 3 -0.84219 -5.87533 10.3165 4.37947
91 3 -0.849273 -2.51568 9.54704 7.62173
133 2 0.181754 -6.61277 12.6173 5.45148
47 1 -0.654158 1.65964 9.93707 0.794278
252 2 0.228062 -5.25937 9.16971 2.24517
149 2 0.148321 2.18066 8.95077 7.8083
122 2 -0.00577485 3.11748 8.11423 5.72807
271 2 0.151138 1.52863 10.1543 1.93142
270 2 0.181685 0.538648 12.1474 2.23714
159 2 0.194286 1.50685 10.3528 12.2582
18 4 1.23009 -2.26083 8.16032 12.8736
22 4 1.28701 -0.871936 12.9771 12.0158
32 4 0.986476 -2.52546 10.322 8.90442
35 4 1.2642 -1.46811 10.729 14.1939
15 4 1.10676 -4.06099 10.6954 16.0407
160 2 0.168855 0.853536 10.6147 14.6169
157 2 0.161589 2.65868 9.80165 10.7637
51 1 -0.652403 0.0491273 11.0102 15.3176
162 2 0.208924 0.110711 12.1073 15.4924
72 3 -0.836924 -1.91672 7.88593 11.2249
83 3 -0.792806 0.151249 7.22789 9.27592
88 3 -0.760776 3.1273 7.7108 15.5948
92 3 -0.807735 -1.46019 11.4175 9.18507
95 3 -0.800475 3.76137 7.74983 11.9354
96 3 -0.769442 -1.15899 9.188 13.3477
97 3 -0.811677 -1.38783 11.845 12.9577
98 3 -0.834101 -2.77448 10.7152 15.1413
116 2 -0.0409909 -3.61761 9.10365 12.7059
120 2 0.113785 -0.852728 12.2831 10.4652
126 2 0.091623 -2.22415 9.1855 10.1368
127 2 -0.0560445 -4.09492 10.5767 9.40541
128 2 0.0266431 2.43217 9.73166 13.705
140 2 0.164892 -5.89347 11.3783 14.5862
50 1 -0.649226 2.58338 10.4083 11.8812
139 2 0.157957 -4.73308 10.2707 13.7749
71 3 -0.841167 -2.45395 6.90343 13.7196
235 2 0.166194 11.8056 1.61532 2.68864
37 4 1.24828 13.0184 2.14963 5.56138
221 1 -0.645729 8.62001 0.377067 2.30219
39 4 1.28512 11.1455 3.90166 7.55119
45 1 -0.69711 7.1492 5.04019 7.20671
54 1 -0.644145 10.3512 5.45747 6.83948
101 3 -0.829151 14.0394 3.06607 4.7676
102 3 -0.83098 13.6591 1.02744 6.57374
234 2 0.1758 11.5226 0.284332 1.56711
4 4 1.44014 15.1382 2.70832 3.67663
106 3 -0.781325 11.8666 3.04875 6.28152
232 3 -0.771289 14.5507 1.46999 2.78535
129 2 0.00289272 12.2041 1.29532 4.34813
130 2 0.0958485 7.68645 6.13691 3.76112
169 2 0.224875 10.8002 6.35679 7.34042
250 2 0.177747 11.9923 4.57927 0.61429
146 2 0.176414 7.72174 4.20086 6.77161
231 1 -0.666255 11.8363 0.474425 2.62765
145 2 0.164156 7.38393 6.03444 6.79939
170 2 0.177622 9.11411 5.28497 6.9254
171 2 0.186672 10.7529 5.28164 5.73848
207 4 1.2471 14.4008 0.314132 7.79775
224 2 0.183203 8.90597 1.05229 1.4192
225 2 0.116647 8.76585 0.878169 3.40481
134 2 0.257147 16.7827 0.151423 5.56396
249 1 -0.635963 12.8734 5.05607 0.0660997
11 4 1.51095 13.1253 6.1146 9.08873
36 4 1.33217 8.98602 2.18571 9.17093
52 1 -0.6733 10.2748 1.09253 10.0101
188 3 -0.796479 8.74351 2.16366 14.8458
100 3 -0.838747 8.15969 3.01364 10.2841
107 3 -0.771685 12.3602 4.50991 8.692
110 2 0.0421178 14.5537 3.20653 10.1136
121 2 -0.0262873 7.10468 4.10456 12.3908
202 2 0.169585 13.9108 3.49193 11.7613
163 2 0.175578 11.1301 1.78292 10.1061
77 3 -0.727452 7.55809 4.48725 15.8917
165 2 0.246851 9.83014 0.827658 11.0191
172 4 1.00729 16.1056 2.38513 14.1185
173 1 -0.661532 14.7251 1.26757 13.2365
174 2 0.0437408 14.3688 2.39008 14.7195
175 2 0.0792679 16.0312 1.01347 12.5796
176 2 0.165558 14.1118 1.89183 12.4882
6 4 1.34588 15.8736 2.57079 9.19452
178 4 1.07488 13.8908 5.37954 14.3884
180 4 1.23599 9.82585 1.44897 13.9114
181 4 1.31496 11.7798 3.83031 12.6476
205 2 0.156809 9.22268 5.70628 9.53071
185 1 -0.688875 12.9362 3.11187 11.2227
144 2 0.182309 7.17624 5.0168 8.33628
189 3 -0.774396 10.9401 2.56959 13.1633
190 3 -0.835351 12.9202 4.39244 13.7137
192 3 -0.81207 10.8292 5.02366 11.9495
263 3 -0.860964 15.3349 1.216 8.74241
199 2 0.168683 11.7806 0.733549 14.9788
200 2 0.253484 12.6699 3.60216 10.1655
201 2 0.147299 12.7501 2.00087 11.2701
182 4 1.04538 10.7591 6.26792 11.0515
105 3 -0.822225 9.90656 3.08012 8.13012
266 2 0.071388 15.181 4.49499 15.5579
237 1 -0.683333 7.79378 10.352 0.533119
256 2 0.142685 1.78722 11.5531 3.63825
167 2 0.179018 8.98881 7.34133 2.53938
53 1 -0.646898 8.24951 7.41779 3.307
104 3 -0.803236 5.014 7.49607 3.90368
233 2 0.160588 2.80503 12.7179 3.47023
125 2 -0.00775915 4.2103 8.37084 1.14951
150 2 0.146157 2.52747 10.5349 0.260169
166 2 0.00153998 7.08594 8.78593 2.58198
168 2 0.159831 8.58796 7.91279 4.24548
206 4 1.18741 9.4664 10.5965 3.95263
215 2 0.153268 5.19946 9.42063 6.37893
208 4 0.980982 7.56826 10.2884 6.77075
209 1 -0.647146 6.27159 9.02836 6.22123
255 2 0.161238 1.44936 12.8044 5.1402
211 3 -0.748928 8.55672 10.6843 5.3322
212 3 -0.74163 6.80135 11.9188 7.29546
213 2 -0.00544501 8.84451 9.21339 3.01634
254 1 -0.665341 1.68552 11.6806 4.82695
216 2 0.14574 6.59624 8.20047 6.98939
217 2 0.176956 6.62018 8.90389 5.10111
230 4 1.09509 5.30992 12.7707 2.51065
253 2 0.139558 10.8216 8.14383 0.884796
103 3 -0.77563 5.84021 6.48092 1.52751
238 3 -0.803759 5.5804 12.0672 1.10526
240 2 0.197418 8.13233 10.5926 1.53261
38 4 0.992271 6.23108 7.23268 2.83902
257 2 0.143781 2.48229 11.1132 5.41042
258 1 -0.656882 5.87492 11.4506 3.74837
259 2 0.147167 5.73359 10.4028 3.27118
260 2 0.138536 4.983 11.6941 4.50884
261 2 0.225449 6.90613 11.4586 4.27085
239 2 0.125303 6.95345 9.40801 0.657556
2 3 -0.818318 9.28316 11.8822 2.91151
274 2 0.147777 8.58898 8.45974 7.77482
198 2 0.166406 2.36599 12.0802 14.2257
40 4 0.944036 6.42653 10.9716 13.1639
108 3 -0.816866 5.23244 10.0685 12.9484
109 3 -0.838047 6.97082 11.4051 14.5127
214 2 -0.0379178 4.83378 12.425 8.81207
132 2 -0.0325912 7.64246 10.183 12.3087
236 4 1.05404 7.55053 11.862 15.9459
203 2 0.176473 8.86714 7.67284 9.43455
131 2 -0.0153078 6.19306 12.4106 12.2076
193 2 0.0690406 11.1769 9.43592 15.5302
218 2 0.145653 7.88276 9.47098 9.16863
194 2 0.00417299 9.84054 7.64029 11.7376
241 2 0.178917 9.80689 10.625 15.8204
269 2 0.14296 10.3279 9.97985 13.5405
264 2 0.0828144 9.21974 12.4353 15.6585
164 2 0.1638 2.16069 12.973 9.39346
34 4 0.991606 3.81307 9.25008 12.6556
191 3 -0.819912 12.0951 6.7428 10.1411
158 2 0.157708 3.1129 11.4563 11.81
210 1 -0.665057 8.51154 9.49203 8.25312
43 1 -0.665177 11.1459 10.3352 14.2843
219 2 0.172383 9.49787 9.93915 8.50792
184 1 -0.660878 2.4031 13.0733 14.8954
273 2 0.176705 1.83339 12.9686 15.907
186 1 -0.665119 9.13737 6.81865 10.1517
177 2 0.169019 5.79959 13.1532 13.6406
204 2 0.145705 8.34547 6.77622 10.9171
ITEM: TIMESTEP
100
ITEM: NUMBER OF ATOMS
274
ITEM: BOX BOUNDS xy xz yz pp pp pp
-8.3797999999999995e+00 1.8013900000000000e+01 -8.3797999999999995e+00
0.0000000000000000e+00 1.3268995275000000e+01 1.1950000000000001e+00
0.0000000000000000e+00 1.6075500000000002e+01 4.2699527499999945e-01
ITEM: ATOMS id type q x y z
119 2 -0.0205796 7.41634 1.36638 5.33057
12 4 1.33467 -0.923895 6.22765 5.24105
7 4 1.12711 1.1117 2.1008 5.04873
9 4 1.27409 -0.488348 4.57992 1.79624
10 4 1.62775 0.583845 4.29716 7.12023
242 1 -0.659781 3.59881 0.463926 2.94753
21 4 0.792502 5.75893 1.59605 5.64882
26 4 1.3234 5.23926 4.50011 6.83908
41 1 -0.638544 0.696085 0.558083 6.10324
44 1 -0.670013 4.03739 4.10085 1.73252
55 3 -0.762918 1.13055 0.891538 1.01855
56 3 -0.864069 -0.182193 2.33804 4.26501
58 3 -0.814677 -1.75332 4.29727 2.70013
59 3 -0.861876 -0.0592056 3.46555 0.782773
243 2 0.151203 3.35082 1.54624 2.58037
61 3 -0.799739 1.46744 3.16296 6.20177
62 3 -0.871918 -0.172075 5.30542 6.179
74 3 -0.799753 5.59718 0.562849 7.32422
78 3 -0.875144 0.716458 5.28619 2.49744
81 3 -0.804301 5.4373 3.14758 5.95981
84 3 -0.828802 2.79442 6.26444 3.98212
85 3 -0.803851 4.60318 5.60219 5.90051
113 2 0.0834 -1.67861 5.27548 4.04671
111 2 -0.0154241 2.43323 1.71444 3.95774
112 2 -0.0127415 -1.09091 5.8934 0.967158
5 4 1.29047 0.289657 2.04554 0.0425166
118 2 -0.00395036 4.54457 0.834673 4.55537
24 4 1.27149 5.0818 5.11942 0.488603
222 3 -0.775485 6.4152 1.67007 1.12559
223 2 -0.0927056 6.26078 1.02627 3.96463
141 2 0.185442 4.54094 3.1116 1.93168
142 2 0.178619 2.92414 3.97718 1.40837
143 2 0.212996 4.18615 4.80058 2.58166
220 4 1.0094 6.77457 0.558374 2.28141
135 2 0.239776 0.396809 0.975925 7.17641
267 2 0.172937 -3.79416 6.13522 0.507792
60 3 -0.813652 -0.473435 3.49512 7.97252
138 2 0.153078 0.74673 0.723936 11.7385
8 4 1.23917 1.69248 2.72596 10.9434
13 4 1.20761 0.310393 4.91407 12.7024
229 2 -0.0366865 3.65771 6.38845 13.443
20 4 1.27194 4.61392 2.99979 9.36107
23 4 1.24986 6.88569 2.84155 11.3539
99 3 -0.85893 7.94627 1.29716 8.27308
226 4 0.935157 3.70249 6.31875 15.1556
42 1 -0.672603 1.80526 1.19749 11.9764
57 3 -0.810614 0.25514 2.52206 10.1859
63 3 -0.880609 -0.53868 3.84279 13.4833
64 3 -0.797375 1.77744 4.21621 12.2156
65 3 -0.824959 -2.14318 5.76255 9.40383
66 3 -0.856814 -0.489877 5.54464 11.4081
73 3 -0.769165 3.16987 2.73513 9.99862
75 3 -0.869818 5.66257 3.29042 10.4847
76 3 -0.843678 6.68808 1.31729 11.9812
80 3 -0.781054 4.52569 4.23626 8.33279
29 4 0.975199 3.76221 6.41266 11.2092
137 2 0.168858 2.60981 0.554901 11.5466
114 2 -0.0409254 0.58222 6.22913 13.7824
248 2 0.154475 3.55085 3.6914 15.6825
124 2 0.0579613 3.09509 5.21165 12.203
136 2 0.178299 1.98128 1.33263 13.0678
179 4 1.28653 7.52131 2.68019 15.6915
183 1 -0.67188 5.95008 2.17503 14.8978
14 4 1.52339 -1.02864 6.55312 10.3824
86 3 -0.814615 2.73064 6.62023 10.0577
196 2 0.173517 5.58882 3.03439 14.2816
117 2 0.102938 5.15293 1.70102 8.32407
227 3 -0.826112 5.13397 6.00136 15.5219
195 2 0.227781 6.16107 1.2255 14.2347
245 1 -0.682897 2.89596 3.07728 14.9346
246 2 0.197322 2.53623 3.59325 14.0448
247 2 0.177324 3.27539 2.07733 14.6603
123 2 0.00133127 5.1847 5.85443 10.5503
228 2 -0.0135126 2.58481 5.02719 15.3308
197 2 0.186765 5.17486 1.90524 15.6497
266 2 0.0704591 -1.53101 4.75067 15.6789
262 3 -0.798197 0.271048 1.78059 15.2507
82 3 -0.776714 1.40078 5.36096 8.163
121 2 -0.00770715 6.90289 3.90362 12.701
71 3 -0.823264 -2.35653 6.71359 13.6886
272 2 0.175108 0.613061 10.2112 0.183806
3 3 -0.791395 -5.87116 11.1976 1.02574
268 2 0.170406 -3.85544 8.49566 1.15758
16 4 1.47126 -3.23394 7.98035 6.692
17 4 1.26303 -4.44323 9.9766 4.85459
154 2 0.177557 0.973032 9.44824 7.26672
161 2 0.194597 -1.29115 10.1663 0.250909
31 4 1.19573 -1.97116 10.5041 2.9864
33 4 1.15119 0.158618 11.0546 5.45627
48 1 -0.651308 -1.22995 9.09942 1.97871
49 1 -0.675338 0.169234 9.40569 6.54334
25 4 1.41082 1.35626 6.55553 3.37511
68 3 -0.821985 -2.06345 7.2175 5.92773
28 4 1.21074 3.94427 6.79809 4.91376
70 3 -0.787775 -4.40537 8.55738 5.62845
79 3 -0.837652 0.146116 7.15457 4.58263
87 3 -0.779511 1.74444 7.94888 2.36817
30 4 1.05686 2.27852 8.24012 0.925849
89 3 -0.743282 -2.12615 11.9547 1.8179
90 3 -0.835082 -3.37959 10.1463 3.66793
93 3 -0.788944 -0.728341 10.8588 4.21682
94 3 -0.806916 -0.546892 12.1116 6.48281
115 2 -0.021922 -4.08764 11.1459 6.03718
147 2 0.164442 1.89598 8.44445 6.8945
151 2 0.191337 -0.0798169 9.40575 1.4996
152 2 0.153602 -2.09902 9.03907 1.20872
153 2 0.195234 -1.1897 8.21299 2.7146
251 1 -0.645413 -5.01579 8.68163 1.33332
155 2 0.275491 0.185547 8.50079 5.80598
156 2 0.296487 -0.84852 9.40825 7.03945
46 1 -0.66157 2.56857 7.97378 7.72456
148 2 0.165887 3.40502 7.23662 7.29012
265 2 0.223142 -4.26872 12.4864 2.20494
19 4 1.35482 -1.29131 12.8398 7.74717
1 4 1.23213 -6.53881 12.5167 1.97928
69 3 -0.864018 -5.89855 10.275 4.43849
91 3 -0.842835 -2.50691 9.38777 7.6385
133 2 0.148423 -6.71629 12.7969 6.05575
47 1 -0.656633 1.64514 10.0568 0.730813
252 2 0.223136 -5.21112 9.00341 2.36551
15 4 1.08398 -5.3283 10.0463 0.0954763
122 2 0.00139763 3.34244 8.07906 5.8997
271 2 0.167172 1.64987 10.4568 1.80977
244 2 0.127415 -5.28127 12.7869 3.93135
159 2 0.186321 1.47476 9.72806 11.9597
18 4 1.2356 -2.11162 8.13933 12.7371
22 4 1.2334 -0.835586 12.8784 12.0526
32 4 0.943096 -2.4408 10.2739 8.90333
35 4 1.23196 -1.42037 10.7151 14.1185
50 1 -0.663623 2.4389 10.3 11.889
160 2 0.162488 0.845112 10.4141 14.6146
27 4 1.43436 1.63846 6.74739 8.94211
51 1 -0.653179 0.0793261 11.0231 15.2268
162 2 0.20396 0.319663 12.105 15.3381
72 3 -0.858895 -1.76476 7.91907 11.2714
83 3 -0.813759 0.196961 7.20983 9.43762
88 3 -0.824812 3.13609 7.70494 15.7578
92 3 -0.795931 -1.34452 11.4455 9.03433
95 3 -0.844075 4.00753 7.80755 11.8877
96 3 -0.802184 -1.17451 9.11827 13.5536
97 3 -0.840349 -1.54167 11.8667 13.0119
98 3 -0.759024 -2.88273 10.6224 15.2515
116 2 -0.0264959 -3.6597 8.68824 12.7017
120 2 0.0726313 -0.831865 12.2071 10.5065
126 2 0.0857065 -2.16332 9.06948 10.0221
127 2 -0.0595006 -3.91287 10.8458 9.37274
128 2 0.034007 2.70597 9.4747 13.6099
139 2 0.146859 -4.57015 10.3792 13.5979
149 2 0.15508 3.00955 8.7721 8.4218
187 3 -0.782303 0.818698 13.1226 12.4091
140 2 0.153411 -6.03994 11.3039 14.3562
235 2 0.151927 11.6952 1.68799 2.83465
37 4 1.2866 12.9994 2.11453 5.63024
221 1 -0.666834 8.65422 0.56732 2.4075
39 4 1.32669 11.1811 3.90541 7.43789
45 1 -0.675244 7.03846 5.13476 7.18288
54 1 -0.656268 10.2314 5.39293 6.65813
101 3 -0.828849 14.2349 2.77949 4.95367
102 3 -0.805154 13.6111 1.00169 6.62342
234 2 0.172801 11.2994 0.335049 1.58256
4 4 1.48456 15.2028 2.59081 3.71346
106 3 -0.848686 11.959 3.08059 6.33156
232 3 -0.828376 14.5901 1.30062 2.91705
129 2 -0.0128254 12.2456 1.18698 4.3844
130 2 0.0954007 7.68481 6.10599 3.70076
169 2 0.226359 10.7303 6.27828 7.12957
250 2 0.172947 11.9049 4.49573 0.469175
146 2 0.17358 7.66867 4.30455 6.71335
231 1 -0.661877 11.7763 0.591405 2.57019
145 2 0.165215 7.08119 6.10116 6.59306
170 2 0.189403 9.08153 5.30713 6.75193
171 2 0.173078 10.5377 5.25657 5.55654
207 4 1.26057 14.3975 0.268324 7.84962
224 2 0.175491 9.05082 1.41285 1.80415
225 2 0.134276 8.71374 0.699634 3.5221
249 1 -0.640188 12.8178 5.07395 0.124709
230 4 1.17684 13.7168 0.0893098 2.48421
103 3 -0.790277 5.74327 6.45518 1.5134
134 2 0.245657 16.6645 0.146988 5.4595
11 4 1.43214 13.0743 5.9933 9.05637
36 4 1.31161 8.98091 2.19607 9.05147
52 1 -0.664088 10.2974 1.01613 9.74703
188 3 -0.803176 8.71377 2.13748 14.7555
100 3 -0.787158 8.22432 2.97732 10.5846
107 3 -0.805412 12.183 4.44808 8.62754
110 2 0.0393203 14.5021 3.5198 10.0911
105 3 -0.807709 9.82063 3.1447 8.19735
202 2 0.16616 13.9561 3.56764 11.7141
163 2 0.179077 11.2512 1.61374 9.78574
77 3 -0.743551 7.24509 4.47835 15.8856
165 2 0.246452 9.88016 0.712576 10.891
172 4 1.00676 15.9436 2.45797 14.133
173 1 -0.66661 14.6887 1.335 13.1385
174 2 0.0336998 14.3057 2.19841 14.7987
175 2 0.0902363 15.9311 1.00889 12.5529
176 2 0.167755 14.0886 1.92392 12.3377
6 4 1.30635 15.784 2.68353 9.20506
178 4 1.12121 13.9774 5.47543 14.4267
180 4 1.25326 9.9101 1.45089 13.7785
181 4 1.27809 11.8044 3.75 12.5742
205 2 0.173131 9.01053 5.88074 9.75462
185 1 -0.683618 12.9406 3.14281 11.1848
144 2 0.182199 7.13223 5.23309 8.29254
189 3 -0.805997 10.9986 2.39451 13.1681
190 3 -0.787274 12.9266 4.54812 13.6875
192 3 -0.794536 10.9491 4.95416 11.8181
263 3 -0.848834 15.2271 1.26531 8.64485
199 2 0.176436 11.8574 0.746672 14.9154
200 2 0.251264 12.6037 3.62868 10.1262
201 2 0.139479 12.8511 1.97071 11.1756
182 4 1.04836 10.8209 6.2829 11.0278
177 2 0.158003 14.1169 0.405226 13.5961
273 2 0.182332 10.2374 0.451618 15.8872
237 1 -0.66721 7.68507 10.0818 0.354764
256 2 0.166981 2.12854 11.2145 3.9521
167 2 0.149232 8.64404 7.57435 2.4832
53 1 -0.648291 8.00036 7.49113 3.43722
104 3 -0.807849 5.0034 7.60617 3.93222
233 2 0.15876 2.85512 12.7852 3.4073
125 2 0.00625243 3.97261 8.40876 0.924798
150 2 0.151869 2.55834 10.4892 0.153863
166 2 0.0243003 7.0326 8.7046 2.31568
168 2 0.173182 8.35691 8.00768 4.38601
206 4 1.21668 9.4833 10.5013 3.95668
215 2 0.175136 5.43207 9.85163 5.80003
208 4 1.08399 7.7148 10.4621 6.60188
209 1 -0.639973 6.25653 9.20451 6.27649
255 2 0.144723 1.61902 12.7535 4.97324
211 3 -0.813241 8.48425 10.4297 5.27327
212 3 -0.77487 6.77988 11.8923 7.23771
213 2 -0.00936638 8.86564 9.25294 2.9187
254 1 -0.685641 1.90673 11.6147 4.94231
216 2 0.151585 6.07117 8.7582 7.2815
217 2 0.184674 6.76366 8.47139 5.51658
219 2 0.166467 9.66091 10.028 7.90215
253 2 0.123217 11.0356 7.89936 0.841473
270 2 0.172619 0.62137 12.368 2.01224
238 3 -0.781303 5.66718 12.1992 1.10427
240 2 0.171374 8.09257 10.4217 1.37349
38 4 1.0181 6.12295 7.21638 2.85497
257 2 0.148416 2.67397 11.4168 5.7412
258 1 -0.679272 5.48499 11.6149 3.88954
259 2 0.163286 4.86316 10.7412 3.63873
260 2 0.171856 5.01432 12.1988 4.74818
261 2 0.214647 6.48355 11.3176 4.17574
239 2 0.138505 6.92542 9.10866 0.232411
2 3 -0.814838 9.30082 11.914 3.05351
274 2 0.178155 8.96897 8.44977 7.41471
67 3 -0.816057 12.8978 6.97167 7.68631
210 1 -0.663543 8.74202 9.43627 7.88916
198 2 0.160878 2.36997 12.0675 14.4635
40 4 0.892524 6.41286 11.1091 13.0904
108 3 -0.824739 5.16215 10.1178 12.8292
109 3 -0.833562 6.83232 11.3345 14.5868
214 2 -0.0446123 4.83706 12.6074 8.97857
132 2 -0.0459471 7.7661 10.5903 12.3102
236 4 1.04646 7.47368 11.6984 15.9084
203 2 0.175472 9.26245 7.85253 9.53661
131 2 -0.0225182 6.27168 12.5349 12.0786
193 2 0.0615863 11.1967 9.35912 15.2827
218 2 0.140588 8.26882 9.26909 8.91169
194 2 -0.00259656 9.97003 7.48735 11.9859
241 2 0.159361 9.79206 10.4178 15.5452
269 2 0.147883 10.4196 9.82904 13.2918
264 2 0.0779424 9.05619 12.3114 15.6484
164 2 0.163269 1.91109 12.9905 9.0081
34 4 1.06698 3.9905 9.2725 12.4005
204 2 0.139421 8.50023 7.13527 11.1096
158 2 0.197043 2.29829 11.2852 12.3934
157 2 0.128928 2.93476 10.3077 10.7245
43 1 -0.630189 11.1064 10.2461 14.055
191 3 -0.804114 12.2561 6.77333 10.2651
184 1 -0.658118 2.44098 13.1608 14.9297
186 1 -0.677416 9.23723 6.95693 10.2276
ITEM: TIMESTEP
200
ITEM: NUMBER OF ATOMS
274
ITEM: BOX BOUNDS xy xz yz pp pp pp
-8.3797999999999995e+00 1.8013900000000000e+01 -8.3797999999999995e+00
0.0000000000000000e+00 1.3264790550000001e+01 1.1950000000000001e+00
0.0000000000000000e+00 1.6075500000000002e+01 4.2279055000000021e-01
ITEM: ATOMS id type q x y z
119 2 -0.0163008 7.39372 1.33772 5.26368
12 4 1.3775 -1.05089 6.30185 5.23914
7 4 1.09453 1.14581 2.13179 5.14585
9 4 1.24314 -0.587913 4.73192 1.84222
10 4 1.6073 0.485399 4.36263 7.09065
242 1 -0.662 3.43708 0.399124 2.9906
21 4 0.769258 5.76066 1.52515 5.62542
26 4 1.32413 5.24854 4.58872 6.71261
41 1 -0.663186 0.597064 0.670326 6.22006
44 1 -0.672192 4.17507 3.99913 1.76104
55 3 -0.810744 1.07729 0.814525 1.11764
56 3 -0.810914 -0.0890839 2.32571 4.16897
58 3 -0.822872 -1.81394 4.23667 2.80141
59 3 -0.819803 -0.0343912 3.44129 0.946126
243 2 0.15182 3.13253 1.4908 2.75756
61 3 -0.769727 1.46255 3.39958 6.11346
62 3 -0.879683 -0.415175 5.29611 6.23692
74 3 -0.805055 5.5803 0.495228 7.31422
78 3 -0.864571 0.604853 5.36984 2.53606
81 3 -0.782811 5.45258 3.13125 5.91178
84 3 -0.814288 2.61345 6.27034 4.24943
85 3 -0.801702 4.5778 5.78133 6.0102
113 2 0.0729118 -1.91385 5.43679 4.09648
111 2 -0.0132525 2.56724 1.41695 4.40402
112 2 -0.0255321 -1.22561 5.77217 0.656818
5 4 1.29947 0.393771 2.07814 0.243102
118 2 -0.00511134 4.51149 1.02432 4.48168
24 4 1.18904 5.01787 5.03704 0.526731
222 3 -0.783905 6.44208 1.60319 1.0021
223 2 -0.087612 6.31717 1.09346 3.83919
141 2 0.187881 4.59429 2.97019 1.77239
142 2 0.185466 3.02258 4.06017 1.59618
143 2 0.191336 4.52078 4.71853 2.70146
220 4 0.982364 6.96625 0.593145 2.2212
135 2 0.249788 0.144902 1.10394 7.08758
60 3 -0.839199 -0.474068 3.3611 7.94362
82 3 -0.779999 1.63688 5.27357 7.99402
138 2 0.14972 1.21469 0.485151 11.4627
8 4 1.24894 1.68911 2.69034 10.9839
13 4 1.20438 0.309059 4.86773 12.5303
229 2 -0.0357676 3.74977 6.47486 13.4175
20 4 1.24709 4.59544 2.96075 9.34342
23 4 1.25814 6.96866 2.77253 11.2656
99 3 -0.841768 7.92593 1.20714 8.42031
226 4 0.919519 3.58723 6.3981 15.1156
42 1 -0.67241 1.86953 1.22633 12.083
57 3 -0.827815 0.285539 2.58889 10.2209
63 3 -0.88224 -0.576406 3.92294 13.4393
64 3 -0.79966 1.83766 4.15928 12.3842
65 3 -0.855999 -2.23551 6.00794 9.32392
66 3 -0.835518 -0.47048 5.31815 11.1721
73 3 -0.763327 3.05935 2.7648 10.025
75 3 -0.86187 5.64073 3.17975 10.511
76 3 -0.851376 6.85063 1.34506 12.0128
80 3 -0.757044 4.65462 4.16574 8.29864
29 4 0.946568 3.83888 6.33263 11.1674
137 2 0.167805 3.01458 0.929913 12.0524
114 2 -0.0308809 0.473527 6.23806 13.4597
248 2 0.143224 3.45019 3.77076 15.7739
124 2 0.0713852 3.10507 5.1708 12.2323
136 2 0.183439 1.45298 1.37134 13.1477
179 4 1.27436 7.49673 2.71427 15.6156
183 1 -0.68324 5.96994 1.81877 15.0544
14 4 1.47426 -0.998631 6.6152 10.2154
86 3 -0.833983 2.69785 6.39977 10.0949
196 2 0.165901 5.30994 2.66238 14.7687
117 2 0.0983581 5.04436 1.59561 8.37838
227 3 -0.822611 4.97448 6.03255 15.7137
195 2 0.251963 6.25703 1.12977 14.2207
245 1 -0.670489 2.89446 3.07242 14.9991
246 2 0.231472 2.42642 3.56449 14.126
247 2 0.180239 3.57506 2.17983 14.7867
123 2 0.00148601 5.19966 5.62642 10.6045
228 2 -0.017283 2.57536 5.0466 15.0551
197 2 0.199047 5.66812 1.29766 16.0035
266 2 0.0661817 -1.56996 4.82256 15.796
262 3 -0.803326 0.28935 2.03688 15.2131
27 4 1.37864 1.72576 6.5545 8.9368
71 3 -0.838443 -2.43294 6.77971 13.6744
272 2 0.177908 0.746709 10.3985 0.129096
3 3 -0.763029 -6.0093 11.3179 1.02153
268 2 0.173957 -3.93435 8.31773 0.993276
16 4 1.50532 -3.25633 8.00254 6.66376
17 4 1.24834 -4.50168 10.0305 4.92463
154 2 0.166768 0.957051 9.42011 7.22052
161 2 0.190666 -1.19612 10.177 0.214061
31 4 1.27598 -1.75328 10.5338 3.04398
33 4 1.16593 0.243834 11.2121 5.40768
48 1 -0.647534 -1.11744 9.10045 1.93163
49 1 -0.643945 0.107493 9.50458 6.42578
25 4 1.39954 1.28954 6.62285 3.37867
68 3 -0.855692 -2.12412 7.13425 5.93001
28 4 1.20429 3.86358 6.90158 5.0247
70 3 -0.792574 -4.29624 8.59275 5.61338
79 3 -0.833091 -0.0438383 7.28785 4.53193
87 3 -0.792731 1.49652 7.91114 2.29849
30 4 0.968331 2.2566 8.32354 0.965666
89 3 -0.788467 -1.833 11.806 2.07343
90 3 -0.782713 -3.26229 10.1572 3.87207
93 3 -0.819414 -0.561208 10.856 4.11658
94 3 -0.825033 -0.350815 12.2629 6.40374
115 2 -0.0346442 -4.35065 11.3354 6.05393
147 2 0.163156 1.99164 8.36147 7.13357
151 2 0.211881 -0.0674578 9.46753 1.47724
152 2 0.160964 -1.97753 9.01099 1.19988
153 2 0.214888 -0.990328 8.17654 2.64582
251 1 -0.655296 -5.04379 8.46747 1.32421
155 2 0.276569 0.163765 8.6844 5.57994
156 2 0.28383 -0.984052 9.52744 6.91962
46 1 -0.665147 2.6652 7.94361 7.88948
148 2 0.188102 3.55099 7.39057 7.54634
265 2 0.195936 -4.28709 12.6451 2.187
19 4 1.34049 -1.28841 12.8212 7.69808
1 4 1.33238 -6.61519 12.5122 1.96874
69 3 -0.852206 -5.92521 10.0897 4.30646
91 3 -0.841371 -2.52995 9.48949 7.65675
133 2 0.148805 -6.84566 12.8816 6.44354
47 1 -0.660049 1.74887 10.1253 0.685835
252 2 0.220152 -5.27445 8.74199 2.43207
15 4 1.0031 -5.35534 9.91335 0.0946681
122 2 -0.0163238 3.34097 8.20179 6.02955
244 2 0.138871 -5.25394 12.6966 4.00678
2 3 -0.831292 -7.45353 11.8736 3.13381
159 2 0.196845 1.47314 9.2713 11.5685
18 4 1.22921 -2.13819 8.16074 12.7755
22 4 1.22133 -0.807144 12.8117 12.0675
32 4 0.953427 -2.32476 10.2684 8.9641
35 4 1.24889 -1.47655 10.6679 14.2312
50 1 -0.647797 2.21975 10.0379 11.9447
160 2 0.167124 0.883416 10.8293 14.5734
158 2 0.193896 1.80873 10.8394 12.6661
51 1 -0.641025 0.0619345 11.2176 15.2617
162 2 0.217069 0.0935007 12.33 15.3786
72 3 -0.834373 -1.80129 7.85307 11.3142
83 3 -0.820449 0.156333 7.30584 9.38522
88 3 -0.771834 2.88888 7.69642 15.6526
92 3 -0.797029 -1.26136 11.4431 9.01927
95 3 -0.808051 4.16141 7.77731 11.8094
96 3 -0.791477 -1.10757 9.14389 13.534
97 3 -0.8151 -1.59415 11.835 13.1121
98 3 -0.777547 -2.82013 10.5192 15.2996
116 2 -0.0306167 -3.49574 9.15267 12.6027
120 2 0.072321 -0.877328 12.1084 10.5468
126 2 0.0694458 -2.07053 9.1541 10.1859
127 2 -0.0544651 -3.79614 10.7495 9.59333
128 2 0.0416139 2.71167 9.16762 13.6573
139 2 0.17106 -4.71947 10.2404 13.7189
149 2 0.154574 2.98579 8.71761 8.75008
187 3 -0.791128 0.798191 12.9447 12.5167
235 2 0.173795 11.8087 1.61222 2.7154
37 4 1.2669 13.0645 2.04566 5.75489
221 1 -0.662469 8.81212 0.822876 2.27717
39 4 1.25953 11.1574 4.07815 7.3918
45 1 -0.667394 7.05862 5.19261 7.00266
54 1 -0.682132 10.267 5.43388 6.47454
101 3 -0.824557 14.2804 2.86424 5.15406
102 3 -0.824005 13.4815 0.88704 6.82943
234 2 0.173267 11.225 0.141571 1.6906
4 4 1.40316 15.1672 2.74605 3.76333
106 3 -0.780978 11.8985 2.92973 6.36455
232 3 -0.775916 14.3843 1.41176 2.78378
129 2 -0.00210136 12.1558 1.27363 4.46126
130 2 0.115839 7.81556 6.14362 3.62816
169 2 0.226464 10.7136 6.38486 6.84926
250 2 0.183108 11.7954 4.50498 0.39602
146 2 0.181297 7.6814 4.3532 6.62632
231 1 -0.638673 11.7052 0.498538 2.67432
145 2 0.160632 7.11899 6.17612 6.40014
170 2 0.18604 9.10681 5.36416 6.58553
171 2 0.171971 10.5469 5.22497 5.38786
267 2 0.18144 12.6436 6.17507 0.320255
224 2 0.182302 9.32963 1.39006 1.47512
225 2 0.131405 8.88964 1.34709 3.30265
103 3 -0.769477 5.79787 6.37775 1.47904
134 2 0.245379 16.6256 0.15694 5.54418
11 4 1.45351 13.0873 6.10135 8.90289
36 4 1.34545 8.97246 2.14986 9.12213
52 1 -0.662865 10.1354 0.749278 9.83915
188 3 -0.770892 8.72714 2.07657 14.4585
100 3 -0.832059 8.30592 2.88129 10.3604
107 3 -0.799963 12.3369 4.53692 8.55322
110 2 0.0484718 14.6699 3.54166 9.88239
105 3 -0.761732 9.84653 3.22698 8.16479
202 2 0.176221 14.0588 3.6928 11.5652
163 2 0.172698 11.1702 1.20202 9.74319
77 3 -0.73788 7.39465 4.29906 15.7157
165 2 0.247545 9.81898 0.412922 10.9723
172 4 1.04843 16.0343 2.53448 14.1833
173 1 -0.668114 14.6729 1.34741 13.3191
174 2 0.0436376 14.3247 2.44649 14.811
175 2 0.0748986 16.0468 0.901322 12.8175
176 2 0.166955 14.1509 1.98904 12.5129
6 4 1.34969 15.8468 2.5912 9.19373
178 4 1.13971 13.984 5.43022 14.2848