ITEM: TIMESTEP
0
ITEM: NUMBER OF ATOMS
274
ITEM: BOX BOUNDS xy xz yz pp pp pp
-8.3797999999999995e+00 1.8013900000000000e+01 -8.3797999999999995e+00
0.0000000000000000e+00 1.3273200000000001e+01 1.1950000000000001e+00
0.0000000000000000e+00 1.6075500000000002e+01 4.3120000000000003e-01
ITEM: ATOMS id type q x y z
119 2 -0.00564545 7.2892 1.28071 5.43188
12 4 1.33972 -0.850364 6.3146 5.08988
7 4 1.10747 1.18363 2.11864 5.21215
9 4 1.30915 -0.409223 4.50206 1.67757
10 4 1.60288 0.49131 4.36863 7.14443
242 1 -0.68411 3.23127 0.516367 3.07375
21 4 0.80768 5.57513 1.53004 5.74681
26 4 1.28957 5.30107 4.67645 6.87956
41 1 -0.65547 0.969134 0.36643 5.93267
44 1 -0.679105 4.18411 3.98924 1.84591
55 3 -0.80992 1.17977 0.866651 0.965311
56 3 -0.804894 -0.107382 2.4188 4.23866
58 3 -0.811567 -1.60911 4.3428 2.64195
59 3 -0.876294 0.0476743 3.26633 0.872294
243 2 0.166981 3.37129 1.53847 2.71585
61 3 -0.782703 1.48917 3.09119 6.34709
62 3 -0.87232 -0.226637 5.28791 6.10232
74 3 -0.798963 5.43429 0.469342 7.32915
78 3 -0.878336 0.804419 5.22582 2.40178
81 3 -0.772179 5.30122 3.06094 6.02174
84 3 -0.818475 2.81052 5.92371 4.08751
85 3 -0.79295 4.72304 5.87831 6.01409
113 2 0.0989764 -1.69265 5.45167 3.89507
111 2 0.012701 2.63791 2.13092 4.17588
112 2 -0.0262105 -1.01402 5.43382 0.40667
5 4 1.37316 0.452102 2.01246 0.0628111
118 2 -0.0193385 4.41833 0.86199 4.59951
24 4 1.18503 5.03405 5.12744 0.671248
222 3 -0.741732 6.34518 1.62051 1.22299
223 2 -0.0878728 6.14403 1.06204 3.98538
141 2 0.182824 4.50849 2.85385 1.748
142 2 0.199147 3.07296 4.15574 1.64563
143 2 0.195823 4.52496 4.52976 2.83403
220 4 1.02849 6.74934 0.529608 2.32157
135 2 0.203106 1.04179 0.353926 7.12813
25 4 1.44058 1.47301 6.38391 3.2046
267 2 0.174101 -3.64515 6.0618 0.467284
244 2 0.14189 2.87599 0.392139 4.10157
82 3 -0.805357 1.49229 5.20468 8.03763
138 2 0.154764 1.1433 0.479271 11.3859
8 4 1.27544 1.76968 2.67288 10.9206
13 4 1.21003 0.372792 4.9617 12.7316
229 2 -0.019224 3.6453 6.36701 13.2785
20 4 1.30391 4.44618 3.0165 9.26583
23 4 1.22165 6.87044 2.96686 11.2085
99 3 -0.816488 7.96281 1.04695 8.57374
226 4 0.900884 3.62993 6.31389 15.0643
42 1 -0.687954 1.95478 1.13402 11.9736
57 3 -0.822146 0.36573 2.49828 10.1356
63 3 -0.877995 -0.450913 3.83636 13.5016
64 3 -0.79239 1.83849 4.20162 12.2006
65 3 -0.814163 -2.22107 5.73198 9.679
66 3 -0.861881 -0.305617 5.74322 11.516
73 3 -0.809851 3.07695 2.72914 9.97043
75 3 -0.846861 5.47784 3.24592 10.403
76 3 -0.849268 6.7317 1.44764 11.8874
80 3 -0.785252 4.60366 4.31184 8.28405
29 4 0.963582 3.68811 6.36111 11.1064
137 2 0.182677 2.92807 0.706338 11.9182
114 2 -0.044536 0.866531 6.14688 13.8718
248 2 0.151538 3.70332 3.68233 15.3955
124 2 0.0811993 3.30385 4.83112 11.7889
136 2 0.176782 1.55545 1.30467 13.007
179 4 1.26546 7.53303 2.94395 15.6484
183 1 -0.686504 5.90164 2.39024 14.9709
14 4 1.50048 -1.06335 6.65068 10.5119
86 3 -0.792478 2.63568 6.52347 9.98778
196 2 0.163414 5.47131 3.26071 14.4457
117 2 0.100379 4.95752 1.68587 8.27396
227 3 -0.807888 5.07235 5.95369 15.643
195 2 0.212193 6.16728 1.59256 14.1762
245 1 -0.685189 2.92159 3.10139 14.7997
246 2 0.205282 2.54435 3.678 13.8725
247 2 0.180647 3.4157 2.15613 14.5197
123 2 -0.0193053 5.23863 5.90099 10.5368
228 2 -0.0278297 2.4717 5.02604 15.1206
197 2 0.189457 5.28308 1.97772 15.8121
187 3 -0.775279 8.99699 0.4012 12.5636
262 3 -0.817001 0.437087 1.80725 15.1857
27 4 1.41791 1.55502 6.63632 8.81775
60 3 -0.811243 -0.677064 3.64319 8.08193
272 2 0.176984 0.624056 10.1154 0.19338
3 3 -0.828194 -5.83044 11.4824 0.769397
268 2 0.168466 -4.14738 8.18056 1.01344
16 4 1.45686 -3.04583 7.93591 6.65787
17 4 1.26994 -4.3828 9.93424 4.83652
154 2 0.159088 0.927885 9.35204 7.07942
161 2 0.179822 -1.23952 9.99933 0.279228
31 4 1.24528 -2.02081 10.3262 2.95531
33 4 1.15293 -0.0667473 11.1147 5.38026
48 1 -0.671732 -1.175 8.93681 1.98175
49 1 -0.652491 0.0139022 9.43155 6.27296
67 3 -0.841591 -3.76136 7.0118 7.78427
68 3 -0.858329 -1.9371 7.13923 5.88395
28 4 1.20167 3.88318 6.79201 4.90104
70 3 -0.800675 -4.15409 8.57983 5.57333
79 3 -0.845019 0.243385 7.20954 4.41539
87 3 -0.813059 1.80474 7.57654 2.17166
30 4 0.99269 2.49077 8.26903 0.944086
89 3 -0.768605 -2.07028 11.8855 2.09342
90 3 -0.816132 -3.47133 9.92455 3.52909
93 3 -0.821044 -1.03772 10.7725 4.27072
94 3 -0.811607 -0.538335 12.2631 6.48202
115 2 -0.016053 -3.89876 11.2085 5.75364
147 2 0.163912 1.79678 7.49509 6.56043
151 2 0.193723 -0.0969376 9.32337 1.56638
152 2 0.149569 -2.00707 8.82335 1.19033
153 2 0.200966 -1.13184 8.01794 2.62734
251 1 -0.661527 -5.13632 8.7563 1.21081
155 2 0.280599 0.075713 8.55358 5.54223
156 2 0.278923 -1.02348 9.42747 6.86379
46 1 -0.66413 2.42154 7.85765 7.52623
148 2 0.179584 3.532 7.64099 7.47862
265 2 0.192246 -4.39581 12.5846 2.59846
19 4 1.3143 -1.37747 12.7614 7.81807
1 4 1.34824 -6.57361 12.5255 1.81084
69 3 -0.84219 -5.87533 10.3165 4.37947
91 3 -0.849273 -2.51568 9.54704 7.62173
133 2 0.181754 -6.61277 12.6173 5.45148
47 1 -0.654158 1.65964 9.93707 0.794278
252 2 0.228062 -5.25937 9.16971 2.24517
149 2 0.148321 2.18066 8.95077 7.8083
122 2 -0.00577485 3.11748 8.11423 5.72807
271 2 0.151138 1.52863 10.1543 1.93142
270 2 0.181685 0.538648 12.1474 2.23714
159 2 0.194286 1.50685 10.3528 12.2582
18 4 1.23009 -2.26083 8.16032 12.8736
22 4 1.28701 -0.871936 12.9771 12.0158
32 4 0.986476 -2.52546 10.322 8.90442
35 4 1.2642 -1.46811 10.729 14.1939
15 4 1.10676 -4.06099 10.6954 16.0407
160 2 0.168855 0.853536 10.6147 14.6169
157 2 0.161589 2.65868 9.80165 10.7637
51 1 -0.652403 0.0491273 11.0102 15.3176
162 2 0.208924 0.110711 12.1073 15.4924
72 3 -0.836924 -1.91672 7.88593 11.2249
83 3 -0.792806 0.151249 7.22789 9.27592
88 3 -0.760776 3.1273 7.7108 15.5948
92 3 -0.807735 -1.46019 11.4175 9.18507
95 3 -0.800475 3.76137 7.74983 11.9354
96 3 -0.769442 -1.15899 9.188 13.3477
97 3 -0.811677 -1.38783 11.845 12.9577
98 3 -0.834101 -2.77448 10.7152 15.1413
116 2 -0.0409909 -3.61761 9.10365 12.7059
120 2 0.113785 -0.852728 12.2831 10.4652
126 2 0.091623 -2.22415 9.1855 10.1368
127 2 -0.0560445 -4.09492 10.5767 9.40541
128 2 0.0266431 2.43217 9.73166 13.705
140 2 0.164892 -5.89347 11.3783 14.5862
50 1 -0.649226 2.58338 10.4083 11.8812
139 2 0.157957 -4.73308 10.2707 13.7749
71 3 -0.841167 -2.45395 6.90343 13.7196
235 2 0.166194 11.8056 1.61532 2.68864
37 4 1.24828 13.0184 2.14963 5.56138
221 1 -0.645729 8.62001 0.377067 2.30219
39 4 1.28512 11.1455 3.90166 7.55119
45 1 -0.69711 7.1492 5.04019 7.20671
54 1 -0.644145 10.3512 5.45747 6.83948
101 3 -0.829151 14.0394 3.06607 4.7676
102 3 -0.83098 13.6591 1.02744 6.57374
234 2 0.1758 11.5226 0.284332 1.56711
4 4 1.44014 15.1382 2.70832 3.67663
106 3 -0.781325 11.8666 3.04875 6.28152
232 3 -0.771289 14.5507 1.46999 2.78535
129 2 0.00289272 12.2041 1.29532 4.34813
130 2 0.0958485 7.68645 6.13691 3.76112
169 2 0.224875 10.8002 6.35679 7.34042
250 2 0.177747 11.9923 4.57927 0.61429
146 2 0.176414 7.72174 4.20086 6.77161
231 1 -0.666255 11.8363 0.474425 2.62765
145 2 0.164156 7.38393 6.03444 6.79939
170 2 0.177622 9.11411 5.28497 6.9254
171 2 0.186672 10.7529 5.28164 5.73848
207 4 1.2471 14.4008 0.314132 7.79775
224 2 0.183203 8.90597 1.05229 1.4192
225 2 0.116647 8.76585 0.878169 3.40481
134 2 0.257147 16.7827 0.151423 5.56396
249 1 -0.635963 12.8734 5.05607 0.0660997
11 4 1.51095 13.1253 6.1146 9.08873
36 4 1.33217 8.98602 2.18571 9.17093
52 1 -0.6733 10.2748 1.09253 10.0101
188 3 -0.796479 8.74351 2.16366 14.8458
100 3 -0.838747 8.15969 3.01364 10.2841
107 3 -0.771685 12.3602 4.50991 8.692
110 2 0.0421178 14.5537 3.20653 10.1136
121 2 -0.0262873 7.10468 4.10456 12.3908
202 2 0.169585 13.9108 3.49193 11.7613
163 2 0.175578 11.1301 1.78292 10.1061
77 3 -0.727452 7.55809 4.48725 15.8917
165 2 0.246851 9.83014 0.827658 11.0191
172 4 1.00729 16.1056 2.38513 14.1185
173 1 -0.661532 14.7251 1.26757 13.2365
174 2 0.0437408 14.3688 2.39008 14.7195
175 2 0.0792679 16.0312 1.01347 12.5796
176 2 0.165558 14.1118 1.89183 12.4882
6 4 1.34588 15.8736 2.57079 9.19452
178 4 1.07488 13.8908 5.37954 14.3884
180 4 1.23599 9.82585 1.44897 13.9114
181 4 1.31496 11.7798 3.83031 12.6476
205 2 0.156809 9.22268 5.70628 9.53071
185 1 -0.688875 12.9362 3.11187 11.2227
144 2 0.182309 7.17624 5.0168 8.33628
189 3 -0.774396 10.9401 2.56959 13.1633
190 3 -0.835351 12.9202 4.39244 13.7137
192 3 -0.81207 10.8292 5.02366 11.9495
263 3 -0.860964 15.3349 1.216 8.74241
199 2 0.168683 11.7806 0.733549 14.9788
200 2 0.253484 12.6699 3.60216 10.1655
201 2 0.147299 12.7501 2.00087 11.2701
182 4 1.04538 10.7591 6.26792 11.0515
105 3 -0.822225 9.90656 3.08012 8.13012
266 2 0.071388 15.181 4.49499 15.5579
237 1 -0.683333 7.79378 10.352 0.533119
256 2 0.142685 1.78722 11.5531 3.63825
167 2 0.179018 8.98881 7.34133 2.53938
53 1 -0.646898 8.24951 7.41779 3.307
104 3 -0.803236 5.014 7.49607 3.90368
233 2 0.160588 2.80503 12.7179 3.47023
125 2 -0.00775915 4.2103 8.37084 1.14951
150 2 0.146157 2.52747 10.5349 0.260169
166 2 0.00153998 7.08594 8.78593 2.58198
168 2 0.159831 8.58796 7.91279 4.24548
206 4 1.18741 9.4664 10.5965 3.95263
215 2 0.153268 5.19946 9.42063 6.37893
208 4 0.980982 7.56826 10.2884 6.77075
209 1 -0.647146 6.27159 9.02836 6.22123
255 2 0.161238 1.44936 12.8044 5.1402
211 3 -0.748928 8.55672 10.6843 5.3322
212 3 -0.74163 6.80135 11.9188 7.29546
213 2 -0.00544501 8.84451 9.21339 3.01634
254 1 -0.665341 1.68552 11.6806 4.82695
216 2 0.14574 6.59624 8.20047 6.98939
217 2 0.176956 6.62018 8.90389 5.10111
230 4 1.09509 5.30992 12.7707 2.51065
253 2 0.139558 10.8216 8.14383 0.884796
103 3 -0.77563 5.84021 6.48092 1.52751
238 3 -0.803759 5.5804 12.0672 1.10526
240 2 0.197418 8.13233 10.5926 1.53261
38 4 0.992271 6.23108 7.23268 2.83902
257 2 0.143781 2.48229 11.1132 5.41042
258 1 -0.656882 5.87492 11.4506 3.74837
259 2 0.147167 5.73359 10.4028 3.27118
260 2 0.138536 4.983 11.6941 4.50884
261 2 0.225449 6.90613 11.4586 4.27085
239 2 0.125303 6.95345 9.40801 0.657556
2 3 -0.818318 9.28316 11.8822 2.91151
274 2 0.147777 8.58898 8.45974 7.77482
198 2 0.166406 2.36599 12.0802 14.2257
40 4 0.944036 6.42653 10.9716 13.1639
108 3 -0.816866 5.23244 10.0685 12.9484
109 3 -0.838047 6.97082 11.4051 14.5127
214 2 -0.0379178 4.83378 12.425 8.81207
132 2 -0.0325912 7.64246 10.183 12.3087
236 4 1.05404 7.55053 11.862 15.9459
203 2 0.176473 8.86714 7.67284 9.43455
131 2 -0.0153078 6.19306 12.4106 12.2076
193 2 0.0690406 11.1769 9.43592 15.5302
218 2 0.145653 7.88276 9.47098 9.16863
194 2 0.00417299 9.84054 7.64029 11.7376
241 2 0.178917 9.80689 10.625 15.8204
269 2 0.14296 10.3279 9.97985 13.5405
264 2 0.0828144 9.21974 12.4353 15.6585
164 2 0.1638 2.16069 12.973 9.39346
34 4 0.991606 3.81307 9.25008 12.6556
191 3 -0.819912 12.0951 6.7428 10.1411
158 2 0.157708 3.1129 11.4563 11.81
210 1 -0.665057 8.51154 9.49203 8.25312
43 1 -0.665177 11.1459 10.3352 14.2843
219 2 0.172383 9.49787 9.93915 8.50792
184 1 -0.660878 2.4031 13.0733 14.8954
273 2 0.176705 1.83339 12.9686 15.907
186 1 -0.665119 9.13737 6.81865 10.1517
177 2 0.169019 5.79959 13.1532 13.6406
204 2 0.145705 8.34547 6.77622 10.9171
ITEM: TIMESTEP
100
ITEM: NUMBER OF ATOMS
274
ITEM: BOX BOUNDS xy xz yz pp pp pp
-8.3797999999999995e+00 1.8013900000000000e+01 -8.3797999999999995e+00
0.0000000000000000e+00 1.3277404725000000e+01 1.1950000000000001e+00
0.0000000000000000e+00 1.6075500000000002e+01 4.3540472499999971e-01
ITEM: ATOMS id type q x y z
119 2 -0.020574 7.41611 1.36622 5.33049
12 4 1.33466 -0.923895 6.22765 5.24105
7 4 1.12714 1.1117 2.10081 5.04873
9 4 1.27409 -0.488341 4.57991 1.79623
10 4 1.62776 0.583842 4.29716 7.12023
242 1 -0.659676 3.59855 0.463878 2.94739
21 4 0.792506 5.75879 1.59599 5.64876
26 4 1.32339 5.23927 4.5001 6.83907
41 1 -0.638544 0.696133 0.558067 6.1032
44 1 -0.670008 4.03739 4.10084 1.73253
55 3 -0.76287 1.13075 0.891246 1.0186
56 3 -0.864053 -0.182192 2.33804 4.26502
58 3 -0.814679 -1.75331 4.29727 2.70013
59 3 -0.861853 -0.0591915 3.46552 0.782784
243 2 0.151251 3.35007 1.54577 2.58002
61 3 -0.799746 1.46743 3.16296 6.20178
62 3 -0.871916 -0.172074 5.30543 6.17899
74 3 -0.799758 5.59717 0.562839 7.32418
78 3 -0.875141 0.716459 5.28619 2.49744
81 3 -0.804298 5.43732 3.14753 5.95981
84 3 -0.828804 2.79436 6.26438 3.98212
85 3 -0.803847 4.60318 5.60219 5.90051
113 2 0.0833976 -1.67861 5.27548 4.04671
111 2 -0.0154107 2.43336 1.71428 3.95808
112 2 -0.012736 -1.0909 5.89338 0.96714
5 4 1.29038 0.289716 2.04548 0.0425476
118 2 -0.00394603 4.54437 0.834771 4.55506
24 4 1.27149 5.08179 5.11941 0.488606
222 3 -0.775481 6.41517 1.67005 1.12559
223 2 -0.0927094 6.26067 1.02626 3.96471
141 2 0.185452 4.54093 3.11158 1.93167
142 2 0.178618 2.92414 3.97719 1.40838
143 2 0.212997 4.18617 4.80058 2.58167
220 4 1.00939 6.77453 0.558354 2.28142
135 2 0.239774 0.396838 0.975917 7.17631
267 2 0.172928 -3.79424 6.13524 0.507721
60 3 -0.813653 -0.473446 3.49513 7.97252
138 2 0.153078 0.746739 0.723921 11.7385
8 4 1.23917 1.69248 2.72596 10.9434
13 4 1.20762 0.310396 4.91407 12.7024
229 2 -0.0366853 3.65772 6.38845 13.443
20 4 1.27194 4.61391 2.99979 9.36106
23 4 1.24987 6.88569 2.84155 11.3539
99 3 -0.858923 7.94625 1.29715 8.27308
226 4 0.935158 3.70249 6.31875 15.1556
42 1 -0.672604 1.80527 1.19749 11.9764
57 3 -0.810614 0.255142 2.52207 10.1859
63 3 -0.880608 -0.538673 3.8428 13.4833
64 3 -0.797377 1.77743 4.21621 12.2156
65 3 -0.824965 -2.14317 5.76257 9.40385
66 3 -0.856817 -0.489876 5.54465 11.4081
73 3 -0.769167 3.16986 2.73513 9.99862
75 3 -0.869812 5.66256 3.29042 10.4847
76 3 -0.843662 6.6881 1.31733 11.9811
80 3 -0.781052 4.52569 4.23626 8.33278
29 4 0.975202 3.7622 6.41266 11.2092
137 2 0.168855 2.60982 0.554904 11.5466
114 2 -0.0409114 0.582242 6.22911 13.7824
248 2 0.15447 3.55081 3.69134 15.6826
124 2 0.0579621 3.09508 5.21164 12.203
136 2 0.178294 1.98127 1.33264 13.0678
179 4 1.28651 7.52131 2.68021 15.6915
183 1 -0.671895 5.95008 2.17505 14.8978
14 4 1.52342 -1.02866 6.55313 10.3824
86 3 -0.814615 2.73064 6.62023 10.0577
196 2 0.17352 5.58881 3.03443 14.2816
117 2 0.102935 5.15291 1.70101 8.32406
227 3 -0.826111 5.13397 6.00135 15.522
195 2 0.227758 6.1611 1.22558 14.2346
245 1 -0.682893 2.89591 3.07727 14.9346
246 2 0.197327 2.5363 3.59324 14.0448
247 2 0.177287 3.27532 2.07722 14.6603
123 2 0.00133534 5.1847 5.85442 10.5503
228 2 -0.0135088 2.58479 5.0272 15.3308
197 2 0.186725 5.17487 1.9052 15.6497
266 2 0.0704624 -1.53095 4.75072 15.6789
262 3 -0.798181 0.271082 1.78058 15.2508
82 3 -0.776716 1.40078 5.36096 8.163
121 2 -0.00770548 6.9029 3.90363 12.701
71 3 -0.823259 -2.35652 6.71364 13.6886
272 2 0.175111 0.613027 10.2113 0.183914
3 3 -0.791307 -5.87073 11.1953 1.02557
268 2 0.170676 -3.85584 8.49284 1.16095
16 4 1.47126 -3.23394 7.98034 6.69199
17 4 1.26304 -4.44322 9.97658 4.85455
154 2 0.177558 0.97302 9.44825 7.26671
161 2 0.194636 -1.2913 10.1665 0.250994
31 4 1.19574 -1.97116 10.5041 2.98639
33 4 1.15118 0.158611 11.0546 5.45626
48 1 -0.651323 -1.22991 9.09941 1.97875
49 1 -0.675338 0.169228 9.40569 6.54334
25 4 1.41083 1.35626 6.55552 3.3751
68 3 -0.821988 -2.06345 7.2175 5.92773
28 4 1.21071 3.94427 6.79809 4.91376
70 3 -0.787778 -4.40536 8.55737 5.62844
79 3 -0.837654 0.146117 7.15457 4.58263
87 3 -0.77952 1.74444 7.94887 2.36817
30 4 1.05684 2.27853 8.24012 0.925852
89 3 -0.743291 -2.12612 11.9546 1.81782
90 3 -0.835051 -3.37959 10.1463 3.6679
93 3 -0.788948 -0.728358 10.8588 4.21682
94 3 -0.806912 -0.546903 12.1117 6.48281
115 2 -0.0219232 -4.08761 11.1459 6.03711
147 2 0.164442 1.89596 8.4444 6.89448
151 2 0.191348 -0.0797817 9.40576 1.49968
152 2 0.153682 -2.09894 9.03903 1.20873
153 2 0.195227 -1.18968 8.213 2.71467
251 1 -0.645172 -5.01493 8.67978 1.33447
155 2 0.275489 0.18555 8.5008 5.80597
156 2 0.296485 -0.84853 9.40825 7.03945
46 1 -0.661566 2.56856 7.97377 7.72456
148 2 0.165891 3.40502 7.23661 7.29014
265 2 0.22299 -4.26892 12.4854 2.20427
19 4 1.35483 -1.29133 12.8398 7.74714
1 4 1.23169 -6.53851 12.5163 1.97909
69 3 -0.863994 -5.89855 10.2749 4.43846
91 3 -0.842835 -2.50691 9.38778 7.6385
133 2 0.148431 -6.71626 12.7969 6.05575
47 1 -0.656632 1.64512 10.0568 0.730811
252 2 0.223089 -5.21206 9.00203 2.36594
15 4 1.08399 -5.32902 10.0441 0.0955059
122 2 0.00139548 3.34244 8.07905 5.8997
271 2 0.167167 1.64991 10.4568 1.8098
244 2 0.127421 -5.28149 12.7872 3.93145
159 2 0.186344 1.47476 9.72807 11.9597
18 4 1.23564 -2.11151 8.13942 12.7372
22 4 1.23331 -0.835638 12.8784 12.0527
32 4 0.943092 -2.44079 10.2739 8.90333
35 4 1.23175 -1.42042 10.7148 14.1186
50 1 -0.663628 2.43891 10.3 11.889
160 2 0.1625 0.845031 10.4143 14.6148
27 4 1.43436 1.63844 6.74739 8.94211
51 1 -0.653189 0.0790574 11.0233 15.2269
162 2 0.203954 0.319211 12.1052 15.338
72 3 -0.858877 -1.76481 7.91905 11.2714
83 3 -0.813757 0.196943 7.20983 9.43763
88 3 -0.824805 3.13609 7.70494 15.7578
92 3 -0.795928 -1.34453 11.4455 9.03432
95 3 -0.844076 4.00752 7.80755 11.8877
96 3 -0.802078 -1.17384 9.11825 13.5531
97 3 -0.840284 -1.54207 11.867 13.0122
98 3 -0.758933 -2.88318 10.6188 15.2514
116 2 -0.026491 -3.65956 8.68862 12.7019
120 2 0.072617 -0.831922 12.207 10.5066
126 2 0.0857064 -2.16332 9.0695 10.0221
127 2 -0.0595006 -3.91287 10.8458 9.37274
128 2 0.0340152 2.70597 9.4747 13.6099
139 2 0.146946 -4.57044 10.3778 13.5981
149 2 0.15508 3.00952 8.77211 8.42179
187 3 -0.782295 0.818664 13.1226 12.4092
140 2 0.153379 -6.03946 11.3037 14.3566
235 2 0.151923 11.6953 1.68799 2.83464
37 4 1.2866 12.9994 2.11453 5.63024
221 1 -0.666829 8.65419 0.567323 2.4075
39 4 1.32669 11.1811 3.90541 7.43789
45 1 -0.675239 7.03846 5.13476 7.18289
54 1 -0.656267 10.2314 5.39294 6.65814
101 3 -0.828853 14.2349 2.7795 4.95366
102 3 -0.805156 13.6111 1.0017 6.62342
234 2 0.172799 11.2994 0.335031 1.58255
4 4 1.48457 15.2028 2.59081 3.71345
106 3 -0.848688 11.959 3.08059 6.33157
232 3 -0.828364 14.5901 1.30062 2.91705
129 2 -0.0128244 12.2456 1.18698 4.38441
130 2 0.0953849 7.6848 6.10599 3.70075
169 2 0.226358 10.7303 6.27829 7.12957
250 2 0.17293 11.9049 4.49571 0.469121
146 2 0.173584 7.66868 4.30454 6.71335
231 1 -0.661871 11.7763 0.591391 2.57019
145 2 0.165216 7.08117 6.10116 6.59306
170 2 0.189404 9.08153 5.30713 6.75193
171 2 0.17307 10.5377 5.25658 5.55655
207 4 1.26057 14.3975 0.268328 7.84962
224 2 0.175492 9.0508 1.41284 1.80417
225 2 0.134269 8.71367 0.699652 3.52213
249 1 -0.640196 12.8178 5.07395 0.124689
230 4 1.17685 13.7168 0.0893057 2.48421
103 3 -0.790279 5.74327 6.45518 1.5134
134 2 0.245661 16.6645 0.146961 5.45948
11 4 1.43215 13.0743 5.9933 9.05637
36 4 1.31161 8.98091 2.19607 9.05146
52 1 -0.664082 10.2974 1.01613 9.74705
188 3 -0.803173 8.71377 2.13747 14.7555
100 3 -0.787149 8.22432 2.97732 10.5846
107 3 -0.805411 12.183 4.44808 8.62754
110 2 0.0393189 14.5021 3.51979 10.0911
105 3 -0.80771 9.82063 3.1447 8.19735
202 2 0.16616 13.9561 3.56763 11.7141
163 2 0.179079 11.2512 1.61374 9.78577
77 3 -0.743554 7.24511 4.47836 15.8856
165 2 0.246453 9.88014 0.712572 10.891
172 4 1.00676 15.9436 2.45797 14.133
173 1 -0.666615 14.6887 1.335 13.1385
174 2 0.0336984 14.3057 2.19844 14.7987
175 2 0.0902393 15.9311 1.00889 12.5529
176 2 0.167756 14.0886 1.92394 12.3377
6 4 1.30635 15.784 2.68353 9.20506
178 4 1.12121 13.9774 5.47547 14.4266
180 4 1.25325 9.9101 1.45089 13.7785
181 4 1.27809 11.8044 3.75 12.5742
205 2 0.173131 9.01053 5.88073 9.75461
185 1 -0.683619 12.9406 3.14281 11.1848
144 2 0.182199 7.13222 5.23308 8.29256
189 3 -0.805995 10.9986 2.39453 13.1681
190 3 -0.787279 12.9266 4.54814 13.6875
192 3 -0.794535 10.9491 4.95417 11.8181
263 3 -0.848835 15.2271 1.2653 8.64485
199 2 0.176436 11.8574 0.746687 14.9154
200 2 0.251261 12.6037 3.62867 10.1262
201 2 0.139481 12.8511 1.9707 11.1756
182 4 1.04836 10.8209 6.2829 11.0278
177 2 0.158007 14.1169 0.405234 13.5961
273 2 0.182335 10.2374 0.451586 15.8872
237 1 -0.667196 7.68508 10.0817 0.354747
256 2 0.166977 2.12852 11.2145 3.95208
167 2 0.149213 8.64409 7.57434 2.4832
53 1 -0.648292 8.00038 7.49118 3.43719
104 3 -0.807848 5.00346 7.60621 3.93222
233 2 0.158759 2.8551 12.7852 3.40731
125 2 0.00625085 3.97262 8.40874 0.924811
150 2 0.151867 2.55833 10.4892 0.153855
166 2 0.0243104 7.0326 8.70463 2.31572
168 2 0.173182 8.35694 8.00773 4.38598
206 4 1.21661 9.48331 10.5013 3.95664
215 2 0.175138 5.43206 9.85163 5.80005
208 4 1.08397 7.71481 10.4621 6.60188
209 1 -0.639971 6.25653 9.2045 6.27649
255 2 0.144723 1.61901 12.7535 4.97324
211 3 -0.813229 8.48426 10.4298 5.27322
212 3 -0.774869 6.77988 11.8923 7.2377
213 2 -0.00937739 8.86561 9.25297 2.91865
254 1 -0.685642 1.90672 11.6147 4.9423
216 2 0.151588 6.07117 8.75816 7.28148
217 2 0.18468 6.76365 8.4714 5.51656
219 2 0.166462 9.66089 10.0281 7.90212
253 2 0.122961 11.0362 7.89513 0.842305
270 2 0.172623 0.621352 12.368 2.01227
238 3 -0.781293 5.6672 12.1992 1.1043
240 2 0.171357 8.09281 10.4217 1.37348
38 4 1.0181 6.12296 7.21638 2.85497
257 2 0.148415 2.67397 11.4168 5.74119
258 1 -0.679263 5.485 11.6149 3.88954
259 2 0.163288 4.86318 10.7412 3.63872
260 2 0.171853 5.01431 12.1988 4.74817
261 2 0.214649 6.48357 11.3176 4.17574
239 2 0.13855 6.9259 9.10865 0.232227
2 3 -0.814742 9.30095 11.9142 3.05339
274 2 0.178155 8.96898 8.44977 7.41473
67 3 -0.816058 12.8978 6.97167 7.68631
210 1 -0.663542 8.74201 9.43627 7.88916
198 2 0.160877 2.37002 12.0676 14.4634
40 4 0.892528 6.41286 11.1091 13.0904
108 3 -0.824739 5.16216 10.1178 12.8292
109 3 -0.833569 6.83232 11.3345 14.5868
214 2 -0.0446139 4.83706 12.6074 8.97856
132 2 -0.0459486 7.7661 10.5903 12.3102
236 4 1.04645 7.4737 11.6984 15.9083
203 2 0.175473 9.26244 7.85253 9.5366
131 2 -0.0225159 6.27165 12.5349 12.0786
193 2 0.0616096 11.197 9.35843 15.282
218 2 0.14059 8.26883 9.26909 8.91171
194 2 -0.00259994 9.97004 7.48736 11.9858
241 2 0.159321 9.79211 10.4181 15.5447
269 2 0.147831 10.4195 9.82875 13.2917
264 2 0.0779179 9.05611 12.3113 15.6484
164 2 0.163271 1.9111 12.9905 9.00812
34 4 1.06698 3.9905 9.2725 12.4005
204 2 0.13942 8.50023 7.13526 11.1096
158 2 0.19704 2.29832 11.2852 12.3934
157 2 0.128929 2.93475 10.3077 10.7245
43 1 -0.630234 11.1065 10.2456 14.0552
191 3 -0.804111 12.2561 6.77333 10.2651
184 1 -0.658114 2.441 13.1608 14.9297
186 1 -0.677416 9.23722 6.95693 10.2276
ITEM: TIMESTEP
200
ITEM: NUMBER OF ATOMS
274
ITEM: BOX BOUNDS xy xz yz pp pp pp
-8.3797999999999995e+00 1.8013900000000000e+01 -8.3797999999999995e+00
0.0000000000000000e+00 1.3281609450000001e+01 1.1950000000000001e+00
0.0000000000000000e+00 1.6075500000000002e+01 4.3960945000000073e-01
ITEM: ATOMS id type q x y z
119 2 -0.0163279 7.39295 1.33748 5.26424
12 4 1.37736 -1.05067 6.30183 5.23897
7 4 1.09454 1.14576 2.13188 5.14565
9 4 1.2441 -0.587275 4.72852 1.84066
10 4 1.60729 0.485407 4.36264 7.09067
242 1 -0.661533 3.43804 0.397985 2.99049
21 4 0.769336 5.7602 1.52496 5.62561
26 4 1.32389 5.24855 4.58881 6.71255
41 1 -0.663065 0.597074 0.670325 6.21995
44 1 -0.671907 4.17598 3.99549 1.76125
55 3 -0.810791 1.07735 0.811815 1.11788
56 3 -0.810994 -0.0892616 2.32568 4.16897
58 3 -0.822932 -1.81347 4.23646 2.80066
59 3 -0.820258 -0.0354882 3.43842 0.94711
243 2 0.151536 3.13275 1.49213 2.75724
61 3 -0.769756 1.46261 3.39955 6.11335
62 3 -0.879742 -0.414924 5.29624 6.23691
74 3 -0.805093 5.58009 0.495028 7.31436
78 3 -0.864596 0.604611 5.36804 2.53483
81 3 -0.782723 5.45223 3.13088 5.91131
84 3 -0.8145 2.61349 6.27026 4.24927
85 3 -0.801724 4.57765 5.78129 6.00983
113 2 0.0729374 -1.91282 5.43675 4.09551
111 2 -0.0132713 2.56558 1.41562 4.40319
112 2 -0.0252595 -1.22525 5.76646 0.652638
5 4 1.30031 0.392904 2.07449 0.24413
118 2 -0.0050876 4.51017 1.02322 4.4825
24 4 1.18951 5.01974 5.03143 0.526957
222 3 -0.783906 6.44114 1.60068 1.00133
223 2 -0.0876025 6.31671 1.09226 3.83923
141 2 0.187657 4.59952 2.9647 1.77494
142 2 0.185323 3.02494 4.05615 1.59518
143 2 0.190782 4.52409 4.72057 2.70157
220 4 0.981936 6.96722 0.591257 2.22218
135 2 0.249732 0.145298 1.10453 7.08756
60 3 -0.83929 -0.474048 3.36125 7.9436
82 3 -0.780082 1.63688 5.27364 7.99416
138 2 0.1497 1.21445 0.485427 11.4634
8 4 1.24903 1.68926 2.69038 10.9837
13 4 1.20465 0.309077 4.86821 12.5301
229 2 -0.0352066 3.74853 6.48618 13.4184
20 4 1.24719 4.59544 2.96074 9.3434
23 4 1.25825 6.96859 2.77255 11.2656
99 3 -0.841787 7.92583 1.20724 8.42026
226 4 0.918903 3.5878 6.40544 15.1169
42 1 -0.672427 1.86954 1.22669 12.0831
57 3 -0.827812 0.285571 2.58876 10.2208
63 3 -0.882235 -0.577644 3.92399 13.4378
64 3 -0.799599 1.83793 4.16012 12.3833
65 3 -0.855952 -2.23545 6.00748 9.3235
66 3 -0.835463 -0.470576 5.31841 11.1721
73 3 -0.763332 3.05942 2.76462 10.0249
75 3 -0.861857 5.64078 3.17957 10.5109
76 3 -0.851283 6.85033 1.34523 12.013
80 3 -0.757027 4.65462 4.16571 8.29855
29 4 0.946401 3.83769 6.33272 11.1689
137 2 0.167763 3.0147 0.930147 12.0525
114 2 -0.0309507 0.47366 6.23821 13.4599
248 2 0.143415 3.44929 3.77859 15.7756
124 2 0.0709834 3.10383 5.1744 12.2369
136 2 0.183085 1.45314 1.37256 13.1478
179 4 1.2724 7.49595 2.71846 15.6152
183 1 -0.682637 5.97062 1.82035 15.0547
14 4 1.47456 -0.998506 6.61482 10.215
86 3 -0.834107 2.69766 6.3998 10.0953
196 2 0.16549 5.30514 2.66151 14.766
117 2 0.0983575 5.04429 1.59558 8.37833
227 3 -0.822118 4.97625 6.03991 15.712
195 2 0.251784 6.25867 1.12924 14.2227
245 1 -0.670476 2.89342 3.08145 15.0019
246 2 0.231126 2.42389 3.57309 14.1284
247 2 0.17987 3.57508 2.19004 14.7856
123 2 0.00163688 5.19816 5.62303 10.6084
228 2 -0.0175476 2.5763 5.05392 15.0556
197 2 0.199015 5.67071 1.30058 16.0063
71 3 -0.837803 -2.43284 6.77885 13.6731
262 3 -0.803853 0.289887 2.04243 15.216
27 4 1.37885 1.72624 6.55426 8.93703
266 2 0.0646313 -1.56537 4.81569 15.7772
272 2 0.178408 0.752077 10.3951 0.125571
3 3 -0.763261 -6.01011 11.3164 1.02219
268 2 0.1746 -3.94131 8.30504 1.00488
16 4 1.50539 -3.25609 8.00239 6.66371
17 4 1.24829 -4.50195 10.0305 4.92507
154 2 0.166748 0.957139 9.41937 7.22044
161 2 0.190899 -1.19567 10.1714 0.215431
31 4 1.27591 -1.75335 10.5322 3.0442
33 4 1.1662 0.243884 11.2122 5.40772
48 1 -0.647049 -1.11647 9.09775 1.9337
49 1 -0.6439 0.107461 9.50441 6.42566
25 4 1.39964 1.28934 6.62111 3.37935
68 3 -0.855688 -2.12391 7.13426 5.92978
28 4 1.20431 3.86361 6.90142 5.02444
70 3 -0.792529 -4.29624 8.59254 5.6135
79 3 -0.833175 -0.0438775 7.28812 4.53166
87 3 -0.792649 1.49735 7.9077 2.29865
30 4 0.969919 2.25593 8.31439 0.961574
89 3 -0.788409 -1.83228 11.8042 2.07417
90 3 -0.782741 -3.26233 10.1568 3.87251
93 3 -0.819225 -0.560901 10.8559 4.11738
94 3 -0.82505 -0.350833 12.2628 6.40395
115 2 -0.0346532 -4.35107 11.3353 6.05442
147 2 0.163148 1.99149 8.36117 7.13341
151 2 0.211748 -0.064113 9.4652 1.47683
152 2 0.160859 -1.97759 9.00761 1.20194
153 2 0.215031 -0.990865 8.17492 2.64915
251 1 -0.656643 -5.04437 8.46333 1.32833
155 2 0.276664 0.163606 8.6846 5.57958
156 2 0.283892 -0.983922 9.52737 6.91942
46 1 -0.665127 2.66534 7.94351 7.88939
148 2 0.188091 3.55122 7.3906 7.54632
265 2 0.195613 -4.28484 12.6438 2.18588
19 4 1.34043 -1.28851 12.8213 7.69816
1 4 1.33315 -6.61306 12.5094 1.96818
69 3 -0.852292 -5.92531 10.0892 4.30673
91 3 -0.841237 -2.5299 9.48929 7.65607
133 2 0.148811 -6.84558 12.8815 6.44338
47 1 -0.659466 1.74993 10.1204 0.679924
252 2 0.22019 -5.27539 8.73996 2.43477
15 4 1.00273 -5.3558 9.90822 0.0957847
122 2 -0.0163247 3.34142 8.20185 6.02937
244 2 0.138808 -5.25244 12.6972 4.00738
2 3 -0.831293 -7.45257 11.8721 3.13291
159 2 0.196853 1.47262 9.27122 11.5689
18 4 1.22947 -2.13701 8.16022 12.775
22 4 1.22144 -0.807551 12.8115 12.068
32 4 0.953189 -2.32495 10.269 8.96403
35 4 1.248 -1.47747 10.6695 14.2307
50 1 -0.647838 2.21945 10.0378 11.9445
160 2 0.167195 0.881359 10.8341 14.5732
158 2 0.193889 1.80881 10.8397 12.6656
51 1 -0.641177 0.0584735 11.2186 15.2622
162 2 0.216936 0.0849553 12.3318 15.3743
72 3 -0.834251 -1.80112 7.8528 11.3129
83 3 -0.820408 0.156698 7.30567 9.38518
88 3 -0.773579 2.88846 7.70472 15.6536
92 3 -0.797081 -1.26137 11.4432 9.01959
95 3 -0.808169 4.16146 7.77831 11.8098
96 3 -0.791073 -1.10719 9.14165 13.5333
97 3 -0.815734 -1.59431 11.8347 13.111
98 3 -0.777256 -2.82237 10.5221 15.299
116 2 -0.0305538 -3.49214 9.15283 12.6028
120 2 0.0724183 -0.877436 12.1084 10.5469
126 2 0.0694346 -2.07078 9.15552 10.1863
127 2 -0.0544834 -3.79644 10.7502 9.59289
128 2 0.0417631 2.71153 9.16773 13.6571
139 2 0.171012 -4.72168 10.2395 13.7213
149 2 0.15459 2.98577 8.71761 8.74973
187 3 -0.791164 0.79769 12.945 12.5176
235 2 0.173728 11.8067 1.61156 2.71407
37 4 1.2668 13.0648 2.04602 5.75498
221 1 -0.662975 8.8127 0.822111 2.27795
39 4 1.25955 11.1574 4.0781 7.39187
45 1 -0.667445 7.0586 5.19251 7.00265
54 1 -0.682116 10.267 5.43388 6.47463
101 3 -0.82463 14.2804 2.86438 5.15374
102 3 -0.823995 13.4816 0.887143 6.82936
234 2 0.173235 11.2295 0.138187 1.68948
4 4 1.40268 15.1673 2.74582 3.76271
106 3 -0.780995 11.8984 2.92975 6.36443
232 3 -0.775986 14.3846 1.41084 2.78146
129 2 -0.00211483 12.1567 1.2751 4.45986
130 2 0.115851 7.81587 6.14256 3.62845
169 2 0.226449 10.7135 6.38488 6.84941
250 2 0.182512 11.7954 4.50295 0.393902
146 2 0.181285 7.68121 4.35304 6.62621
231 1 -0.638864 11.7072 0.497635 2.67373
145 2 0.160642 7.11903 6.17605 6.40024
170 2 0.186039 9.10678 5.36408 6.58566
171 2 0.171907 10.5469 5.22502 5.38793
267 2 0.181186 12.6373 6.17379 0.311784
224 2 0.182494 9.32827 1.38747 1.4751
225 2 0.131503 8.8883 1.34808 3.30108
103 3 -0.769141 5.80019 6.37491 1.47816
134 2 0.24529 16.6252 0.156674 5.5443
11 4 1.45355 13.0872 6.10114 8.90271
36 4 1.34538 8.97242 2.14979 9.12223
52 1 -0.662826 10.1349 0.749195 9.83988
188 3 -0.770732 8.72672 2.07984 14.4587
100 3 -0.832052 8.30586 2.88135 10.3603
107 3 -0.799762 12.3369 4.53683 8.5534
110 2 0.0484881 14.6702 3.54258 9.88076
105 3 -0.761673 9.84663 3.2269 8.16477
202 2 0.176448 14.0616 3.69018 11.5622
163 2 0.172748 11.1698 1.20186 9.74392
77 3 -0.737495 7.39194 4.30952 15.7164
165 2 0.247575 9.81847 0.413082 10.9729
172 4 1.04801 16.0344 2.53668 14.184
173 1 -0.668012 14.6732 1.34743 13.3207
174 2 0.0435098 14.3241 2.44796 14.8109
175 2 0.0746074 16.0491 0.900931 12.821
176 2 0.166927 14.1524 1.98879 12.5134
6 4 1.34969 15.8469 2.59125 9.19362
178 4 1.14146 13.9827 5.43046 14.2873