ITEM: TIMESTEP
0
ITEM: NUMBER OF ATOMS
274
ITEM: BOX BOUNDS xy xz yz pp pp pp
-8.3797999999999995e+00 1.8013900000000000e+01 -8.3797999999999995e+00
0.0000000000000000e+00 1.3273200000000001e+01 1.1950000000000001e+00
0.0000000000000000e+00 1.6075500000000002e+01 4.3120000000000003e-01
ITEM: ATOMS id type q x y z
119 2 -0.00564545 7.2892 1.28071 5.43188
12 4 1.33972 -0.850364 6.3146 5.08988
7 4 1.10747 1.18363 2.11864 5.21215
9 4 1.30915 -0.409223 4.50206 1.67757
10 4 1.60288 0.49131 4.36863 7.14443
242 1 -0.68411 3.23127 0.516367 3.07375
21 4 0.80768 5.57513 1.53004 5.74681
26 4 1.28957 5.30107 4.67645 6.87956
41 1 -0.65547 0.969134 0.36643 5.93267
44 1 -0.679105 4.18411 3.98924 1.84591
55 3 -0.80992 1.17977 0.866651 0.965311
56 3 -0.804894 -0.107382 2.4188 4.23866
58 3 -0.811567 -1.60911 4.3428 2.64195
59 3 -0.876294 0.0476743 3.26633 0.872294
243 2 0.166981 3.37129 1.53847 2.71585
61 3 -0.782703 1.48917 3.09119 6.34709
62 3 -0.87232 -0.226637 5.28791 6.10232
74 3 -0.798963 5.43429 0.469342 7.32915
78 3 -0.878336 0.804419 5.22582 2.40178
81 3 -0.772179 5.30122 3.06094 6.02174
84 3 -0.818475 2.81052 5.92371 4.08751
85 3 -0.79295 4.72304 5.87831 6.01409
113 2 0.0989764 -1.69265 5.45167 3.89507
111 2 0.012701 2.63791 2.13092 4.17588
112 2 -0.0262105 -1.01402 5.43382 0.40667
5 4 1.37316 0.452102 2.01246 0.0628111
118 2 -0.0193385 4.41833 0.86199 4.59951
24 4 1.18503 5.03405 5.12744 0.671248
222 3 -0.741732 6.34518 1.62051 1.22299
223 2 -0.0878728 6.14403 1.06204 3.98538
141 2 0.182824 4.50849 2.85385 1.748
142 2 0.199147 3.07296 4.15574 1.64563
143 2 0.195823 4.52496 4.52976 2.83403
220 4 1.02849 6.74934 0.529608 2.32157
135 2 0.203106 1.04179 0.353926 7.12813
25 4 1.44058 1.47301 6.38391 3.2046
267 2 0.174101 -3.64515 6.0618 0.467284
244 2 0.14189 2.87599 0.392139 4.10157
82 3 -0.805357 1.49229 5.20468 8.03763
138 2 0.154764 1.1433 0.479271 11.3859
8 4 1.27544 1.76968 2.67288 10.9206
13 4 1.21003 0.372792 4.9617 12.7316
229 2 -0.019224 3.6453 6.36701 13.2785
20 4 1.30391 4.44618 3.0165 9.26583
23 4 1.22165 6.87044 2.96686 11.2085
99 3 -0.816488 7.96281 1.04695 8.57374
226 4 0.900884 3.62993 6.31389 15.0643
42 1 -0.687954 1.95478 1.13402 11.9736
57 3 -0.822146 0.36573 2.49828 10.1356
63 3 -0.877995 -0.450913 3.83636 13.5016
64 3 -0.79239 1.83849 4.20162 12.2006
65 3 -0.814163 -2.22107 5.73198 9.679
66 3 -0.861881 -0.305617 5.74322 11.516
73 3 -0.809851 3.07695 2.72914 9.97043
75 3 -0.846861 5.47784 3.24592 10.403
76 3 -0.849268 6.7317 1.44764 11.8874
80 3 -0.785252 4.60366 4.31184 8.28405
29 4 0.963582 3.68811 6.36111 11.1064
137 2 0.182677 2.92807 0.706338 11.9182
114 2 -0.044536 0.866531 6.14688 13.8718
248 2 0.151538 3.70332 3.68233 15.3955
124 2 0.0811993 3.30385 4.83112 11.7889
136 2 0.176782 1.55545 1.30467 13.007
179 4 1.26546 7.53303 2.94395 15.6484
183 1 -0.686504 5.90164 2.39024 14.9709
14 4 1.50048 -1.06335 6.65068 10.5119
86 3 -0.792478 2.63568 6.52347 9.98778
196 2 0.163414 5.47131 3.26071 14.4457
117 2 0.100379 4.95752 1.68587 8.27396
227 3 -0.807888 5.07235 5.95369 15.643
195 2 0.212193 6.16728 1.59256 14.1762
245 1 -0.685189 2.92159 3.10139 14.7997
246 2 0.205282 2.54435 3.678 13.8725
247 2 0.180647 3.4157 2.15613 14.5197
123 2 -0.0193053 5.23863 5.90099 10.5368
228 2 -0.0278297 2.4717 5.02604 15.1206
197 2 0.189457 5.28308 1.97772 15.8121
187 3 -0.775279 8.99699 0.4012 12.5636
262 3 -0.817001 0.437087 1.80725 15.1857
27 4 1.41791 1.55502 6.63632 8.81775
60 3 -0.811243 -0.677064 3.64319 8.08193
272 2 0.176984 0.624056 10.1154 0.19338
3 3 -0.828194 -5.83044 11.4824 0.769397
268 2 0.168466 -4.14738 8.18056 1.01344
16 4 1.45686 -3.04583 7.93591 6.65787
17 4 1.26994 -4.3828 9.93424 4.83652
154 2 0.159088 0.927885 9.35204 7.07942
161 2 0.179822 -1.23952 9.99933 0.279228
31 4 1.24528 -2.02081 10.3262 2.95531
33 4 1.15293 -0.0667473 11.1147 5.38026
48 1 -0.671732 -1.175 8.93681 1.98175
49 1 -0.652491 0.0139022 9.43155 6.27296
67 3 -0.841591 -3.76136 7.0118 7.78427
68 3 -0.858329 -1.9371 7.13923 5.88395
28 4 1.20167 3.88318 6.79201 4.90104
70 3 -0.800675 -4.15409 8.57983 5.57333
79 3 -0.845019 0.243385 7.20954 4.41539
87 3 -0.813059 1.80474 7.57654 2.17166
30 4 0.99269 2.49077 8.26903 0.944086
89 3 -0.768605 -2.07028 11.8855 2.09342
90 3 -0.816132 -3.47133 9.92455 3.52909
93 3 -0.821044 -1.03772 10.7725 4.27072
94 3 -0.811607 -0.538335 12.2631 6.48202
115 2 -0.016053 -3.89876 11.2085 5.75364
147 2 0.163912 1.79678 7.49509 6.56043
151 2 0.193723 -0.0969376 9.32337 1.56638
152 2 0.149569 -2.00707 8.82335 1.19033
153 2 0.200966 -1.13184 8.01794 2.62734
251 1 -0.661527 -5.13632 8.7563 1.21081
155 2 0.280599 0.075713 8.55358 5.54223
156 2 0.278923 -1.02348 9.42747 6.86379
46 1 -0.66413 2.42154 7.85765 7.52623
148 2 0.179584 3.532 7.64099 7.47862
265 2 0.192246 -4.39581 12.5846 2.59846
19 4 1.3143 -1.37747 12.7614 7.81807
1 4 1.34824 -6.57361 12.5255 1.81084
69 3 -0.84219 -5.87533 10.3165 4.37947
91 3 -0.849273 -2.51568 9.54704 7.62173
133 2 0.181754 -6.61277 12.6173 5.45148
47 1 -0.654158 1.65964 9.93707 0.794278
252 2 0.228062 -5.25937 9.16971 2.24517
149 2 0.148321 2.18066 8.95077 7.8083
122 2 -0.00577485 3.11748 8.11423 5.72807
271 2 0.151138 1.52863 10.1543 1.93142
270 2 0.181685 0.538648 12.1474 2.23714
159 2 0.194286 1.50685 10.3528 12.2582
18 4 1.23009 -2.26083 8.16032 12.8736
22 4 1.28701 -0.871936 12.9771 12.0158
32 4 0.986476 -2.52546 10.322 8.90442
35 4 1.2642 -1.46811 10.729 14.1939
15 4 1.10676 -4.06099 10.6954 16.0407
160 2 0.168855 0.853536 10.6147 14.6169
157 2 0.161589 2.65868 9.80165 10.7637
51 1 -0.652403 0.0491273 11.0102 15.3176
162 2 0.208924 0.110711 12.1073 15.4924
72 3 -0.836924 -1.91672 7.88593 11.2249
83 3 -0.792806 0.151249 7.22789 9.27592
88 3 -0.760776 3.1273 7.7108 15.5948
92 3 -0.807735 -1.46019 11.4175 9.18507
95 3 -0.800475 3.76137 7.74983 11.9354
96 3 -0.769442 -1.15899 9.188 13.3477
97 3 -0.811677 -1.38783 11.845 12.9577
98 3 -0.834101 -2.77448 10.7152 15.1413
116 2 -0.0409909 -3.61761 9.10365 12.7059
120 2 0.113785 -0.852728 12.2831 10.4652
126 2 0.091623 -2.22415 9.1855 10.1368
127 2 -0.0560445 -4.09492 10.5767 9.40541
128 2 0.0266431 2.43217 9.73166 13.705
140 2 0.164892 -5.89347 11.3783 14.5862
50 1 -0.649226 2.58338 10.4083 11.8812
139 2 0.157957 -4.73308 10.2707 13.7749
71 3 -0.841167 -2.45395 6.90343 13.7196
235 2 0.166194 11.8056 1.61532 2.68864
37 4 1.24828 13.0184 2.14963 5.56138
221 1 -0.645729 8.62001 0.377067 2.30219
39 4 1.28512 11.1455 3.90166 7.55119
45 1 -0.69711 7.1492 5.04019 7.20671
54 1 -0.644145 10.3512 5.45747 6.83948
101 3 -0.829151 14.0394 3.06607 4.7676
102 3 -0.83098 13.6591 1.02744 6.57374
234 2 0.1758 11.5226 0.284332 1.56711
4 4 1.44014 15.1382 2.70832 3.67663
106 3 -0.781325 11.8666 3.04875 6.28152
232 3 -0.771289 14.5507 1.46999 2.78535
129 2 0.00289272 12.2041 1.29532 4.34813
130 2 0.0958485 7.68645 6.13691 3.76112
169 2 0.224875 10.8002 6.35679 7.34042
250 2 0.177747 11.9923 4.57927 0.61429
146 2 0.176414 7.72174 4.20086 6.77161
231 1 -0.666255 11.8363 0.474425 2.62765
145 2 0.164156 7.38393 6.03444 6.79939
170 2 0.177622 9.11411 5.28497 6.9254
171 2 0.186672 10.7529 5.28164 5.73848
207 4 1.2471 14.4008 0.314132 7.79775
224 2 0.183203 8.90597 1.05229 1.4192
225 2 0.116647 8.76585 0.878169 3.40481
134 2 0.257147 16.7827 0.151423 5.56396
249 1 -0.635963 12.8734 5.05607 0.0660997
11 4 1.51095 13.1253 6.1146 9.08873
36 4 1.33217 8.98602 2.18571 9.17093
52 1 -0.6733 10.2748 1.09253 10.0101
188 3 -0.796479 8.74351 2.16366 14.8458
100 3 -0.838747 8.15969 3.01364 10.2841
107 3 -0.771685 12.3602 4.50991 8.692
110 2 0.0421178 14.5537 3.20653 10.1136
121 2 -0.0262873 7.10468 4.10456 12.3908
202 2 0.169585 13.9108 3.49193 11.7613
163 2 0.175578 11.1301 1.78292 10.1061
77 3 -0.727452 7.55809 4.48725 15.8917
165 2 0.246851 9.83014 0.827658 11.0191
172 4 1.00729 16.1056 2.38513 14.1185
173 1 -0.661532 14.7251 1.26757 13.2365
174 2 0.0437408 14.3688 2.39008 14.7195
175 2 0.0792679 16.0312 1.01347 12.5796
176 2 0.165558 14.1118 1.89183 12.4882
6 4 1.34588 15.8736 2.57079 9.19452
178 4 1.07488 13.8908 5.37954 14.3884
180 4 1.23599 9.82585 1.44897 13.9114
181 4 1.31496 11.7798 3.83031 12.6476
205 2 0.156809 9.22268 5.70628 9.53071
185 1 -0.688875 12.9362 3.11187 11.2227
144 2 0.182309 7.17624 5.0168 8.33628
189 3 -0.774396 10.9401 2.56959 13.1633
190 3 -0.835351 12.9202 4.39244 13.7137
192 3 -0.81207 10.8292 5.02366 11.9495
263 3 -0.860964 15.3349 1.216 8.74241
199 2 0.168683 11.7806 0.733549 14.9788
200 2 0.253484 12.6699 3.60216 10.1655
201 2 0.147299 12.7501 2.00087 11.2701
182 4 1.04538 10.7591 6.26792 11.0515
105 3 -0.822225 9.90656 3.08012 8.13012
266 2 0.071388 15.181 4.49499 15.5579
237 1 -0.683333 7.79378 10.352 0.533119
256 2 0.142685 1.78722 11.5531 3.63825
167 2 0.179018 8.98881 7.34133 2.53938
53 1 -0.646898 8.24951 7.41779 3.307
104 3 -0.803236 5.014 7.49607 3.90368
233 2 0.160588 2.80503 12.7179 3.47023
125 2 -0.00775915 4.2103 8.37084 1.14951
150 2 0.146157 2.52747 10.5349 0.260169
166 2 0.00153998 7.08594 8.78593 2.58198
168 2 0.159831 8.58796 7.91279 4.24548
206 4 1.18741 9.4664 10.5965 3.95263
215 2 0.153268 5.19946 9.42063 6.37893
208 4 0.980982 7.56826 10.2884 6.77075
209 1 -0.647146 6.27159 9.02836 6.22123
255 2 0.161238 1.44936 12.8044 5.1402
211 3 -0.748928 8.55672 10.6843 5.3322
212 3 -0.74163 6.80135 11.9188 7.29546
213 2 -0.00544501 8.84451 9.21339 3.01634
254 1 -0.665341 1.68552 11.6806 4.82695
216 2 0.14574 6.59624 8.20047 6.98939
217 2 0.176956 6.62018 8.90389 5.10111
230 4 1.09509 5.30992 12.7707 2.51065
253 2 0.139558 10.8216 8.14383 0.884796
103 3 -0.77563 5.84021 6.48092 1.52751
238 3 -0.803759 5.5804 12.0672 1.10526
240 2 0.197418 8.13233 10.5926 1.53261
38 4 0.992271 6.23108 7.23268 2.83902
257 2 0.143781 2.48229 11.1132 5.41042
258 1 -0.656882 5.87492 11.4506 3.74837
259 2 0.147167 5.73359 10.4028 3.27118
260 2 0.138536 4.983 11.6941 4.50884
261 2 0.225449 6.90613 11.4586 4.27085
239 2 0.125303 6.95345 9.40801 0.657556
2 3 -0.818318 9.28316 11.8822 2.91151
274 2 0.147777 8.58898 8.45974 7.77482
198 2 0.166406 2.36599 12.0802 14.2257
40 4 0.944036 6.42653 10.9716 13.1639
108 3 -0.816866 5.23244 10.0685 12.9484
109 3 -0.838047 6.97082 11.4051 14.5127
214 2 -0.0379178 4.83378 12.425 8.81207
132 2 -0.0325912 7.64246 10.183 12.3087
236 4 1.05404 7.55053 11.862 15.9459
203 2 0.176473 8.86714 7.67284 9.43455
131 2 -0.0153078 6.19306 12.4106 12.2076
193 2 0.0690406 11.1769 9.43592 15.5302
218 2 0.145653 7.88276 9.47098 9.16863
194 2 0.00417299 9.84054 7.64029 11.7376
241 2 0.178917 9.80689 10.625 15.8204
269 2 0.14296 10.3279 9.97985 13.5405
264 2 0.0828144 9.21974 12.4353 15.6585
164 2 0.1638 2.16069 12.973 9.39346
34 4 0.991606 3.81307 9.25008 12.6556
191 3 -0.819912 12.0951 6.7428 10.1411
158 2 0.157708 3.1129 11.4563 11.81
210 1 -0.665057 8.51154 9.49203 8.25312
43 1 -0.665177 11.1459 10.3352 14.2843
219 2 0.172383 9.49787 9.93915 8.50792
184 1 -0.660878 2.4031 13.0733 14.8954
273 2 0.176705 1.83339 12.9686 15.907
186 1 -0.665119 9.13737 6.81865 10.1517
177 2 0.169019 5.79959 13.1532 13.6406
204 2 0.145705 8.34547 6.77622 10.9171
ITEM: TIMESTEP
100
ITEM: NUMBER OF ATOMS
274
ITEM: BOX BOUNDS xy xz yz pp pp pp
-8.3797999999999995e+00 1.8013900000000000e+01 -8.3797999999999995e+00
0.0000000000000000e+00 1.3276518300000001e+01 1.1950000000000001e+00
0.0000000000000000e+00 1.6075500000000002e+01 4.3130780000000002e-01
ITEM: ATOMS id type q x y z
119 2 -0.0205691 7.41607 1.36615 5.3305
12 4 1.33466 -0.923896 6.22765 5.24105
7 4 1.12714 1.11167 2.10083 5.04871
9 4 1.27409 -0.488348 4.57991 1.79624
10 4 1.62775 0.583847 4.2972 7.12025
242 1 -0.659761 3.59861 0.463933 2.94741
21 4 0.792515 5.75875 1.59601 5.64875
26 4 1.32339 5.23927 4.50009 6.83907
41 1 -0.638594 0.696134 0.558007 6.10318
44 1 -0.670011 4.03739 4.10084 1.73252
55 3 -0.762865 1.13058 0.891517 1.01871
56 3 -0.86408 -0.182206 2.33802 4.265
58 3 -0.814675 -1.75331 4.29725 2.70014
59 3 -0.861841 -0.0592008 3.46553 0.78277
243 2 0.151215 3.35077 1.54647 2.5807
61 3 -0.799735 1.46744 3.16295 6.20177
62 3 -0.871919 -0.172074 5.30545 6.17902
74 3 -0.799756 5.59718 0.562837 7.32417
78 3 -0.875142 0.716458 5.28619 2.49744
81 3 -0.804313 5.43736 3.14753 5.95983
84 3 -0.828807 2.79436 6.2644 3.98212
85 3 -0.803847 4.60318 5.60218 5.90051
113 2 0.0833961 -1.67859 5.27546 4.04672
111 2 -0.0154319 2.43343 1.71458 3.9581
112 2 -0.0127399 -1.09088 5.89339 0.967169
5 4 1.29046 0.289721 2.04549 0.0425241
118 2 -0.00397562 4.54422 0.834672 4.55541
24 4 1.27149 5.0818 5.11942 0.488604
222 3 -0.775481 6.41518 1.67006 1.12559
223 2 -0.0927109 6.26068 1.02629 3.96473
141 2 0.185442 4.54093 3.11159 1.93167
142 2 0.178621 2.92414 3.97718 1.40837
143 2 0.212994 4.18616 4.80058 2.58167
220 4 1.00938 6.77453 0.55836 2.28141
135 2 0.239779 0.396962 0.97573 7.17623
267 2 0.17292 -3.79421 6.13525 0.507739
60 3 -0.81363 -0.473466 3.49515 7.97254
138 2 0.153073 0.746731 0.723925 11.7385
8 4 1.23917 1.69248 2.72596 10.9434
13 4 1.20762 0.310386 4.91407 12.7024
229 2 -0.0366897 3.65772 6.38845 13.443
20 4 1.27195 4.61391 2.99979 9.36106
23 4 1.24986 6.88568 2.84157 11.3539
99 3 -0.858923 7.94626 1.29716 8.27308
226 4 0.935156 3.70249 6.31875 15.1556
42 1 -0.672607 1.80526 1.19749 11.9764
57 3 -0.810612 0.255143 2.52207 10.1859
63 3 -0.880604 -0.53869 3.84278 13.4833
64 3 -0.797377 1.77743 4.21621 12.2156
65 3 -0.824958 -2.14318 5.76257 9.40385
66 3 -0.856816 -0.489877 5.54465 11.4081
73 3 -0.769165 3.16986 2.73513 9.99861
75 3 -0.869815 5.66256 3.29041 10.4847
76 3 -0.84365 6.68807 1.31732 11.9812
80 3 -0.781052 4.52569 4.23626 8.33278
29 4 0.975195 3.7622 6.41266 11.2092
137 2 0.168851 2.60984 0.554917 11.5466
114 2 -0.0409172 0.582197 6.2291 13.7824
248 2 0.154465 3.55087 3.6914 15.6825
124 2 0.0579635 3.09506 5.21166 12.203
136 2 0.178289 1.98126 1.33262 13.0678
179 4 1.28652 7.5213 2.6802 15.6915
183 1 -0.671891 5.95009 2.17504 14.8978
14 4 1.52341 -1.02865 6.55314 10.3824
86 3 -0.814619 2.73063 6.62021 10.0577
196 2 0.173516 5.58884 3.03442 14.2816
117 2 0.102937 5.15291 1.70101 8.32406
227 3 -0.826114 5.13397 6.00135 15.5219
195 2 0.227767 6.16112 1.22554 14.2347
245 1 -0.682894 2.89586 3.07725 14.9347
246 2 0.197321 2.53618 3.59322 14.0448
247 2 0.177291 3.27536 2.07728 14.6602
123 2 0.0013314 5.18468 5.85442 10.5503
228 2 -0.0135106 2.58482 5.0272 15.3308
197 2 0.186745 5.17488 1.90522 15.6497
266 2 0.0704655 -1.53097 4.75071 15.6789
262 3 -0.798183 0.27108 1.78059 15.2508
82 3 -0.776721 1.40078 5.36094 8.163
121 2 -0.00771007 6.90287 3.90368 12.701
71 3 -0.823276 -2.35653 6.71366 13.6886
272 2 0.175114 0.613058 10.2113 0.183936
3 3 -0.791364 -5.87105 11.1963 1.0256
268 2 0.170709 -3.85615 8.49262 1.1613
16 4 1.47126 -3.23394 7.98034 6.692
17 4 1.26304 -4.44322 9.97657 4.85454
154 2 0.177556 0.973027 9.44824 7.26672
161 2 0.19462 -1.29139 10.1662 0.250899
31 4 1.19574 -1.97117 10.5041 2.98638
33 4 1.15118 0.158611 11.0546 5.45626
48 1 -0.651327 -1.22992 9.09945 1.97871
49 1 -0.675338 0.169233 9.40569 6.54334
25 4 1.41083 1.35626 6.55553 3.3751
68 3 -0.821987 -2.06345 7.2175 5.92773
28 4 1.21071 3.94427 6.79809 4.91376
70 3 -0.78777 -4.40536 8.55736 5.62843
79 3 -0.837655 0.146126 7.15456 4.58263
87 3 -0.779521 1.74444 7.94889 2.36817
30 4 1.05686 2.27851 8.24009 0.925837
89 3 -0.743265 -2.12615 11.9547 1.81783
90 3 -0.835059 -3.3796 10.1463 3.66788
93 3 -0.788945 -0.728359 10.8588 4.21682
94 3 -0.80691 -0.546904 12.1117 6.48281
115 2 -0.0219226 -4.08761 11.1459 6.03709
147 2 0.164442 1.89596 8.44444 6.8945
151 2 0.191355 -0.0797619 9.40576 1.49972
152 2 0.153675 -2.09892 9.03904 1.20871
153 2 0.195218 -1.18972 8.21303 2.71466
251 1 -0.645233 -5.01478 8.68047 1.3343
155 2 0.275489 0.185554 8.50079 5.80598
156 2 0.296485 -0.848523 9.40825 7.03945
46 1 -0.661568 2.56857 7.97378 7.72456
148 2 0.165891 3.405 7.2366 7.29012
265 2 0.223058 -4.26929 12.4858 2.20465
19 4 1.35484 -1.29133 12.8398 7.74715
1 4 1.23184 -6.53864 12.5165 1.97932
69 3 -0.864017 -5.89856 10.2749 4.43847
91 3 -0.842836 -2.50691 9.38777 7.6385
133 2 0.148473 -6.71664 12.7964 6.05569
47 1 -0.65663 1.64519 10.0568 0.730863
252 2 0.2231 -5.21219 9.00363 2.3655
15 4 1.08389 -5.32903 10.0452 0.0952369
122 2 0.00139628 3.34244 8.07906 5.89969
271 2 0.167172 1.65004 10.4569 1.80979
244 2 0.127424 -5.2812 12.7876 3.93139
159 2 0.186336 1.47476 9.72804 11.9597
18 4 1.23559 -2.11159 8.13932 12.7371
22 4 1.23333 -0.835611 12.8784 12.0526
32 4 0.943094 -2.44078 10.2739 8.90332
35 4 1.23184 -1.42032 10.7148 14.1185
50 1 -0.663618 2.4389 10.3 11.889
160 2 0.162527 0.845266 10.4145 14.6148
27 4 1.43435 1.63845 6.74739 8.94212
51 1 -0.653208 0.0792962 11.0231 15.2268
162 2 0.203956 0.319165 12.1051 15.3382
72 3 -0.858888 -1.76477 7.91908 11.2713
83 3 -0.813762 0.196937 7.20982 9.43763
88 3 -0.824821 3.1361 7.70493 15.7578
92 3 -0.795936 -1.34453 11.4455 9.0343
95 3 -0.844078 4.00753 7.80757 11.8877
96 3 -0.802092 -1.174 9.11833 13.5533
97 3 -0.84031 -1.54182 11.8669 13.0121
98 3 -0.758879 -2.88313 10.6203 15.2512
116 2 -0.0264919 -3.6597 8.68838 12.7018
120 2 0.0726188 -0.831879 12.207 10.5065
126 2 0.0857096 -2.16329 9.06951 10.0221
127 2 -0.0595038 -3.91286 10.8458 9.37276
128 2 0.0340157 2.70598 9.47467 13.6099
139 2 0.146892 -4.5706 10.3784 13.5973
149 2 0.15508 3.00954 8.77209 8.42181
187 3 -0.782305 0.818706 13.1229 12.4091
140 2 0.153357 -6.03912 11.3041 14.3571
235 2 0.15195 11.6951 1.68792 2.83467
37 4 1.2866 12.9994 2.11453 5.63023
221 1 -0.666836 8.65421 0.567324 2.4075
39 4 1.32668 11.1812 3.90542 7.4379
45 1 -0.675234 7.03845 5.13476 7.18288
54 1 -0.656264 10.2315 5.39293 6.65814
101 3 -0.828844 14.2349 2.7795 4.95365
102 3 -0.805152 13.6111 1.00169 6.62342
234 2 0.17281 11.2993 0.335095 1.58264
4 4 1.48453 15.2028 2.59081 3.71346
106 3 -0.848683 11.959 3.08059 6.33157
232 3 -0.828244 14.59 1.30051 2.91702
129 2 -0.0128063 12.2456 1.18698 4.38434
130 2 0.0953893 7.68481 6.106 3.70074
169 2 0.226357 10.7303 6.27827 7.12958
250 2 0.172942 11.9049 4.49572 0.469153
146 2 0.173585 7.66867 4.30452 6.71334
231 1 -0.661835 11.7763 0.591404 2.57019
145 2 0.165216 7.08114 6.10116 6.59305
170 2 0.189404 9.08152 5.30713 6.75193
171 2 0.173075 10.5377 5.25658 5.55655
207 4 1.26057 14.3975 0.268322 7.84962
224 2 0.175491 9.05083 1.41284 1.80419
225 2 0.13427 8.71367 0.69965 3.52212
249 1 -0.640188 12.8178 5.07397 0.124699
230 4 1.17685 13.7169 0.0888137 2.48422
103 3 -0.79028 5.74327 6.45518 1.5134
134 2 0.24567 16.6645 0.147107 5.45945
11 4 1.43215 13.0743 5.99329 9.05637
36 4 1.31162 8.98092 2.19606 9.05146
52 1 -0.664091 10.2974 1.01613 9.74702
188 3 -0.803174 8.71377 2.13748 14.7555
100 3 -0.78714 8.22433 2.97732 10.5846
107 3 -0.805413 12.1831 4.44806 8.62759
110 2 0.0393152 14.5022 3.51976 10.0912
105 3 -0.807707 9.82063 3.1447 8.19734
202 2 0.16614 13.956 3.56751 11.7141
163 2 0.179082 11.2512 1.61373 9.78572
77 3 -0.743553 7.2451 4.47835 15.8856
165 2 0.246471 9.88016 0.712624 10.891
172 4 1.00674 15.9436 2.45792 14.1329
173 1 -0.666693 14.6886 1.33501 13.1385
174 2 0.033713 14.306 2.19863 14.7988
175 2 0.0902828 15.9305 1.00869 12.5536
176 2 0.167761 14.0886 1.92443 12.338
6 4 1.30635 15.784 2.68353 9.2051
178 4 1.12121 13.9774 5.47547 14.4266
180 4 1.25331 9.91011 1.45091 13.7785
181 4 1.27809 11.8044 3.74998 12.5742
205 2 0.173133 9.01053 5.88075 9.75461
185 1 -0.683623 12.9406 3.1427 11.1848
144 2 0.182198 7.13219 5.23308 8.29256
189 3 -0.805995 10.9986 2.39453 13.1681
190 3 -0.787279 12.9266 4.54813 13.6875
192 3 -0.794527 10.9491 4.95417 11.8181
263 3 -0.848826 15.2271 1.26531 8.64484
199 2 0.176451 11.8574 0.746636 14.9154
200 2 0.25127 12.6037 3.62857 10.1261
201 2 0.139492 12.851 1.97058 11.1757
182 4 1.04836 10.8209 6.2829 11.0278
177 2 0.158066 14.1168 0.405259 13.5951
273 2 0.182337 10.2375 0.45164 15.8873
237 1 -0.667305 7.6852 10.0817 0.354737
256 2 0.166975 2.12853 11.2145 3.95209
167 2 0.149219 8.64408 7.57437 2.48319
53 1 -0.648288 8.00037 7.49119 3.43719
104 3 -0.807848 5.00346 7.60621 3.93222
233 2 0.158749 2.85508 12.7852 3.40729
125 2 0.00624351 3.97258 8.40884 0.924753
150 2 0.151871 2.55838 10.4891 0.153814
166 2 0.0243061 7.03259 8.70462 2.31568
168 2 0.173184 8.35693 8.00774 4.38598
206 4 1.21659 9.4833 10.5014 3.95667
215 2 0.175137 5.43207 9.85162 5.80003
208 4 1.08398 7.7148 10.4621 6.60188
209 1 -0.639968 6.25654 9.20451 6.27648
255 2 0.144722 1.61901 12.7535 4.97323
211 3 -0.813232 8.48425 10.4298 5.27323
212 3 -0.774876 6.77988 11.8923 7.23771
213 2 -0.00938357 8.86555 9.25298 2.91869
254 1 -0.685644 1.90672 11.6147 4.9423
216 2 0.151587 6.07119 8.75818 7.28148
217 2 0.184679 6.76367 8.4714 5.51656
219 2 0.166459 9.66091 10.0281 7.90213
253 2 0.123008 11.0362 7.89649 0.842264
270 2 0.172622 0.621407 12.3681 2.01228
238 3 -0.781338 5.66719 12.1992 1.10427
240 2 0.171367 8.09265 10.4216 1.37342
38 4 1.0181 6.12295 7.21638 2.85497
257 2 0.148413 2.67397 11.4168 5.74119
258 1 -0.67934 5.485 11.6148 3.88962
259 2 0.163275 4.8632 10.7411 3.63884
260 2 0.171869 5.01434 12.1986 4.7483
261 2 0.214649 6.48355 11.3175 4.17584
239 2 0.138542 6.92608 9.10861 0.232025
2 3 -0.814765 9.30085 11.9144 3.05353
274 2 0.178157 8.96898 8.44977 7.4147
67 3 -0.816059 12.8978 6.97166 7.68631
210 1 -0.663542 8.74202 9.43627 7.88915
198 2 0.160878 2.36992 12.0675 14.4635
40 4 0.892524 6.41296 11.109 13.0903
108 3 -0.824756 5.1621 10.1179 12.8291
109 3 -0.833562 6.83228 11.3346 14.5868
214 2 -0.0446116 4.83706 12.6075 8.97857
132 2 -0.0459708 7.76618 10.5898 12.3104
236 4 1.04645 7.47371 11.6984 15.9083
203 2 0.175471 9.26245 7.85253 9.5366
131 2 -0.0225164 6.27129 12.535 12.0784
193 2 0.0616104 11.1995 9.36034 15.2824
218 2 0.140586 8.26884 9.26908 8.91169
194 2 -0.00259797 9.97003 7.48734 11.9859
241 2 0.159405 9.79191 10.4183 15.5455
269 2 0.147845 10.419 9.82951 13.2925
264 2 0.0779134 9.05612 12.3114 15.6484
164 2 0.163268 1.91107 12.9905 9.00809
34 4 1.06697 3.99052 9.27254 12.4005
204 2 0.139414 8.50023 7.13527 11.1096
158 2 0.197024 2.2983 11.2852 12.3934
157 2 0.12893 2.93474 10.3077 10.7244
43 1 -0.630235 11.1067 10.246 14.0555
191 3 -0.80411 12.2561 6.77333 10.2651
184 1 -0.658117 2.44099 13.1608 14.9297
186 1 -0.677418 9.23723 6.95694 10.2276
ITEM: TIMESTEP
200
ITEM: NUMBER OF ATOMS
274
ITEM: BOX BOUNDS xy xz yz pp pp pp
-8.3797999999999995e+00 1.8013900000000000e+01 -8.3797999999999995e+00
0.0000000000000000e+00 1.3279836599999999e+01 1.1950000000000001e+00
0.0000000000000000e+00 1.6075500000000002e+01 4.3141560000000001e-01
ITEM: ATOMS id type q x y z
119 2 -0.0164054 7.39325 1.33082 5.26367
12 4 1.37734 -1.05021 6.30273 5.23887
7 4 1.09488 1.1447 2.13085 5.14627
9 4 1.24319 -0.587242 4.72987 1.84126
10 4 1.60718 0.485205 4.36268 7.09063
242 1 -0.660541 3.43623 0.392536 2.99128
21 4 0.76901 5.76014 1.52358 5.62537
26 4 1.32354 5.24868 4.5883 6.71287
41 1 -0.662912 0.597535 0.668431 6.21994
44 1 -0.672062 4.17551 3.99727 1.76088
55 3 -0.810805 1.07753 0.81021 1.11793
56 3 -0.810999 -0.0883441 2.32528 4.16894
58 3 -0.822495 -1.81437 4.23476 2.80122
59 3 -0.819938 -0.034713 3.43912 0.947404
243 2 0.150582 3.12973 1.49168 2.75962
61 3 -0.769688 1.46223 3.3992 6.11311
62 3 -0.879538 -0.415215 5.29588 6.23653
74 3 -0.805043 5.57889 0.494544 7.31541
78 3 -0.864652 0.604336 5.36918 2.53557
81 3 -0.782547 5.45302 3.12902 5.91147
84 3 -0.814329 2.61349 6.2702 4.24926
85 3 -0.801584 4.57786 5.78076 6.00979
113 2 0.0728967 -1.91274 5.43521 4.09847
111 2 -0.0134026 2.56143 1.41853 4.40063
112 2 -0.0254169 -1.22381 5.76893 0.654093
5 4 1.2992 0.393155 2.07505 0.244045
118 2 -0.00540754 4.51146 1.01701 4.48471
24 4 1.18912 5.01884 5.03383 0.526759
222 3 -0.783998 6.44068 1.59949 1.00216
223 2 -0.0876777 6.31553 1.09265 3.83785
141 2 0.187806 4.59579 2.96757 1.77373
142 2 0.185364 3.02397 4.05876 1.59509
143 2 0.191088 4.5223 4.7196 2.70163
220 4 0.981739 6.96601 0.591878 2.22213
135 2 0.249869 0.142919 1.104 7.08654
60 3 -0.839227 -0.474266 3.36149 7.94355
82 3 -0.780117 1.637 5.27355 7.99409
138 2 0.149777 1.2143 0.48554 11.4627
8 4 1.24881 1.68911 2.69042 10.9839
13 4 1.2044 0.308672 4.86739 12.5302
229 2 -0.0353753 3.74983 6.48198 13.418
20 4 1.24731 4.59547 2.95956 9.343
23 4 1.25778 6.96863 2.77164 11.2659
99 3 -0.841973 7.92691 1.20546 8.42043
226 4 0.919143 3.58766 6.40164 15.1163
42 1 -0.672386 1.86953 1.22676 12.083
57 3 -0.827877 0.285543 2.58838 10.2207
63 3 -0.882167 -0.577805 3.92201 13.4376
64 3 -0.799611 1.83768 4.15978 12.3832
65 3 -0.855878 -2.23543 6.00783 9.32377
66 3 -0.835421 -0.470695 5.31866 11.1724
73 3 -0.763176 3.06018 2.76443 10.0246
75 3 -0.861557 5.64084 3.17681 10.511
76 3 -0.850501 6.8484 1.34297 12.012
80 3 -0.757182 4.6558 4.1652 8.29895
29 4 0.946303 3.83826 6.33295 11.1685
137 2 0.167951 3.01476 0.930761 12.0521
114 2 -0.0309728 0.472923 6.2369 13.4609
248 2 0.14327 3.44897 3.77424 15.7768
124 2 0.0711027 3.10295 5.17488 12.2354
136 2 0.183238 1.45305 1.3722 13.1477
179 4 1.2735 7.49686 2.71548 15.6158
183 1 -0.683118 5.97015 1.82009 15.0544
14 4 1.47442 -0.998766 6.61527 10.2153
86 3 -0.833937 2.69785 6.39988 10.0952
196 2 0.165891 5.30695 2.66121 14.7686
117 2 0.0993089 5.04893 1.59196 8.378
227 3 -0.822337 4.97558 6.03635 15.7127
195 2 0.251902 6.25706 1.131 14.2211
245 1 -0.670408 2.89417 3.07624 15.0013
246 2 0.231128 2.42456 3.56771 14.1283
247 2 0.180077 3.57606 2.18493 14.7867
123 2 0.00149808 5.19841 5.62395 10.6072
228 2 -0.0174762 2.5765 5.04981 15.0555
197 2 0.199179 5.6703 1.29863 16.0041
71 3 -0.838 -2.43258 6.77925 13.6735
262 3 -0.803674 0.28928 2.03942 15.2149
27 4 1.37874 1.72592 6.5543 8.93683
266 2 0.0649014 -1.56343 4.81467 15.7825
272 2 0.178206 0.749482 10.3971 0.126195
3 3 -0.762816 -6.00876 11.3185 1.02285
268 2 0.17368 -3.93445 8.31663 0.993226
16 4 1.50509 -3.25576 8.0032 6.6642
17 4 1.24854 -4.50152 10.0308 4.92447
154 2 0.166575 0.957714 9.42016 7.21862
161 2 0.190776 -1.19579 10.1745 0.214696
31 4 1.27615 -1.75318 10.5343 3.0453
33 4 1.16526 0.241656 11.2121 5.4091
48 1 -0.646945 -1.11698 9.10007 1.93265
49 1 -0.644412 0.107464 9.50613 6.42443
25 4 1.39939 1.28938 6.6221 3.37916
68 3 -0.855438 -2.12415 7.1343 5.92965
28 4 1.20426 3.8635 6.90138 5.02466
70 3 -0.792426 -4.2958 8.59282 5.61309
79 3 -0.833204 -0.0435098 7.28938 4.53271
87 3 -0.792647 1.49683 7.90937 2.2986
30 4 0.969059 2.25596 8.31915 0.963598
89 3 -0.787643 -1.8331 11.8059 2.07329
90 3 -0.78295 -3.26236 10.1587 3.87232
93 3 -0.819767 -0.560671 10.856 4.11658
94 3 -0.825954 -0.351823 12.2637 6.40403
115 2 -0.0346591 -4.35151 11.3353 6.05416
147 2 0.163004 1.99227 8.36416 7.13313
151 2 0.211814 -0.065765 9.46687 1.47685
152 2 0.160858 -1.97796 9.01135 1.20103
153 2 0.214815 -0.990835 8.17542 2.64611
251 1 -0.654957 -5.04461 8.46735 1.32614
155 2 0.276924 0.162561 8.68643 5.57769
156 2 0.284007 -0.984426 9.5291 6.91865
46 1 -0.665036 2.66481 7.94374 7.88962
148 2 0.188053 3.55029 7.39054 7.54656
265 2 0.195954 -4.28774 12.6416 2.1844
19 4 1.3402 -1.28814 12.8232 7.69713
1 4 1.33355 -6.6136 12.5129 1.96864
69 3 -0.852009 -5.92497 10.0894 4.30594
91 3 -0.84124 -2.52835 9.48991 7.65462
133 2 0.149045 -6.84589 12.8839 6.44783
47 1 -0.659756 1.74934 10.123 0.681789
252 2 0.220503 -5.27331 8.74118 2.43308
15 4 1.00326 -5.35497 9.91162 0.0949729
122 2 -0.0163 3.33988 8.20111 6.0284
244 2 0.138914 -5.25732 12.6997 4.01088
2 3 -0.830911 -7.45164 11.8751 3.13356
159 2 0.196797 1.47322 9.2713 11.57
18 4 1.22919 -2.1371 8.16096 12.7747
22 4 1.22078 -0.807117 12.8124 12.0671
32 4 0.95302 -2.32385 10.2701 8.96428
35 4 1.24802 -1.47725 10.6695 14.2303
50 1 -0.647909 2.21962 10.0387 11.945
160 2 0.16722 0.881788 10.8305 14.5728
158 2 0.194041 1.80854 10.841 12.6647
51 1 -0.641019 0.0604129 11.2182 15.2613
162 2 0.217115 0.0908974 12.3306 15.3751
72 3 -0.834394 -1.80113 7.85387 11.313
83 3 -0.820378 0.156587 7.30559 9.38526
88 3 -0.772614 2.88865 7.7005 15.6532
92 3 -0.797207 -1.26318 11.4451 9.01954
95 3 -0.807834 4.16207 7.77829 11.8096
96 3 -0.79142 -1.10741 9.14366 13.5328
97 3 -0.815184 -1.59387 11.8364 13.1117
98 3 -0.777639 -2.82225 10.5217 15.2996
116 2 -0.0306061 -3.49307 9.15268 12.6031
120 2 0.0725926 -0.876539 12.1088 10.546
126 2 0.0694417 -2.06912 9.15589 10.1859
127 2 -0.0543829 -3.79614 10.7488 9.59333
128 2 0.0417113 2.71237 9.16923 13.6577
139 2 0.171088 -4.71985 10.2399 13.7232
149 2 0.154572 2.98607 8.71719 8.75004
187 3 -0.790756 0.798025 12.9473 12.5168
235 2 0.174163 11.8092 1.60666 2.71771
37 4 1.26732 13.0643 2.0449 5.75319
221 1 -0.662816 8.81202 0.821388 2.27889
39 4 1.25895 11.157 4.07774 7.39218
45 1 -0.667308 7.05842 5.19242 7.0024
54 1 -0.682139 10.267 5.43332 6.47494
101 3 -0.82385 14.2803 2.86496 5.15538
102 3 -0.823857 13.482 0.88678 6.8279
234 2 0.173991 11.2024 0.150343 1.70202
4 4 1.40219 15.1673 2.74523 3.76336
106 3 -0.78067 11.8991 2.92907 6.36491
232 3 -0.775574 14.384 1.40742 2.78405
129 2 -0.00166605 12.1608 1.26484 4.46242
130 2 0.11574 7.81615 6.14384 3.62707
169 2 0.226407 10.7137 6.38406 6.85045
250 2 0.182785 11.7944 4.50442 0.393737
146 2 0.181171 7.68102 4.35273 6.6252
231 1 -0.6388 11.7001 0.497502 2.67272
145 2 0.160683 7.11849 6.17621 6.40005
170 2 0.186045 9.10673 5.36368 6.58589
171 2 0.171985 10.5471 5.2247 5.38819
267 2 0.181313 12.6395 6.17525 0.312955
224 2 0.182048 9.32829 1.38665 1.47525
225 2 0.131293 8.88617 1.34725 3.3024
103 3 -0.769212 5.79912 6.37624 1.47866
134 2 0.24548 16.6265 0.152889 5.54289
11 4 1.45356 13.0873 6.10093 8.90259
36 4 1.3458 8.97189 2.14843 9.12171
52 1 -0.662651 10.1356 0.748944 9.8392
188 3 -0.771472 8.72654 2.07739 14.4592
100 3 -0.831995 8.30621 2.87987 10.3597
107 3 -0.799575 12.3375 4.5366 8.55494
110 2 0.0483566 14.6695 3.53905 9.88178
105 3 -0.761654 9.84632 3.22625 8.16424
202 2 0.176496 14.0606 3.69011 11.5628
163 2 0.172682 11.1702 1.2015 9.74389
77 3 -0.737821 7.39364 4.30311 15.717
165 2 0.247503 9.81908 0.411564 10.971
172 4 1.0483 16.0344 2.53469 14.1836
173 1 -0.667738 14.6737 1.34605 13.3187
174 2 0.0436405 14.3239 2.44505 14.8108
175 2 0.0748291 16.0485 0.900593 12.8177
176 2 0.167033 14.1498 1.98776 12.5127
6 4 1.34985 15.8472 2.5907 9.19337
178 4 1.14047 13.9833 5.43039 14.2865
180 4 1.26945 9.92532 1.40226 13.6779