ITEM: TIMESTEP
0
ITEM: NUMBER OF ATOMS
271
ITEM: BOX BOUNDS xy xz yz pp pp pp
-8.0241295096634282e+00 1.4920701945116591e+01 -7.8556211610155886e+00
-8.0830004002260603e-01 1.3391755282591641e+01 3.4935964687144894e-03
6.5076705643294996e-01 1.5958832943567099e+01 -8.4834475743104976e-01
ITEM: ATOMS id type x y z
120 1 -1.64604 4.98187 7.32664
227 4 1.49276 2.10548 0.929568
84 2 -1.33538 5.14589 3.22991
68 2 -0.987489 5.01029 6.21537
214 1 5.45399 0.134061 6.11812
45 2 -2.86582 6.35749 6.6679
252 2 5.40987 0.639426 1.3514
67 2 -2.7368 4.5499 7.17582
69 2 -1.52243 5.91273 7.96919
75 2 2.78802 4.02754 7.73472
192 4 -1.59839 2.48291 3.96091
4 4 -0.237172 3.75289 7.95198
138 3 0.107993 2.64743 4.23055
140 3 0.436788 2.94374 6.79636
3 4 0.946815 2.17887 5.46093
21 4 2.80377 5.86215 4.97322
41 2 2.58889 2.63999 5.2562
139 3 1.02617 0.415952 5.63724
201 2 3.96712 3.79607 6.42035
204 2 4.67474 0.864553 5.83965
213 1 4.20742 3.77442 5.13608
246 2 4.45759 2.54704 4.78917
50 2 3.57885 2.40944 2.72586
149 3 2.9029 0.517967 7.64718
74 2 4.78411 2.77264 7.45271
80 2 0.887327 4.25065 2.32057
203 2 3.23919 4.17237 4.49685
1 4 5.17492 1.59457 2.87982
19 4 0.381343 5.83855 3.02654
165 3 2.61381 6.06169 6.52535
228 2 1.74181 2.42117 2.76652
125 1 2.49095 3.54594 1.6403
155 3 1.43605 5.86954 4.20701
18 4 3.85727 4.51465 1.17121
55 2 5.41796 0.530852 4.18939
198 2 -1.98747 3.39804 2.58559
230 3 2.21677 0.772183 0.667521
82 2 -2.28806 6.48692 4.6998
207 2 -1.89414 3.30158 8.29697
66 2 -1.35007 4.89257 12.8898
141 3 -3.1685 5.76692 11.0267
42 2 0.423783 4.13162 12.5133
64 2 -0.754398 2.97954 13.2322
119 1 -0.354438 4.07227 13.2258
48 2 4.08449 4.32715 8.89893
152 3 4.84447 2.93196 15.4744
47 2 3.10019 -0.238153 10.6703
65 2 -0.0181992 4.32285 14.253
215 1 -0.0906036 -0.0623084 10.2359
209 2 -0.0440979 0.873746 10.8562
23 4 3.48767 5.96127 11.4283
76 2 2.90166 2.57595 9.63109
91 2 0.579305 5.72415 13.845
229 2 -0.743696 0.350068 15.6645
153 3 0.510204 4.27188 9.29729
266 2 2.12835 4.08292 15.7935
22 4 3.68003 2.93954 12.3411
53 2 3.38492 2.38515 13.9569
81 2 2.08653 2.46093 15.0889
150 3 5.02175 0.921661 9.55761
156 3 4.87882 2.12822 11.7776
158 3 3.41233 4.48353 12.2909
15 4 3.86958 1.47212 8.54743
86 2 2.07826 1.06779 13.1221
127 1 2.05122 2.01558 12.5232
87 2 2.04624 1.76012 11.34
85 2 1.12774 2.72237 12.7705
20 4 0.660397 5.93274 9.79546
231 3 -0.612073 1.4837 15.8618
17 4 6.14685 1.47293 10.7814
123 1 3.58762 3.52501 8.34192
61 2 -6.15591 10.9304 7.86328
205 2 -2.22926 12.8275 5.30346
126 1 -1.34233 6.69648 4.07716
2 4 -5.77533 12.8596 6.53238
8 4 -2.7956 8.10418 6.567
9 4 -4.06309 10.2881 5.08185
25 4 -1.4246 10.4666 3.43766
24 4 1.45084 7.844 0.768969
93 2 -2.62026 10.0729 1.4984
95 2 -1.25626 8.60061 1.56989
130 1 -2.08423 9.17966 2.14488
142 3 -5.42763 11.7091 1.55337
143 3 -4.86439 9.88004 3.7607
144 3 -4.12196 8.87709 6.08902
145 3 -4.77367 11.8675 5.74995
161 3 -2.53304 10.5757 4.6267
44 2 -1.60614 8.18401 5.39108
94 2 -2.83754 8.51398 2.72847
162 3 1.78394 9.35321 1.15218
160 3 -1.27522 12.3274 2.69981
167 3 -0.861623 10.7695 7.44174
118 1 -6.90136 11.7783 7.59375
202 2 -2.63884 12.8519 7.13135
51 2 -1.56418 7.61369 3.34544
7 4 -6.06097 10.4261 2.62873
253 2 -1.62583 12.228 1.09502
170 3 0.986417 8.36265 6.16308
83 2 -0.438349 6.95605 4.84203
169 3 -0.12537 9.76431 4.00556
27 4 1.69308 7.45519 7.30146
29 4 1.03336 9.57256 5.08363
159 3 0.56668 6.90598 1.73075
166 3 -2.24759 8.31292 7.94538
258 2 -7.23436 12.2637 3.67779
157 3 2.09723 6.22085 10.6651
54 2 2.72251 6.25137 15.2321
31 4 0.724521 10.2274 10.8382
70 2 -3.12771 12.599 11.4743
154 3 -0.62253 6.26553 10.7296
72 2 -5.72465 12.0415 11.8834
237 4 -6.34005 11.5545 15.7844
63 2 -7.25676 12.3226 8.58433
132 1 1.28585 8.83508 11.9158
71 2 -5.4177 11.4635 9.94318
121 1 -4.98313 12.0406 10.9857
43 2 -3.36478 7.99673 9.77169
10 4 -2.84492 8.80865 13.1212
11 4 -3.3868 10.9663 10.8788
28 4 -1.63541 9.86723 8.60431
30 4 -1.23732 10.702 14.8435
46 2 -4.2637 8.09584 13.7322
146 3 -1.90435 7.61469 12.6404
147 3 -3.12413 9.85697 11.9524
168 3 -2.83528 10.6884 9.43006
172 3 -2.36547 9.60215 14.4792
174 3 -1.23362 11.9989 13.8257
189 3 -6.31826 11.0241 14.1866
101 2 1.09205 9.22319 12.9675
175 3 -0.395684 9.64136 9.71936
100 2 0.422117 8.06591 11.553
129 1 1.08239 6.73995 14.2531
267 2 0.484753 7.68075 14.1213
92 2 2.15508 6.94367 13.7569
173 3 0.20444 9.99562 14.9164
164 3 0.672886 6.87094 8.40256
176 3 0.151061 11.3529 11.7441
5 4 -4.24674 6.65678 10.2014
6 4 -1.8131 6.17489 11.7453
208 2 -6.95121 12.7734 10.2173
16 4 -0.384932 12.5048 12.5927
52 2 5.10172 4.45581 4.80716
134 1 6.4916 5.8533 4.09942
177 3 4.44281 5.56 2.18709
106 2 6.48654 4.72272 3.89068
117 1 6.66969 1.97855 1.74751
60 2 6.1462 3.15949 3.07826
193 4 7.04791 0.986212 6.67937
206 2 6.76123 2.15561 8.06242
107 2 6.19538 6.12336 5.23043
257 1 11.3788 3.19507 1.58264
247 2 11.3163 3.12872 2.7307
269 2 14.5267 -0.111064 7.39815
221 3 7.59819 1.95647 5.51749
195 4 11.9716 -0.0425178 7.16687
148 3 7.70859 1.18798 1.40032
255 2 11.7136 1.28279 1.32168
194 4 8.65569 1.76405 4.22986
196 4 11.1438 2.7355 5.73949
197 4 9.83998 5.1475 7.58379
199 2 7.90143 2.75938 2.92317
220 3 8.75544 0.182645 3.88142
222 3 12.6124 3.20552 5.14124
223 3 10.0563 2.61077 4.43869
224 3 11.1699 1.25308 6.51085
225 3 10.7201 4.02699 6.90034
219 3 13.0921 0.942913 3.87449
217 1 8.56365 5.96202 6.46251
212 2 8.22847 4.55658 7.82926
218 3 7.83161 -0.214386 7.23727
216 1 13.7513 0.709923 7.40533
211 2 8.30714 5.35194 5.58933
254 2 10.337 3.17231 1.08314
265 2 7.81055 4.6231 0.702059
268 2 13.8523 1.37627 6.55758
105 2 7.48485 6.40923 3.80983
256 2 11.9911 4.1972 1.30851
262 2 10.6757 3.40974 11.8092
13 4 6.36338 2.27021 15.4928
248 2 7.02491 1.62116 13.9635
79 2 6.58134 3.33079 9.15049
73 2 7.18269 4.08982 13.9557
122 1 7.68452 3.27156 14.6441
151 3 6.98319 0.309098 11.581
124 1 7.25272 2.77344 9.89359
112 2 6.85232 5.75253 15.1624
108 2 6.64999 5.66015 8.44657
78 2 7.55333 3.39018 10.8331
251 2 14.5829 0.128397 9.18971
77 2 8.03266 2.16972 9.39007
226 3 10.35 5.87396 8.88567
232 4 12.4999 1.4346 15.4915
239 2 8.89471 4.00077 11.8212
263 2 9.45962 2.60822 13.0797
240 1 9.5692 3.03262 11.9988
264 2 8.72934 2.91297 14.1907
238 2 9.33809 2.22009 11.2234
233 4 11.5159 0.475913 12.8028
234 2 10.7877 1.50738 11.5854
235 3 11.9191 1.58305 14.0523
236 3 12.8678 -0.000493411 12.1041
49 2 9.01553 -0.368818 13.0057
244 3 10.5765 -0.640683 13.3226
270 2 13.6152 1.2846 8.41748
271 3 7.22584 12.5654 1.09088
210 2 9.35508 6.88253 6.21172
178 3 4.06982 7.10423 4.32621
102 2 3.12609 12.7048 4.46425
250 2 2.93589 11.5518 5.9057
104 2 4.77566 11.0232 6.11259
32 4 4.8452 12.7808 3.8378
109 2 4.94647 6.80882 7.30302
133 1 4.08708 11.8873 5.87017
12 4 0.233861 12.8517 2.55888
103 2 5.85663 12.029 5.05952
98 2 3.20876 8.55869 4.14472
96 2 3.26117 10.4373 4.44908
97 2 2.26894 9.60991 2.95256
131 1 2.63667 9.57192 4.07828
163 3 1.3803 12.024 1.74932
171 3 1.29061 11.155 5.9467
182 3 5.9064 7.95574 2.17112
185 3 5.01272 11.8545 2.51344
36 4 6.67257 8.84072 1.09279
260 2 6.66617 10.7465 3.51873
37 4 5.74363 11.9442 0.976706
114 2 2.92416 9.51825 7.43928
135 1 5.90403 7.12714 7.82013
115 2 4.13933 8.00761 7.90085
137 1 3.07521 8.60732 8.08803
200 2 7.55695 6.37528 7.0184
56 2 6.56166 7.72673 7.13567
261 1 7.7209 11.1634 3.7712
62 2 7.42424 11.3414 6.85248
183 3 8.16119 9.39142 1.53313
259 2 8.2016 10.7992 4.79507
14 4 0.424695 11.6142 7.2625
33 4 5.10448 6.71238 3.14901
58 2 4.36638 10.0974 8.17906
39 4 7.81739 10.2078 13.1687
186 3 3.59629 12.756 8.55815
35 4 8.40743 7.64214 11.8656
184 3 5.94637 9.28074 15.671
110 2 5.56217 8.44481 8.90502
116 2 2.84273 8.67949 9.16382
249 2 1.39157 11.332 8.63653
188 3 8.55354 9.14257 12.3338
26 4 1.54713 10.1192 15.8318
88 2 3.32427 8.2029 12.8088
99 2 2.37084 8.42858 11.8222
34 4 6.03908 6.81457 9.8129
38 4 3.77662 11.3593 9.34492
40 4 5.98607 12.2416 11.3558
59 2 6.6561 9.56269 14.2192
89 2 4.98283 7.48663 12.4265
90 2 3.91133 6.69999 13.7883
128 1 3.89642 7.24447 12.7956
187 3 2.3488 10.9122 9.8769
190 3 4.93597 11.4625 10.3669
241 4 3.80764 11.297 14.1652
242 2 4.7952 10.4349 13.0835
243 3 4.80714 11.9712 15.183
245 3 2.7123 10.3363 14.7084
111 2 6.69426 7.34943 14.111
191 3 6.91946 11.194 12.1881
181 3 7.14599 7.26012 10.8691
136 1 7.18366 6.81005 14.9587
113 2 8.31777 6.96634 14.9704
57 2 8.23503 6.66892 13.2661
180 3 9.61851 7.14678 11.1324
179 3 4.73671 6.18492 10.4259
ITEM: TIMESTEP
100
ITEM: NUMBER OF ATOMS
271
ITEM: BOX BOUNDS xy xz yz pp pp pp
-8.0241295096634282e+00 1.4920701945116591e+01 -7.8556211610155886e+00
-8.0787586764389052e-01 1.3385079427309050e+01 3.4935964687144894e-03
6.5076705643294996e-01 1.5958832943567099e+01 -8.4792058505233425e-01
ITEM: ATOMS id type x y z
120 1 -1.49132 5.16118 7.26069
227 4 1.42947 2.0603 1.05286
84 2 -1.12363 5.05287 3.2617
68 2 -0.851828 5.40304 6.2334
214 1 5.36324 0.340775 6.12337
207 2 -1.77935 3.48901 8.14507
252 2 5.37142 0.697241 1.20445
67 2 -2.55575 4.75832 7.02053
69 2 -1.40297 6.00255 8.08151
75 2 3.03276 3.80027 7.65946
192 4 -1.58997 2.42897 4.00169
4 4 -0.0815123 3.90271 7.74347
138 3 0.0880006 2.50152 4.2689
140 3 0.571687 2.87786 6.79724
3 4 1.14278 2.04379 5.53826
21 4 2.81972 5.9166 4.97265
41 2 2.64232 2.64863 5.05074
139 3 1.14335 0.373731 5.63377
201 2 4.05716 3.89882 6.14839
204 2 4.46999 0.925641 5.81737
213 1 4.23029 3.86227 4.94472
246 2 4.48392 2.71846 4.64525
50 2 3.56156 2.37871 2.56144
149 3 2.97517 0.583227 7.66764
74 2 4.88894 3.22065 7.49603
80 2 0.750321 4.22829 2.18226
203 2 3.18857 4.21585 4.30917
1 4 5.1903 1.64857 2.76001
19 4 0.442318 5.90586 2.86047
165 3 2.46048 6.09691 6.59993
228 2 1.83549 2.14061 2.82829
125 1 2.40076 3.53353 1.70508
155 3 1.52108 5.96318 4.04725
18 4 3.78038 4.50149 1.1478
55 2 5.17886 0.65957 4.21089
198 2 -2.11778 3.3427 2.6346
231 3 -0.728523 2.23099 0.867518
82 2 -2.06607 6.4312 4.63211
123 1 3.9463 3.4925 8.18674
202 2 5.07808 -0.248494 7.12387
256 2 -2.60282 4.27316 0.829246
66 2 -1.20295 4.97152 12.8663
141 3 -3.12094 6.00652 11.1233
42 2 0.725568 4.22125 12.9684
64 2 -0.656234 3.02573 12.7694
119 1 -0.35464 3.92354 13.2477
48 2 4.22764 4.18619 9.07365
152 3 4.79813 2.87708 15.5217
47 2 3.10526 -0.233212 10.412
65 2 -0.347323 3.76539 14.3427
215 1 -0.192814 0.106174 10.3025
209 2 -0.275763 1.05873 11.0324
23 4 3.46548 5.92373 11.3699
76 2 2.75995 2.52491 9.54194
91 2 0.589958 5.56934 13.9693
208 2 0.915364 -0.337271 10.275
153 3 0.728312 4.3283 9.04502
266 2 2.07633 4.09236 15.8575
22 4 3.65674 2.84884 12.2239
53 2 3.26223 2.17902 13.8145
81 2 1.88605 2.43253 15.1866
150 3 5.08221 0.975486 9.39747
156 3 4.94151 2.32016 11.6074
158 3 3.47785 4.42198 11.9772
15 4 3.83582 1.58785 8.56246
86 2 2.03076 0.876534 12.9359
127 1 2.01172 1.89868 12.3806
87 2 2.00693 1.71606 11.1186
85 2 1.10742 2.61265 12.6835
20 4 0.818572 6.03048 9.78015
230 3 2.00567 -0.0629466 15.6698
17 4 5.91181 1.54148 10.7233
151 3 6.82192 0.216514 11.8
61 2 -6.1926 10.9611 8.18738
205 2 -2.1396 12.8428 5.28216
126 1 -1.22271 6.78068 4.00271
2 4 -5.71603 12.8124 6.67312
8 4 -2.61554 8.10492 6.65076
9 4 -4.05929 10.2653 5.1367
25 4 -1.41589 10.4327 3.48284
24 4 1.32822 7.90283 0.888802
93 2 -2.56887 10.05 1.40924
95 2 -1.51022 8.51864 1.71814
130 1 -2.26954 9.25145 2.12854
142 3 -5.47478 11.5305 1.59701
143 3 -4.8298 9.71492 3.77268
144 3 -3.87544 8.8204 6.12889
145 3 -4.84226 11.4881 5.92847
161 3 -2.56779 10.7322 4.56133
44 2 -1.35334 8.09941 5.45212
94 2 -3.15601 8.77117 2.54529
162 3 1.83995 9.32439 1.27834
160 3 -1.07311 11.9337 2.43959
167 3 -0.976721 10.7779 7.46783
118 1 -6.85422 11.7644 7.82898
258 2 -7.28101 12.2126 3.73127
51 2 -1.58855 7.66392 3.27163
7 4 -6.00569 10.3889 2.70473
253 2 -1.90918 11.9997 0.996165
170 3 0.937838 8.39947 6.09268
83 2 -0.385277 7.09212 4.62957
169 3 -0.140986 9.6199 3.90291
27 4 1.65987 7.39859 7.27608
29 4 0.955627 9.64013 5.08743
159 3 0.456341 6.84477 1.63111
166 3 -2.07423 8.33764 8.04056
14 4 0.279602 11.703 7.20036
45 2 -2.91519 6.46708 6.65735
157 3 2.0496 6.39352 10.7952
54 2 2.75538 6.27976 15.4264
31 4 0.721334 10.1469 10.8848
70 2 -3.02049 12.5592 11.5429
154 3 -0.518944 6.21391 10.6821
72 2 -5.28604 12.2382 11.987
237 4 -6.33541 11.6156 15.7542
63 2 -7.24977 12.3264 8.81599
132 1 1.3677 8.8132 11.9762
71 2 -5.58477 11.3319 10.3778
121 1 -4.90647 12.1307 10.9524
43 2 -3.55625 8.01223 9.46586
10 4 -2.88465 8.79204 13.0394
11 4 -3.40025 10.9503 10.8792
28 4 -1.52748 9.79832 8.70581
30 4 -1.32908 10.6786 14.7506
46 2 -4.37583 7.96228 13.392
146 3 -1.66654 7.75616 12.6224
147 3 -3.25574 9.81891 11.8986
168 3 -3.02091 10.6777 9.39293
172 3 -2.37407 9.55086 14.3631
174 3 -1.16266 12.0089 13.8899
189 3 -6.22846 10.9874 14.2029
101 2 1.22144 9.19218 13.0427
175 3 -0.36633 9.52518 9.83609
100 2 0.629036 7.94978 11.7223
129 1 1.15543 6.63202 14.3526
267 2 0.33121 7.55737 14.2758
92 2 2.14538 6.79019 13.7425
173 3 0.0943675 9.94083 15.0984
164 3 0.70396 7.08158 8.47233
176 3 0.128396 11.3234 11.7521
5 4 -4.1369 6.68967 10.2166
6 4 -1.65829 6.30758 11.7625
52 2 5.12462 4.6041 4.61753
134 1 6.52051 5.97742 4.07735
177 3 4.40695 5.55667 2.13966
106 2 6.60809 4.96104 3.55179
117 1 6.74023 1.85496 1.64288
60 2 6.06514 3.24637 2.72453
193 4 6.93874 1.11731 6.84363
270 2 13.6578 1.4168 8.28286
107 2 6.13076 5.88422 5.17711
257 1 11.2507 3.24911 1.63395
247 2 11.1079 3.50707 2.69055
269 2 14.693 -0.186045 7.49456
221 3 7.4804 1.89864 5.58865
195 4 11.9463 0.070462 7.12658
148 3 7.66685 0.99326 1.23009
255 2 11.2422 1.65959 1.63515
194 4 8.52773 1.66473 4.28052
196 4 11.0835 2.64023 5.77144
197 4 9.91619 5.01981 7.69116
199 2 7.94903 2.64714 2.91728
220 3 8.65576 0.126866 3.83601
222 3 12.7196 2.9472 5.25941
223 3 9.99025 2.38679 4.58021
224 3 11.1099 1.34847 6.73123
225 3 10.7279 4.05175 6.87161
219 3 12.9994 0.972401 3.74105
217 1 8.73932 6.04325 6.56076
212 2 8.24762 4.6387 7.88836
218 3 7.80137 -0.112453 7.27716
216 1 13.7542 0.714567 7.36899
211 2 8.50024 5.45329 5.61536
254 2 10.3294 3.61059 1.09891
265 2 7.7778 4.43958 0.907015
268 2 13.8334 1.30475 6.40511
262 2 10.6417 3.33867 12.0827
13 4 6.39481 2.30313 15.3948
248 2 6.96432 1.84499 13.7587
79 2 6.9756 3.5825 9.20266
73 2 7.10541 4.34176 14.087
122 1 7.59873 3.3988 14.6225
236 3 12.9695 -0.0795039 12.177
124 1 7.09914 2.88571 10.0874
49 2 9.1044 -0.407857 13.359
108 2 6.84713 5.86014 8.42325
78 2 6.82469 3.60729 11.0602
179 3 4.77374 6.09805 10.381
77 2 8.27022 2.57957 10.1987
226 3 10.5108 5.85182 8.86889
232 4 12.4676 1.66264 15.6021
239 2 8.97228 3.996 12.1642
263 2 9.45101 2.24593 12.6755
240 1 9.61037 3.06086 11.9711
264 2 8.51303 2.98486 14.1479
238 2 9.43577 2.62311 10.902
233 4 11.6699 0.552056 12.8183
234 2 10.7164 1.38949 11.6195
235 3 11.9431 1.49848 14.1199
229 2 14.1876 0.30957 15.8772
244 3 10.7288 -0.598687 13.2591
251 2 14.4267 0.292532 9.23987
206 2 6.7011 2.08851 8.32818
271 3 7.25217 12.3745 0.961479
210 2 9.49681 6.9357 6.41506
178 3 4.13667 7.08936 4.39629
102 2 2.99588 12.5854 4.14462
250 2 2.83018 11.634 5.80152
104 2 4.59943 11.145 5.99619
32 4 4.73575 12.831 3.74249
109 2 5.08918 6.62782 7.32135
133 1 3.91754 11.9935 5.73033
12 4 0.254879 12.7723 2.44364
103 2 5.71405 12.05 4.9993
98 2 3.22357 8.48751 4.24252
96 2 3.21634 10.4569 4.66262
97 2 2.32537 9.67189 3.07178
131 1 2.67476 9.51751 4.14709
163 3 1.42034 12.0693 1.62454
171 3 1.10753 11.1028 5.87341
182 3 5.68817 7.96553 2.14232
185 3 5.03441 11.9432 2.44915
36 4 6.68887 8.78965 1.0969
260 2 6.77778 10.6201 3.78659
37 4 5.75125 11.8369 0.986716
114 2 2.9673 9.3538 7.16344
135 1 5.96698 7.11517 7.77695
115 2 4.15059 7.93416 7.86219
137 1 3.09579 8.56939 7.96971
200 2 7.71814 6.44441 7.05552
56 2 6.64127 7.5367 6.97426
261 1 7.8043 11.0918 3.93967
62 2 7.38769 11.4139 7.17793
183 3 8.1944 9.14598 1.92838
259 2 8.22263 10.7433 4.98568
105 2 7.43191 6.57982 3.93473
33 4 5.08674 6.78911 3.08742
58 2 4.17829 10.2397 8.10593
39 4 7.77488 10.2953 13.274
186 3 3.51611 12.8219 8.47468
35 4 8.31788 7.59821 11.8808
184 3 5.91745 9.15202 15.7264
110 2 5.55245 8.41811 8.93969
116 2 2.82238 8.8324 8.99896
249 2 1.2579 11.3562 8.57392
188 3 8.18619 8.96808 12.5796
26 4 1.51887 10.0005 15.8142
88 2 3.19134 7.80923 13.2473
99 2 2.42272 8.62502 11.6009
34 4 6.00024 6.90987 9.83258
38 4 3.69187 11.4559 9.23434
40 4 5.95922 12.2002 11.2822
59 2 6.63768 9.70645 14.417
89 2 4.93008 7.46166 12.4438
90 2 4.20038 6.27138 13.7026
128 1 3.9642 7.03093 12.8927
187 3 2.18028 10.9726 9.76436
190 3 5.00687 11.3645 10.206
241 4 3.80579 11.2862 14.17
242 2 4.47043 10.3433 12.976
243 3 4.81833 11.7686 15.1859
245 3 2.72274 10.3105 14.8049
111 2 6.7082 7.36363 13.9591
191 3 6.89007 11.3055 12.3149
181 3 7.22437 7.31593 10.8608
136 1 7.10442 6.86857 14.8478
113 2 8.2192 6.60237 14.956
57 2 8.04153 6.44984 13.1092
180 3 9.75498 7.32756 11.0423
112 2 6.41153 6.02889 15.1391
16 4 -0.299623 12.5353 12.7085
ITEM: TIMESTEP
200
ITEM: NUMBER OF ATOMS
271
ITEM: BOX BOUNDS xy xz yz pp pp pp
-1.6850834864783959e-01 2.2150797481396719e+01 7.2300955362801274e+00
-8.0745169526517502e-01 1.3378403572026457e+01 3.4935964687144894e-03
6.5076705643294996e-01 1.5958832943567099e+01 -8.4749641267361875e-01
ITEM: ATOMS id type x y z
3 4 1.09016 2.01003 5.43326
227 4 1.37372 1.97203 0.828367
123 1 3.94743 3.47831 8.26237
55 2 5.41394 1.03386 4.28299
214 1 5.45377 0.18538 6.13783
18 4 3.76861 4.44199 1.12789
252 2 5.53026 0.595225 1.13287
125 1 2.45067 3.31347 1.54653
228 2 1.6479 2.23356 2.71578
75 2 3.04172 3.64145 7.53028
1 4 5.30108 1.62191 2.67609
203 2 3.25202 4.11229 4.46486
74 2 5.15688 2.853 7.50534
149 3 3.11753 0.547301 7.63618
206 2 6.79387 2.22656 8.09586
50 2 3.59121 2.09532 2.24199
41 2 2.6752 2.35346 4.94291
139 3 1.13692 0.508117 5.69508
201 2 4.0871 3.63371 6.24111
204 2 4.79615 1.10899 5.97605
213 1 4.25992 3.65973 5.01888
246 2 4.51945 2.52467 4.6658
52 2 5.18116 4.36895 4.72239
134 1 6.60612 5.66714 3.88214
105 2 7.45208 6.34144 3.63766
177 3 4.3222 5.5317 2.14533
211 2 8.77502 5.55242 5.67607
106 2 6.67353 4.64095 3.40883
117 1 6.75856 1.89986 1.50303
212 2 8.36232 4.67341 7.7673
217 1 8.90534 6.17443 6.64287
60 2 6.06192 3.21046 2.6175
193 4 7.04666 1.13485 6.74987
107 2 6.36992 5.65707 4.99704
221 3 7.48661 1.8423 5.42105
148 3 7.7946 1.11923 1.18502
197 4 10.0182 5.0423 7.76801
199 2 7.64051 2.68007 2.88749
151 3 7.01108 0.345037 11.6507
17 4 6.08135 1.35137 10.8147
230 3 2.02878 -0.242857 15.8109
87 2 2.00454 1.64835 11.1522
127 1 1.93357 1.81745 12.4468
48 2 4.3619 4.41165 8.66844
152 3 4.86482 2.95043 15.4073
47 2 3.00583 -0.227182 10.496
86 2 2.06718 0.899385 13.0168
15 4 3.90756 1.55082 8.63011
158 3 3.31832 4.39359 12.0636
23 4 3.47804 5.92046 11.3639
76 2 2.80272 2.65098 9.53937
156 3 4.80188 2.0927 11.7397
208 2 0.998665 -0.304731 10.5695
150 3 5.13614 0.986551 9.55247
81 2 1.96104 2.40179 15.0685
22 4 3.54164 2.79233 12.2986
53 2 3.24607 2.15422 13.8708
13 4 6.26163 2.20694 15.2387
112 2 6.92863 5.75314 15.6213
248 2 6.7543 2.0517 13.5284
79 2 6.32449 3.38335 9.39481
73 2 6.88542 4.3295 14.3772
122 1 7.5691 3.40037 14.6526
124 1 7.08908 2.7608 9.982
239 2 8.57197 3.70613 11.7532
78 2 7.62428 3.30148 10.8965
264 2 8.50052 3.39632 13.9655
226 3 10.396 5.78384 9.10847
77 2 7.84445 2.20271 9.38393
108 2 6.77513 5.8381 8.28098
265 2 7.96153 3.39458 15.982
61 2 8.87033 10.9339 8.11938
205 2 12.6481 12.875 5.3419
253 2 13.1575 12.0682 0.969051
2 4 9.40831 12.752 6.69171
7 4 9.00742 10.276 2.76777
9 4 11.0811 10.2381 5.14598
258 2 7.80005 12.3416 3.518
118 1 8.24421 11.8791 7.84519
93 2 12.5105 9.66444 1.38425
260 2 6.78087 10.6759 3.62942
161 3 12.4211 10.6762 4.49426
142 3 9.60362 11.397 1.60688
143 3 10.1132 9.72042 3.77548
144 3 11.1577 8.78514 6.11703
145 3 10.2453 11.5469 5.9342
271 3 7.16208 12.3381 0.892085
210 2 9.70187 6.99392 6.60576
33 4 5.08956 6.65642 3.20793
36 4 6.73903 8.78547 1.07453
259 2 8.15129 11.1648 4.93884
183 3 8.0664 9.14072 1.88979
62 2 7.41769 11.5597 7.0728
261 1 7.77654 11.2235 3.87393
56 2 6.70009 7.87206 6.89147
200 2 7.8351 6.63338 7.12608
178 3 4.12599 7.11368 4.47062
109 2 5.10279 6.97762 7.27167
135 1 6.0803 7.40484 7.71959
182 3 5.68146 7.82084 2.29224
202 2 12.3802 12.978 7.08734
5 4 10.9849 6.76376 10.2753
189 3 8.86066 10.8434 14.1497
174 3 13.8294 12.0328 13.8031
70 2 11.9324 12.293 11.6665
172 3 12.6801 9.65968 14.2786
72 2 9.89129 12.3075 12.2395
237 4 8.73979 11.4461 15.8352
63 2 7.79875 12.4346 8.8436
168 3 12.2008 10.6931 9.41306
71 2 9.17446 11.3913 10.7239
121 1 10.0238 12.1593 11.0833
128 1 4.04328 7.08664 12.7812
10 4 12.1854 8.80757 13.0102
11 4 11.412 10.8205 10.8453
147 3 11.6224 9.65319 11.8728
46 2 10.9099 7.85501 13.6318
39 4 7.74408 10.2712 13.1907
35 4 8.34663 7.56783 11.8214
179 3 4.70537 6.17073 10.2858
180 3 9.83512 7.40196 11.2113
57 2 8.1998 6.54708 13.1894
113 2 8.50326 6.81077 14.9685
136 1 7.3676 6.73228 15.0179
181 3 7.29691 7.10729 10.7865
191 3 6.88334 11.386 12.3519
111 2 6.85351 7.11889 14.057
184 3 5.891 9.1067 15.6626
110 2 5.72573 8.44256 8.70163
188 3 8.17434 9.06879 12.3365
34 4 6.04977 6.83948 9.73963
59 2 6.63279 9.58617 14.3098
89 2 5.05204 7.4881 12.572
90 2 4.0103 6.45716 13.7273
268 2 13.7924 1.28537 6.58853
254 2 10.3737 3.47972 1.44699
216 1 13.7415 0.68124 7.51085
218 3 7.92551 -0.0559012 7.41304
219 3 12.9681 1.02913 3.52187
225 3 10.7381 4.12906 6.78613
224 3 11.0303 1.29944 6.78384
45 2 12.1929 6.36913 6.52934
223 3 9.94713 2.50195 4.60991
257 1 11.4356 3.60635 1.80643
247 2 11.4474 3.69536 2.92916
269 2 14.6449 -0.0321571 7.63601
222 3 12.5585 2.91178 5.24655
195 4 11.8917 0.0927209 7.2768
220 3 8.54735 0.167834 3.81276
255 2 11.1853 1.75364 1.52287
194 4 8.51164 1.75213 4.20474
196 4 11.0178 2.69072 5.81361
120 1 13.6873 5.0109 7.14574
256 2 12.112 4.58087 1.17348
84 2 13.8027 5.16937 3.37645
68 2 14.3429 5.20684 6.05409
21 4 17.8915 5.84159 4.80726
231 3 14.3756 2.35162 0.719307
198 2 13.1713 3.43365 2.64712
82 2 12.9485 6.42094 4.99434
67 2 12.5938 4.65596 6.97169
155 3 16.6463 5.98486 3.79396
69 2 13.6493 5.91942 7.8253
192 4 13.5194 2.44845 4.06334
165 3 17.451 6.01604 6.38595
19 4 15.4506 5.96012 2.82277
4 4 15.1692 3.91374 7.72922
138 3 15.0374 2.45439 4.24678
80 2 16.07 4.39278 2.07439
140 3 15.7414 2.89613 6.67121
229 2 13.9929 1.22287 0.759357
207 2 13.5876 3.41281 8.26031
270 2 13.653 1.42487 8.43634
262 2 10.522 3.833 11.6718
251 2 14.5294 0.304511 9.32514
244 3 10.6463 -0.564251 13.5237
266 2 17.245 4.00935 15.7585
235 3 11.909 1.68162 14.1589
234 2 10.606 1.46145 11.7871
236 3 12.9065 0.00824498 12.2435
233 4 11.5531 0.630186 12.9817
49 2 8.97813 -0.263533 13.4588
238 2 9.65742 2.27809 11.0144
240 1 9.64204 3.16086 11.8647
263 2 9.68229 2.81077 12.9622
232 4 12.3882 1.68565 15.7013
66 2 13.6612 5.02098 13.0753
141 3 11.9695 5.99295 11.2776
42 2 15.7012 4.05553 13.1848
64 2 14.3081 2.76259 12.9931
20 4 15.9165 6.08263 9.8339
85 2 16.1107 2.56751 12.8017
119 1 14.653 3.79638 13.5005
65 2 14.5802 3.62666 14.6225
215 1 15.0067 0.164694 10.3995
209 2 14.7987 1.09954 11.0637
91 2 15.6294 5.48922 13.8455
153 3 16.039 4.6316 8.88884
154 3 14.5708 6.14936 10.7465
94 2 11.953 8.40834 2.78343
137 1 18.2114 8.63115 7.64038
115 2 19.3278 8.15992 7.60087
102 2 18.1806 12.761 4.14203
250 2 17.9367 11.8243 5.75105
104 2 19.6641 11.1688 6.01358
32 4 19.927 12.7976 3.7329
114 2 17.9932 9.5487 7.0086
133 1 19.0668 12.0627 5.69632
12 4 15.524 12.8644 2.35938
103 2 20.8915 12.2844 5.15126
98 2 18.2333 8.49159 4.35114
96 2 18.2483 10.532 4.74615
97 2 17.4232 9.81265 3.09333
131 1 17.6715 9.572 4.22725
163 3 16.782 12.0461 1.76929
171 3 16.2643 11.2405 6.07788
37 4 20.7989 11.7666 1.00043
185 3 20.1681 11.7637 2.50809
126 1 13.7926 6.59902 4.30393
44 2 13.7552 8.13102 5.52633
14 4 15.477 11.7018 7.38782
166 3 12.6223 8.23267 8.18809
159 3 15.3625 7.03835 1.66345
29 4 16.0019 9.69212 5.02011
27 4 16.7216 7.46589 7.18052
169 3 14.7501 9.75154 3.96644
83 2 14.7347 6.87072 4.94234
170 3 15.98 8.35696 6.13993
8 4 12.4007 8.05606 6.64253
25 4 13.4763 10.4457 3.36888
51 2 13.5006 7.51289 3.56538
24 4 16.4008 7.8741 0.659357
95 2 13.7239 8.31869 1.98323
167 3 14.0938 10.8247 7.57516
160 3 13.9978 11.991 2.41112
162 3 16.905 9.23159 1.10057
130 1 12.8408 9.00005 2.28256
58 2 19.4195 10.0448 8.29884
16 4 14.7466 12.6135 12.6603
186 3 18.8814 12.5427 8.50815
245 3 17.7766 10.2789 14.667
243 3 19.8674 11.7039 15.1814
242 2 19.6808 10.4394 12.921
116 2 17.8063 8.76788 8.77284
249 2 16.6316 11.3919 8.59159
241 4 18.8424 11.2638 14.1206
26 4 16.574 10.0892 15.813
88 2 18.4032 7.97206 12.8125
99 2 17.5237 8.74355 11.5026
190 3 20.1414 11.3612 10.4705
38 4 18.9524 11.2627 9.34451
40 4 21.0693 12.3445 11.4028
187 3 17.4786 10.8302 9.82601
146 3 13.3849 7.79064 12.5381
157 3 17.1906 6.44295 10.78
6 4 13.4306 6.26533 11.8775
54 2 17.6174 5.96409 15.2924
176 3 15.3326 11.4965 11.7101
164 3 15.9851 7.13489 8.58964
173 3 15.1371 10.0413 15.108
92 2 17.2185 6.75274 13.5641
267 2 15.3879 7.50752 13.9439
129 1 16.164 6.59914 14.1404
100 2 15.5753 8.21233 11.8144
175 3 14.6296 9.7673 9.79334
101 2 16.5941 9.40603 13.0823
31 4 15.906 10.2894 10.8767
30 4 13.7311 10.6938 14.7257
132 1 16.5002 8.98339 12.0106
28 4 13.4536 9.93793 8.72741
43 2 12.0203 7.97854 9.63374
ITEM: TIMESTEP
300
ITEM: NUMBER OF ATOMS
271
ITEM: BOX BOUNDS xy xz yz pp pp pp
-1.6850834864783959e-01 2.2150797481396719e+01 7.2300955362801274e+00
-8.0702752288645918e-01 1.3371727716743866e+01 3.4935964687144894e-03
6.5076705643294996e-01 1.5958832943567099e+01 -8.4707224029490291e-01
ITEM: ATOMS id type x y z
108 2 6.70079 5.76213 8.08073
227 4 1.41807 1.96521 0.932542
123 1 3.72946 3.35959 8.23895
55 2 5.72074 0.7286 4.10042
214 1 5.6137 0.0239948 5.95773
18 4 3.72763 4.40253 1.08185
252 2 5.51399 0.776647 1.09713
125 1 2.41147 3.39874 1.57592
228 2 1.86787 2.17248 2.78812
75 2 2.93494 3.61841 7.54188
1 4 5.24576 1.60337 2.70236
203 2 3.01017 4.15007 4.49596
74 2 5.02342 2.45643 7.44921
149 3 3.08036 0.469947 7.57683
206 2 6.72623 2.07757 8.04109
50 2 3.54292 2.17633 2.46891
41 2 2.54918 2.4747 4.77772
139 3 1.14086 0.491569 5.71783
201 2 3.92903 3.54617 6.24726
204 2 4.8385 0.841206 5.66542
213 1 4.10302 3.68583 4.99942
246 2 4.30075 2.69067 4.49886
52 2 5.06721 4.40584 4.7875
134 1 6.50265 5.63758 4.16279
105 2 7.39815 5.92955 3.61796
177 3 4.42018 5.29934 2.17499
211 2 8.80515 5.80464 5.57152
106 2 6.43815 4.47511 4.27052
117 1 6.77264 2.03814 1.5398
212 2 8.33838 4.83113 7.73373
217 1 8.96087 6.24488 6.56281
60 2 6.11502 3.19686 2.76788
193 4 7.08348 1.05382 6.65664
107 2 6.3219 6.19937 5.17622
221 3 7.59744 1.88219 5.47144
148 3 7.78347 1.14417 1.30159
197 4 10.0168 5.14235 7.76618
199 2 7.90565 2.79871 2.85012
33 4 5.12355 6.48911 3.10961
151 3 7.12029 0.472915 11.831
17 4 6.04357 1.36535 10.8603
230 3 2.0601 -0.191106 15.715
87 2 1.96246 1.58303 11.4172
127 1 2.01066 1.86669 12.6719
48 2 4.10356 4.35954 8.58629
152 3 4.82783 2.74947 15.2943
47 2 2.78298 -0.309 10.3034
86 2 2.14561 0.940327 13.3749
15 4 4.00485 1.3135 8.51954
158 3 3.54087 4.35091 12.0592
23 4 3.54654 5.84139 11.3831
76 2 3.00328 2.62267 9.49442
156 3 4.92068 2.02182 11.8151
208 2 0.841275 -0.365342 10.5345
150 3 5.10567 0.6094 9.59299
81 2 2.03469 2.35592 15.1598
22 4 3.64928 2.76674 12.3242
53 2 3.35512 2.35045 14.0295
13 4 6.23627 2.1217 15.1498
112 2 7.43225 5.71113 15.364
248 2 6.69866 1.75478 13.5149
79 2 6.39703 3.16494 9.14208
73 2 6.93487 4.05992 14.0501
122 1 7.63584 3.17162 14.4555
124 1 7.11399 2.68527 9.90968
239 2 8.67744 4.0206 11.2438
78 2 7.55715 3.45919 10.7036
264 2 8.64017 3.0658 13.8513
226 3 10.3618 5.78574 9.10508
77 2 7.8662 2.00954 9.46418
179 3 4.78198 5.90086 10.2365
265 2 7.93974 3.45019 15.6499
61 2 8.80811 10.9985 8.09694
205 2 13.2839 12.6173 5.11667
253 2 13.3615 12.3751 0.886254
2 4 9.40732 12.8799 6.71477
7 4 8.95336 10.3609 2.69744
9 4 10.9235 10.1995 5.07934
258 2 7.29253 12.2112 3.29388
118 1 8.10852 11.8992 7.86012
182 3 5.86294 7.62984 2.11848
260 2 6.8581 10.4262 3.75311
161 3 12.3372 10.6994 4.36947
142 3 9.63529 11.4822 1.58927
143 3 9.88175 9.79704 3.91038
144 3 11.1351 8.9646 6.13093
145 3 10.1883 11.6358 5.89505
271 3 7.17661 12.2653 0.95823
210 2 9.8627 7.08651 6.62045
202 2 12.5617 12.7677 6.87914
36 4 6.68648 8.69341 1.21968
259 2 7.96815 11.4077 4.87438
183 3 7.97646 9.3128 1.86921
62 2 7.30049 11.5837 7.16766
261 1 7.64915 11.2459 3.80383
56 2 6.89271 8.00243 7.58795
200 2 7.90503 6.69097 7.10651
178 3 4.01905 6.90358 4.24383
109 2 5.46413 7.17708 6.87812
135 1 6.09739 7.28022 7.78614
93 2 12.6451 9.738 1.25746
5 4 11.043 6.53883 10.3438
189 3 8.8558 10.6829 14.2362
174 3 13.7526 12.149 13.7124
70 2 11.7174 12.4795 11.5029
172 3 12.7412 9.72255 14.322
72 2 9.53187 12.2196 11.9432
237 4 8.69221 11.3938 15.7181
63 2 7.64968 12.4494 8.80299
168 3 12.0696 10.7193 9.42495
71 2 9.25952 11.1556 10.2964
121 1 9.89832 12.0521 10.907
89 2 4.99656 7.53489 12.5085
10 4 12.2195 8.69297 13.1605
11 4 11.4468 10.8815 10.8962
147 3 11.6103 9.69895 12.0028
46 2 10.9918 8.00707 13.9943
39 4 7.66803 10.2148 13.1888
35 4 8.31498 7.69221 11.7544
90 2 4.07735 6.32619 13.6179
180 3 9.6811 7.13278 11.1352
57 2 7.92349 6.70343 13.1488
113 2 8.411 7.19697 14.8754
136 1 7.41193 6.74771 15.0603
181 3 7.20317 7.17899 10.7305
191 3 6.97633 11.5589 12.5243
111 2 6.52754 6.89503 14.357
184 3 5.86542 8.97677 15.6285
110 2 5.34776 8.24434 9.09496
188 3 8.22522 9.21779 12.0671
34 4 6.0465 6.66738 9.71355
59 2 6.52903 9.34274 14.1532
268 2 13.8601 1.50723 6.53337
254 2 10.508 3.94624 1.05686
216 1 13.8188 0.865133 7.50274
218 3 8.00764 -0.0784022 7.33096
219 3 12.9435 0.945141 3.48449
225 3 10.7876 4.04885 7.01571
224 3 11.0587 1.25096 6.78068
3 4 16.0873 2.00626 5.51456
223 3 10.0444 2.67486 4.54397
257 1 11.5051 3.79024 1.67323
247 2 11.3167 4.0364 2.77304
269 2 14.7059 0.0928261 7.5977
222 3 12.5562 2.83804 5.19122
195 4 12.0308 0.103788 7.17658
220 3 8.85822 0.393445 3.65322
255 2 11.4159 1.93098 1.77101
194 4 8.64017 1.88186 4.23826
196 4 11.1096 2.58938 5.8494
120 1 13.6159 5.03291 7.24369
256 2 12.4122 4.64841 1.12199
84 2 13.7667 5.11366 3.31787
68 2 14.2154 5.23073 6.20268
21 4 17.8209 5.86646 4.81466