ITEM: TIMESTEP
0
ITEM: NUMBER OF ATOMS
271
ITEM: BOX BOUNDS xy xz yz pp pp pp
-8.0241295096634282e+00 1.4920701945116591e+01 -7.8556211610155886e+00
-8.0830004002260603e-01 1.3391755282591641e+01 3.4935964687144894e-03
6.5076705643294996e-01 1.5958832943567099e+01 -8.4834475743104976e-01
ITEM: ATOMS id type x y z
120 1 -1.64604 4.98187 7.32664
227 4 1.49276 2.10548 0.929568
84 2 -1.33538 5.14589 3.22991
68 2 -0.987489 5.01029 6.21537
214 1 5.45399 0.134061 6.11812
45 2 -2.86582 6.35749 6.6679
252 2 5.40987 0.639426 1.3514
67 2 -2.7368 4.5499 7.17582
69 2 -1.52243 5.91273 7.96919
75 2 2.78802 4.02754 7.73472
192 4 -1.59839 2.48291 3.96091
4 4 -0.237172 3.75289 7.95198
138 3 0.107993 2.64743 4.23055
140 3 0.436788 2.94374 6.79636
3 4 0.946815 2.17887 5.46093
21 4 2.80377 5.86215 4.97322
41 2 2.58889 2.63999 5.2562
139 3 1.02617 0.415952 5.63724
201 2 3.96712 3.79607 6.42035
204 2 4.67474 0.864553 5.83965
213 1 4.20742 3.77442 5.13608
246 2 4.45759 2.54704 4.78917
50 2 3.57885 2.40944 2.72586
149 3 2.9029 0.517967 7.64718
74 2 4.78411 2.77264 7.45271
80 2 0.887327 4.25065 2.32057
203 2 3.23919 4.17237 4.49685
1 4 5.17492 1.59457 2.87982
19 4 0.381343 5.83855 3.02654
165 3 2.61381 6.06169 6.52535
228 2 1.74181 2.42117 2.76652
125 1 2.49095 3.54594 1.6403
155 3 1.43605 5.86954 4.20701
18 4 3.85727 4.51465 1.17121
55 2 5.41796 0.530852 4.18939
198 2 -1.98747 3.39804 2.58559
230 3 2.21677 0.772183 0.667521
82 2 -2.28806 6.48692 4.6998
207 2 -1.89414 3.30158 8.29697
66 2 -1.35007 4.89257 12.8898
141 3 -3.1685 5.76692 11.0267
42 2 0.423783 4.13162 12.5133
64 2 -0.754398 2.97954 13.2322
119 1 -0.354438 4.07227 13.2258
48 2 4.08449 4.32715 8.89893
152 3 4.84447 2.93196 15.4744
47 2 3.10019 -0.238153 10.6703
65 2 -0.0181992 4.32285 14.253
215 1 -0.0906036 -0.0623084 10.2359
209 2 -0.0440979 0.873746 10.8562
23 4 3.48767 5.96127 11.4283
76 2 2.90166 2.57595 9.63109
91 2 0.579305 5.72415 13.845
229 2 -0.743696 0.350068 15.6645
153 3 0.510204 4.27188 9.29729
266 2 2.12835 4.08292 15.7935
22 4 3.68003 2.93954 12.3411
53 2 3.38492 2.38515 13.9569
81 2 2.08653 2.46093 15.0889
150 3 5.02175 0.921661 9.55761
156 3 4.87882 2.12822 11.7776
158 3 3.41233 4.48353 12.2909
15 4 3.86958 1.47212 8.54743
86 2 2.07826 1.06779 13.1221
127 1 2.05122 2.01558 12.5232
87 2 2.04624 1.76012 11.34
85 2 1.12774 2.72237 12.7705
20 4 0.660397 5.93274 9.79546
231 3 -0.612073 1.4837 15.8618
17 4 6.14685 1.47293 10.7814
123 1 3.58762 3.52501 8.34192
61 2 -6.15591 10.9304 7.86328
205 2 -2.22926 12.8275 5.30346
126 1 -1.34233 6.69648 4.07716
2 4 -5.77533 12.8596 6.53238
8 4 -2.7956 8.10418 6.567
9 4 -4.06309 10.2881 5.08185
25 4 -1.4246 10.4666 3.43766
24 4 1.45084 7.844 0.768969
93 2 -2.62026 10.0729 1.4984
95 2 -1.25626 8.60061 1.56989
130 1 -2.08423 9.17966 2.14488
142 3 -5.42763 11.7091 1.55337
143 3 -4.86439 9.88004 3.7607
144 3 -4.12196 8.87709 6.08902
145 3 -4.77367 11.8675 5.74995
161 3 -2.53304 10.5757 4.6267
44 2 -1.60614 8.18401 5.39108
94 2 -2.83754 8.51398 2.72847
162 3 1.78394 9.35321 1.15218
160 3 -1.27522 12.3274 2.69981
167 3 -0.861623 10.7695 7.44174
118 1 -6.90136 11.7783 7.59375
202 2 -2.63884 12.8519 7.13135
51 2 -1.56418 7.61369 3.34544
7 4 -6.06097 10.4261 2.62873
253 2 -1.62583 12.228 1.09502
170 3 0.986417 8.36265 6.16308
83 2 -0.438349 6.95605 4.84203
169 3 -0.12537 9.76431 4.00556
27 4 1.69308 7.45519 7.30146
29 4 1.03336 9.57256 5.08363
159 3 0.56668 6.90598 1.73075
166 3 -2.24759 8.31292 7.94538
258 2 -7.23436 12.2637 3.67779
157 3 2.09723 6.22085 10.6651
54 2 2.72251 6.25137 15.2321
31 4 0.724521 10.2274 10.8382
70 2 -3.12771 12.599 11.4743
154 3 -0.62253 6.26553 10.7296
72 2 -5.72465 12.0415 11.8834
237 4 -6.34005 11.5545 15.7844
63 2 -7.25676 12.3226 8.58433
132 1 1.28585 8.83508 11.9158
71 2 -5.4177 11.4635 9.94318
121 1 -4.98313 12.0406 10.9857
43 2 -3.36478 7.99673 9.77169
10 4 -2.84492 8.80865 13.1212
11 4 -3.3868 10.9663 10.8788
28 4 -1.63541 9.86723 8.60431
30 4 -1.23732 10.702 14.8435
46 2 -4.2637 8.09584 13.7322
146 3 -1.90435 7.61469 12.6404
147 3 -3.12413 9.85697 11.9524
168 3 -2.83528 10.6884 9.43006
172 3 -2.36547 9.60215 14.4792
174 3 -1.23362 11.9989 13.8257
189 3 -6.31826 11.0241 14.1866
101 2 1.09205 9.22319 12.9675
175 3 -0.395684 9.64136 9.71936
100 2 0.422117 8.06591 11.553
129 1 1.08239 6.73995 14.2531
267 2 0.484753 7.68075 14.1213
92 2 2.15508 6.94367 13.7569
173 3 0.20444 9.99562 14.9164
164 3 0.672886 6.87094 8.40256
176 3 0.151061 11.3529 11.7441
5 4 -4.24674 6.65678 10.2014
6 4 -1.8131 6.17489 11.7453
208 2 -6.95121 12.7734 10.2173
16 4 -0.384932 12.5048 12.5927
52 2 5.10172 4.45581 4.80716
134 1 6.4916 5.8533 4.09942
177 3 4.44281 5.56 2.18709
106 2 6.48654 4.72272 3.89068
117 1 6.66969 1.97855 1.74751
60 2 6.1462 3.15949 3.07826
193 4 7.04791 0.986212 6.67937
206 2 6.76123 2.15561 8.06242
107 2 6.19538 6.12336 5.23043
257 1 11.3788 3.19507 1.58264
247 2 11.3163 3.12872 2.7307
269 2 14.5267 -0.111064 7.39815
221 3 7.59819 1.95647 5.51749
195 4 11.9716 -0.0425178 7.16687
148 3 7.70859 1.18798 1.40032
255 2 11.7136 1.28279 1.32168
194 4 8.65569 1.76405 4.22986
196 4 11.1438 2.7355 5.73949
197 4 9.83998 5.1475 7.58379
199 2 7.90143 2.75938 2.92317
220 3 8.75544 0.182645 3.88142
222 3 12.6124 3.20552 5.14124
223 3 10.0563 2.61077 4.43869
224 3 11.1699 1.25308 6.51085
225 3 10.7201 4.02699 6.90034
219 3 13.0921 0.942913 3.87449
217 1 8.56365 5.96202 6.46251
212 2 8.22847 4.55658 7.82926
218 3 7.83161 -0.214386 7.23727
216 1 13.7513 0.709923 7.40533
211 2 8.30714 5.35194 5.58933
254 2 10.337 3.17231 1.08314
265 2 7.81055 4.6231 0.702059
268 2 13.8523 1.37627 6.55758
105 2 7.48485 6.40923 3.80983
256 2 11.9911 4.1972 1.30851
262 2 10.6757 3.40974 11.8092
13 4 6.36338 2.27021 15.4928
248 2 7.02491 1.62116 13.9635
79 2 6.58134 3.33079 9.15049
73 2 7.18269 4.08982 13.9557
122 1 7.68452 3.27156 14.6441
151 3 6.98319 0.309098 11.581
124 1 7.25272 2.77344 9.89359
112 2 6.85232 5.75253 15.1624
108 2 6.64999 5.66015 8.44657
78 2 7.55333 3.39018 10.8331
251 2 14.5829 0.128397 9.18971
77 2 8.03266 2.16972 9.39007
226 3 10.35 5.87396 8.88567
232 4 12.4999 1.4346 15.4915
239 2 8.89471 4.00077 11.8212
263 2 9.45962 2.60822 13.0797
240 1 9.5692 3.03262 11.9988
264 2 8.72934 2.91297 14.1907
238 2 9.33809 2.22009 11.2234
233 4 11.5159 0.475913 12.8028
234 2 10.7877 1.50738 11.5854
235 3 11.9191 1.58305 14.0523
236 3 12.8678 -0.000493411 12.1041
49 2 9.01553 -0.368818 13.0057
244 3 10.5765 -0.640683 13.3226
270 2 13.6152 1.2846 8.41748
271 3 7.22584 12.5654 1.09088
210 2 9.35508 6.88253 6.21172
178 3 4.06982 7.10423 4.32621
102 2 3.12609 12.7048 4.46425
250 2 2.93589 11.5518 5.9057
104 2 4.77566 11.0232 6.11259
32 4 4.8452 12.7808 3.8378
109 2 4.94647 6.80882 7.30302
133 1 4.08708 11.8873 5.87017
12 4 0.233861 12.8517 2.55888
103 2 5.85663 12.029 5.05952
98 2 3.20876 8.55869 4.14472
96 2 3.26117 10.4373 4.44908
97 2 2.26894 9.60991 2.95256
131 1 2.63667 9.57192 4.07828
163 3 1.3803 12.024 1.74932
171 3 1.29061 11.155 5.9467
182 3 5.9064 7.95574 2.17112
185 3 5.01272 11.8545 2.51344
36 4 6.67257 8.84072 1.09279
260 2 6.66617 10.7465 3.51873
37 4 5.74363 11.9442 0.976706
114 2 2.92416 9.51825 7.43928
135 1 5.90403 7.12714 7.82013
115 2 4.13933 8.00761 7.90085
137 1 3.07521 8.60732 8.08803
200 2 7.55695 6.37528 7.0184
56 2 6.56166 7.72673 7.13567
261 1 7.7209 11.1634 3.7712
62 2 7.42424 11.3414 6.85248
183 3 8.16119 9.39142 1.53313
259 2 8.2016 10.7992 4.79507
14 4 0.424695 11.6142 7.2625
33 4 5.10448 6.71238 3.14901
58 2 4.36638 10.0974 8.17906
39 4 7.81739 10.2078 13.1687
186 3 3.59629 12.756 8.55815
35 4 8.40743 7.64214 11.8656
184 3 5.94637 9.28074 15.671
110 2 5.56217 8.44481 8.90502
116 2 2.84273 8.67949 9.16382
249 2 1.39157 11.332 8.63653
188 3 8.55354 9.14257 12.3338
26 4 1.54713 10.1192 15.8318
88 2 3.32427 8.2029 12.8088
99 2 2.37084 8.42858 11.8222
34 4 6.03908 6.81457 9.8129
38 4 3.77662 11.3593 9.34492
40 4 5.98607 12.2416 11.3558
59 2 6.6561 9.56269 14.2192
89 2 4.98283 7.48663 12.4265
90 2 3.91133 6.69999 13.7883
128 1 3.89642 7.24447 12.7956
187 3 2.3488 10.9122 9.8769
190 3 4.93597 11.4625 10.3669
241 4 3.80764 11.297 14.1652
242 2 4.7952 10.4349 13.0835
243 3 4.80714 11.9712 15.183
245 3 2.7123 10.3363 14.7084
111 2 6.69426 7.34943 14.111
191 3 6.91946 11.194 12.1881
181 3 7.14599 7.26012 10.8691
136 1 7.18366 6.81005 14.9587
113 2 8.31777 6.96634 14.9704
57 2 8.23503 6.66892 13.2661
180 3 9.61851 7.14678 11.1324
179 3 4.73671 6.18492 10.4259
ITEM: TIMESTEP
100
ITEM: NUMBER OF ATOMS
271
ITEM: BOX BOUNDS xy xz yz pp pp pp
-8.0282899461382815e+00 1.4917208348647875e+01 -7.8556211610155886e+00
-8.0830004002260603e-01 1.3391755282591641e+01 -4.1604364748533129e-03
6.5076705643294996e-01 1.5958832943567099e+01 -8.4834475743104976e-01
ITEM: ATOMS id type x y z
120 1 -1.49462 5.16374 7.26069
227 4 1.42927 2.06131 1.05286
84 2 -1.12493 5.05538 3.2617
68 2 -0.854619 5.40572 6.2334
214 1 5.3605 0.340925 6.12337
207 2 -1.7831 3.49074 8.14507
252 2 5.37115 0.69757 1.20445
67 2 -2.55894 4.76068 7.02053
69 2 -1.40669 6.00553 8.08151
75 2 3.02925 3.80216 7.65946
192 4 -1.59165 2.43017 4.00169
4 4 -0.0850587 3.90464 7.74347
138 3 0.0861916 2.50275 4.2689
140 3 0.568613 2.87928 6.79724
3 4 1.14034 2.04479 5.53826
21 4 2.81756 5.91954 4.97265
41 2 2.64012 2.64994 5.05074
139 3 1.14086 0.373898 5.63377
201 2 4.05441 3.90075 6.14839
204 2 4.4674 0.926084 5.81737
213 1 4.22814 3.86419 4.94472
246 2 4.48192 2.7198 4.64525
50 2 3.56061 2.37988 2.56144
149 3 2.97166 0.583499 7.66764
74 2 4.88552 3.22225 7.49603
80 2 0.749555 4.23039 2.18226
203 2 3.18674 4.21794 4.30917
1 4 5.18925 1.64938 2.76001
19 4 0.441213 5.9088 2.86047
165 3 2.45751 6.09994 6.59993
228 2 1.8344 2.14166 2.82829
125 1 2.40024 3.53528 1.70508
155 3 1.51938 5.96615 4.04725
18 4 3.78013 4.50372 1.1478
55 2 5.17708 0.65988 4.21089
198 2 -2.11877 3.34435 2.6346
231 3 -0.728631 2.23208 0.867518
82 2 -2.06806 6.4344 4.63211
123 1 3.94253 3.49423 8.18674
202 2 5.07485 -0.248638 7.12387
256 2 -2.60291 4.27528 0.829246
66 2 -1.20906 4.97398 12.8663
141 3 -3.12617 6.0095 11.1233
42 2 0.719409 4.22334 12.9684
64 2 -0.662293 3.02723 12.7694
119 1 -0.360938 3.92548 13.2477
48 2 4.22342 4.18826 9.07365
152 3 4.7907 2.8785 15.5217
47 2 3.10038 -0.233349 10.412
65 2 -0.354169 3.76725 14.3427
215 1 -0.19764 0.106207 10.3025
209 2 -0.280954 1.05924 11.0324
23 4 3.46012 5.92668 11.3699
76 2 2.75551 2.52615 9.54194
91 2 0.583299 5.57211 13.9693
208 2 0.910552 -0.33746 10.275
153 3 0.724115 4.33044 9.04502
266 2 2.06873 4.09439 15.8575
22 4 3.65095 2.85025 12.2239
53 2 3.25565 2.18009 13.8145
81 2 1.87878 2.43373 15.1866
150 3 5.07784 0.975954 9.39747
156 3 4.93603 2.3213 11.6074
158 3 3.47219 4.42418 11.9772
15 4 3.83186 1.58862 8.56246
86 2 2.02462 0.876952 12.9359
127 1 2.00586 1.89961 12.3806
87 2 2.00169 1.7169 11.1186
85 2 1.10141 2.61394 12.6835
20 4 0.814007 6.03348 9.78015
230 3 1.99816 -0.0629981 15.6698
17 4 5.90678 1.54223 10.7233
151 3 6.81635 0.216602 11.8
61 2 -6.19636 10.9666 8.18738
205 2 -2.14191 12.8492 5.28216
126 1 -1.22438 6.78405 4.00271
2 4 -5.71904 12.8188 6.67312
8 4 -2.61854 8.10895 6.65076
9 4 -4.06153 10.2704 5.1367
25 4 -1.41731 10.4379 3.48284
24 4 1.3281 7.90677 0.888802
93 2 -2.56925 10.055 1.40924
95 2 -1.51075 8.52288 1.71814
130 1 -2.27028 9.25606 2.12854
142 3 -5.47525 11.5362 1.59701
143 3 -4.83136 9.71976 3.77268
144 3 -3.87818 8.82479 6.12889
145 3 -4.8449 11.4939 5.92847
161 3 -2.56974 10.7376 4.56133
44 2 -1.35574 8.10344 5.45212
94 2 -3.15696 8.77554 2.54529
162 3 1.83964 9.32903 1.27834
160 3 -1.074 11.9396 2.43959
167 3 -0.98013 10.7833 7.46783
118 1 -6.85781 11.7703 7.82898
258 2 -7.28255 12.2187 3.73127
51 2 -1.58986 7.66773 3.27163
7 4 -6.00671 10.3941 2.70473
253 2 -1.90935 12.0057 0.996165
170 3 0.935117 8.40365 6.09268
83 2 -0.387267 7.09565 4.62957
169 3 -0.142612 9.62469 3.90291
27 4 1.65656 7.40227 7.27608
29 4 0.953409 9.64493 5.08743
159 3 0.455851 6.84818 1.63111
166 3 -2.07793 8.34179 8.04056
14 4 0.276328 11.7088 7.20036
45 2 -2.9182 6.4703 6.65735
157 3 2.04453 6.3967 10.7952
54 2 2.74799 6.28288 15.4264
31 4 0.716217 10.152 10.8848
70 2 -3.02594 12.5655 11.5429
154 3 -0.523959 6.21699 10.6821
72 2 -5.29171 12.2443 11.987
237 4 -6.34296 11.6214 15.7542
63 2 -7.25385 12.3325 8.81599
132 1 1.36204 8.81759 11.9762
71 2 -5.58964 11.3375 10.3778
121 1 -4.91162 12.1367 10.9524
43 2 -3.56065 8.01621 9.46586
10 4 -2.89085 8.79642 13.0394
11 4 -3.40536 10.9558 10.8792
28 4 -1.53151 9.8032 8.70581
30 4 -1.33613 10.6839 14.7506
46 2 -4.3822 7.96624 13.392
146 3 -1.67252 7.76002 12.6224
147 3 -3.26136 9.8238 11.8986
168 3 -3.02528 10.6831 9.39293
172 3 -2.38092 9.55562 14.3631
174 3 -1.16928 12.0149 13.8899
189 3 -6.23523 10.9929 14.2029
101 2 1.21525 9.19675 13.0427
175 3 -0.370923 9.52993 9.83609
100 2 0.6235 7.95373 11.7223
129 1 1.14858 6.63532 14.3526
267 2 0.324397 7.56113 14.2758
92 2 2.13884 6.79357 13.7425
173 3 0.0871437 9.94579 15.0984
164 3 0.70005 7.0851 8.47233
176 3 0.122846 11.3291 11.7521
5 4 -4.14168 6.693 10.2166
6 4 -1.66385 6.31072 11.7625
52 2 5.12264 4.60638 4.61753
134 1 6.5188 5.98039 4.07735
177 3 4.4062 5.55943 2.13966
106 2 6.60664 4.9635 3.55179
117 1 6.73973 1.85586 1.64288
60 2 6.0641 3.24797 2.72453
193 4 6.93564 1.11784 6.84363
270 2 13.654 1.41749 8.28286
107 2 6.1285 5.88714 5.17711
257 1 11.2502 3.25072 1.63395
247 2 11.1069 3.5088 2.69055
269 2 14.6895 -0.186159 7.49456
221 3 7.47793 1.89957 5.58865
195 4 11.9431 0.0704772 7.12658
148 3 7.66656 0.993737 1.23009
255 2 11.2417 1.6604 1.63515
194 4 8.52592 1.66554 4.28052
196 4 11.0809 2.64153 5.77144
197 4 9.91267 5.0223 7.69116
199 2 7.9479 2.64844 2.91728
220 3 8.65417 0.126909 3.83601
222 3 12.7173 2.94865 5.25941
223 3 9.98828 2.38797 4.58021
224 3 11.1069 1.34912 6.73123
225 3 10.7248 4.05376 6.87161
219 3 12.9979 0.972868 3.74105
217 1 8.73637 6.04625 6.56076
212 2 8.244 4.641 7.88836
218 3 7.79806 -0.112529 7.27716
216 1 13.7509 0.714905 7.36899
211 2 8.49776 5.456 5.61536
254 2 10.3292 3.61238 1.09891
265 2 7.77767 4.44178 0.907015
268 2 13.8306 1.30538 6.40511
262 2 10.636 3.34032 12.0827
13 4 6.38743 2.30426 15.3948
248 2 6.95777 1.84589 13.7587
79 2 6.97132 3.58427 9.20266
73 2 7.09869 4.34391 14.087
122 1 7.59175 3.40048 14.6225
236 3 12.9637 -0.0795637 12.177
124 1 7.09442 2.88714 10.0874
49 2 9.09804 -0.408081 13.359
108 2 6.84325 5.86305 8.42325
78 2 6.81948 3.60908 11.0602
179 3 4.76887 6.10108 10.381
77 2 8.26544 2.58084 10.1987
226 3 10.5067 5.85473 8.86889
232 4 12.4602 1.66345 15.6021
239 2 8.96652 3.99798 12.1642
263 2 9.44499 2.24703 12.6755
240 1 9.60471 3.06237 11.9711
264 2 8.50629 2.98633 14.1479
238 2 9.43064 2.6244 10.902
233 4 11.6638 0.552312 12.8183
234 2 10.7109 1.39016 11.6195
235 3 11.9363 1.49921 14.1199
229 2 14.18 0.309705 15.8772
244 3 10.7225 -0.599006 13.2591
251 2 14.4224 0.292658 9.23987
206 2 6.69726 2.08954 8.32818
271 3 7.25201 12.3806 0.961479
210 2 9.49393 6.93915 6.41506
178 3 4.1348 7.09289 4.39629
102 2 2.99414 12.5916 4.14462
250 2 2.8276 11.6398 5.80152
104 2 4.59676 11.1506 5.99619
32 4 4.7342 12.8374 3.74249
109 2 5.08584 6.63112 7.32135
133 1 3.915 11.9995 5.73033
12 4 0.253983 12.7787 2.44364
103 2 5.71188 12.056 4.9993
98 2 3.22177 8.49174 4.24252
96 2 3.21433 10.4621 4.66262
97 2 2.32416 9.67671 3.07178
131 1 2.67301 9.52225 4.14709
163 3 1.41986 12.0753 1.62454
171 3 1.10492 11.1083 5.87341
182 3 5.68742 7.96949 2.14232
185 3 5.03351 11.9491 2.44915
36 4 6.68865 8.79402 1.0969
260 2 6.77622 10.6254 3.78659
37 4 5.75108 11.8428 0.986716
114 2 2.96405 9.35846 7.16344
135 1 5.96342 7.11871 7.77695
115 2 4.14698 7.93811 7.86219
137 1 3.09213 8.57366 7.96971
200 2 7.71494 6.44761 7.05552
56 2 6.63811 7.54045 6.97426
261 1 7.80266 11.0974 3.93967
62 2 7.38443 11.4196 7.17793
183 3 8.19376 9.15054 1.92838
259 2 8.22046 10.7487 4.98568
105 2 7.43027 6.58309 3.93473
33 4 5.08552 6.79248 3.08742
58 2 4.17457 10.2448 8.10593
39 4 7.76857 10.3005 13.274
186 3 3.5122 12.8283 8.47468
35 4 8.31227 7.60199 11.8808
184 3 5.90991 9.15658 15.7264
110 2 5.5483 8.4223 8.93969
116 2 2.81821 8.8368 8.99896
249 2 1.25394 11.3619 8.57392
188 3 8.18023 8.97254 12.5796
26 4 1.51129 10.0055 15.8142
88 2 3.18504 7.81312 13.2473
99 2 2.41725 8.62931 11.6009
34 4 5.99565 6.91331 9.83258
38 4 3.68758 11.4616 9.23434
40 4 5.9539 12.2062 11.2822
59 2 6.6308 9.71129 14.417
89 2 4.92419 7.46537 12.4438
90 2 4.19385 6.27449 13.7026
128 1 3.95808 7.03443 12.8927
187 3 2.17572 10.9781 9.76436
190 3 5.0021 11.3702 10.206
241 4 3.79903 11.2918 14.17
242 2 4.46427 10.3484 12.976
243 3 4.81106 11.7744 15.1859
245 3 2.71566 10.3156 14.8049
111 2 6.70155 7.3673 13.9591
191 3 6.88423 11.3112 12.3149
181 3 7.21926 7.31957 10.8608
136 1 7.09732 6.87199 14.8478
113 2 8.21205 6.60565 14.956
57 2 8.0353 6.45304 13.1092
180 3 9.74978 7.33121 11.0423
112 2 6.40428 6.03189 15.1391
16 4 -0.305652 12.5415 12.7085
ITEM: TIMESTEP
200
ITEM: NUMBER OF ATOMS
271
ITEM: BOX BOUNDS xy xz yz pp pp pp
-1.8032281806625949e-01 2.2147303884928004e+01 7.2300955362801274e+00
-8.0830004002260603e-01 1.3391755282591641e+01 -1.1814469418419904e-02
6.5076705643294996e-01 1.5958832943567099e+01 -8.4834475743104976e-01
ITEM: ATOMS id type x y z
3 4 1.08466 2.01233 5.43443
227 4 1.37401 1.97345 0.828541
123 1 3.94352 3.48351 8.25637
55 2 5.41077 1.03732 4.28571
214 1 5.44772 0.185324 6.13721
18 4 3.76812 4.44583 1.12761
252 2 5.53035 0.595066 1.13369
125 1 2.44945 3.31681 1.54567
228 2 1.64558 2.24186 2.71515
75 2 3.03625 3.66361 7.54039
1 4 5.30017 1.62312 2.6755
203 2 3.24753 4.11681 4.47022
74 2 5.1486 2.85765 7.51375
149 3 3.1112 0.547881 7.63472
206 2 6.81838 2.21156 8.10925
50 2 3.59074 2.0945 2.24327
41 2 2.66979 2.35737 4.94274
139 3 1.13233 0.509886 5.69492
201 2 4.08186 3.639 6.2456
204 2 4.79265 1.11309 5.98068
213 1 4.25557 3.66377 5.01975
246 2 4.50732 2.52718 4.66861
52 2 5.17928 4.36886 4.71739
134 1 6.60203 5.67338 3.88251
105 2 7.44546 6.35006 3.63592
177 3 4.3191 5.53763 2.14459
211 2 8.76707 5.55778 5.67573
106 2 6.66804 4.64676 3.4091
117 1 6.75692 1.90117 1.50289
212 2 8.35582 4.67606 7.76849
217 1 8.89846 6.1794 6.64291
60 2 6.06265 3.21086 2.61872
193 4 7.04197 1.13364 6.75083
107 2 6.36504 5.66551 4.99725
221 3 7.48259 1.84178 5.42129
148 3 7.7931 1.1201 1.18353
197 4 10.0114 5.04752 7.76779
199 2 7.64079 2.68054 2.88744
151 3 6.997 0.344867 11.6515
17 4 6.07256 1.35189 10.8164
230 3 2.0126 -0.243722 15.8122
87 2 1.99249 1.65382 11.1527
127 1 1.92302 1.82146 12.4463
48 2 4.3476 4.41369 8.67205
152 3 4.85039 2.95404 15.4087
47 2 2.99591 -0.226636 10.4996
86 2 2.05544 0.902538 13.0144
15 4 3.89787 1.54905 8.63206
158 3 3.30856 4.39876 12.0618
23 4 3.46764 5.92575 11.3637
76 2 2.79803 2.62821 9.53646
156 3 4.78965 2.0949 11.7396
208 2 0.987752 -0.30656 10.5718
150 3 5.12945 0.989186 9.55148
81 2 1.9454 2.4031 15.0658
22 4 3.5305 2.79616 12.2982
53 2 3.2339 2.15937 13.8705
13 4 6.24635 2.20933 15.2393
112 2 6.91483 5.76004 15.6214
248 2 6.73885 2.05585 13.5297
79 2 6.3454 3.38331 9.38125
73 2 6.87045 4.33394 14.3813
122 1 7.55439 3.40374 14.6541
124 1 7.09284 2.76371 9.98902
239 2 8.58428 3.73477 11.7709
78 2 7.55711 3.28075 10.9384
264 2 8.48313 3.39945 13.9665
226 3 10.3876 5.79046 9.10868
77 2 7.88702 2.23414 9.40897
108 2 6.76806 5.84419 8.27992
265 2 7.94793 3.39592 15.9826
61 2 8.86514 10.9465 8.1191
205 2 12.6372 12.8925 5.33804
253 2 13.1578 12.0816 0.969142
2 4 9.40282 12.7653 6.69103
7 4 9.00499 10.2866 2.76758
9 4 11.0771 10.2482 5.1467
258 2 7.7964 12.3534 3.517
118 1 8.23841 11.8924 7.84487
93 2 12.5105 9.67758 1.38632
260 2 6.77776 10.6865 3.6299
161 3 12.4168 10.6864 4.49399
142 3 9.60204 11.4085 1.60674
143 3 10.1104 9.73169 3.77538
144 3 11.1534 8.79448 6.11597
145 3 10.2403 11.5592 5.93376
271 3 7.16192 12.3505 0.892048
210 2 9.69561 6.99992 6.60541
33 4 5.0866 6.66381 3.20695
36 4 6.73804 8.79404 1.07448
259 2 8.14863 11.1767 4.93849
183 3 8.06497 9.14987 1.89003
62 2 7.41154 11.5705 7.07398
261 1 7.77323 11.2344 3.87368
56 2 6.69463 7.87799 6.89496
200 2 7.82969 6.63837 7.12681
178 3 4.12189 7.12076 4.46982
109 2 5.09667 6.98305 7.27263
135 1 6.07399 7.41015 7.72205
182 3 5.67917 7.82688 2.29215
202 2 12.3781 12.9888 7.0884
5 4 10.975 6.77105 10.2759
189 3 8.84708 10.8537 14.1499
174 3 13.8158 12.0431 13.8019
70 2 11.9226 12.3037 11.6666
172 3 12.6678 9.66921 14.2775
72 2 9.87811 12.3131 12.2386
237 4 8.7245 11.4579 15.8361
63 2 7.79144 12.4468 8.84453
168 3 12.1921 10.7039 9.4128
71 2 9.16537 11.4034 10.7189
121 1 10.014 12.171 11.0828
128 1 4.0312 7.09233 12.7817
10 4 12.1735 8.81637 13.0094
11 4 11.4027 10.8304 10.8443
147 3 11.6116 9.66176 11.8714
46 2 10.8968 7.86345 13.6289
39 4 7.73099 10.2814 13.1912
35 4 8.33589 7.57595 11.8218
179 3 4.69549 6.17705 10.2863
180 3 9.82546 7.4096 11.211
57 2 8.18806 6.55442 13.191
113 2 8.48887 6.82103 14.9689
136 1 7.35321 6.74092 15.0181
181 3 7.28691 7.11489 10.7869
191 3 6.86971 11.3966 12.3527
111 2 6.83932 7.12732 14.0569
184 3 5.87574 9.11605 15.6634
110 2 5.71239 8.456 8.70936
188 3 8.16347 9.0787 12.3369
34 4 6.04002 6.8467 9.73984
59 2 6.61851 9.5955 14.3112
89 2 5.04084 7.49435 12.5755
90 2 3.99492 6.46119 13.7268
268 2 13.7904 1.27961 6.58842
254 2 10.3709 3.48262 1.44665
216 1 13.7337 0.681706 7.51313
218 3 7.91818 -0.0588596 7.41076
219 3 12.9656 1.03087 3.52195
225 3 10.7327 4.13068 6.78478
224 3 11.0239 1.3003 6.78534
45 2 12.191 6.37623 6.53452
223 3 9.94348 2.50266 4.6109
257 1 11.4326 3.60913 1.80543
247 2 11.4425 3.70359 2.92692
269 2 14.6354 -0.0359161 7.64184
222 3 12.5535 2.91231 5.24799
195 4 11.8855 0.0904578 7.27863
220 3 8.54485 0.167053 3.81225
255 2 11.1832 1.75658 1.52272
194 4 8.508 1.75244 4.20533
196 4 11.0118 2.69641 5.81245
120 1 13.6793 5.01444 7.14457
256 2 12.1185 4.58425 1.17221
84 2 13.7999 5.17302 3.37443
68 2 14.3367 5.20902 6.05204
21 4 17.8869 5.84953 4.80722
231 3 14.3761 2.35305 0.720208
198 2 13.1675 3.43929 2.6484
82 2 12.9446 6.43105 4.99638
67 2 12.5851 4.65851 6.97119
155 3 16.6425 5.9911 3.79387
69 2 13.6409 5.92388 7.8238
192 4 13.5155 2.45101 4.06396
165 3 17.4456 6.0247 6.3869
19 4 15.4488 5.96622 2.82123
4 4 15.1621 3.91792 7.72841
138 3 15.0338 2.45595 4.24705
80 2 16.0663 4.39691 2.07593
140 3 15.7361 2.89989 6.67192
229 2 13.9947 1.22435 0.759199
207 2 13.582 3.4144 8.25881
270 2 13.6507 1.43296 8.4329
262 2 10.5231 3.78604 11.6314
251 2 14.5193 0.304137 9.32707
244 3 10.6334 -0.56484 13.5238
266 2 17.2287 4.01499 15.757
235 3 11.8951 1.68078 14.1583
234 2 10.5914 1.45939 11.7786
236 3 12.8949 0.00700873 12.2437
233 4 11.539 0.632147 12.9782
49 2 8.96504 -0.262894 13.4599
238 2 9.58477 2.27046 11.0122
240 1 9.61968 3.15722 11.8588
263 2 9.68041 2.80801 12.9514
232 4 12.3731 1.68752 15.7011
66 2 13.6505 5.0264 13.0748
141 3 11.9591 5.99997 11.2784
42 2 15.6916 4.06015 13.1904
64 2 14.2978 2.76758 12.9893
20 4 15.9066 6.08883 9.83358
85 2 16.0993 2.57262 12.8029
119 1 14.6411 3.80103 13.5012
65 2 14.5629 3.62866 14.6228
215 1 14.9959 0.162011 10.4006
209 2 14.7871 1.09878 11.0646
91 2 15.6168 5.49459 13.8467
153 3 16.0307 4.63793 8.88934
154 3 14.5611 6.15687 10.7448
94 2 11.9503 8.41669 2.78204
137 1 18.2052 8.63952 7.64032
115 2 19.3215 8.16757 7.6011
102 2 18.1808 12.7723 4.13538
250 2 17.9282 11.8365 5.74412
104 2 19.6617 11.184 6.00582
32 4 19.9245 12.811 3.73147
114 2 17.9885 9.55834 7.00946
133 1 19.0614 12.0764 5.69692
12 4 15.5213 12.8768 2.35935
103 2 20.8868 12.2962 5.15095
98 2 18.2312 8.50113 4.35492
96 2 18.2457 10.545 4.7455
97 2 17.4203 9.81894 3.09525
131 1 17.6681 9.58212 4.22995
163 3 16.7818 12.0573 1.76936
171 3 16.2585 11.25 6.07827
37 4 20.7986 11.7787 1.00091
185 3 20.1685 11.7767 2.50823
126 1 13.7891 6.60646 4.30345
44 2 13.7503 8.13805 5.52706
14 4 15.4696 11.7129 7.38782
166 3 12.6135 8.24212 8.18544
159 3 15.3608 7.04705 1.66339
29 4 15.997 9.70199 5.02181
27 4 16.7157 7.47286 7.18027
169 3 14.747 9.76279 3.96726
83 2 14.7353 6.87652 4.94093
170 3 15.9744 8.3651 6.14074
8 4 12.395 8.06501 6.64349
25 4 13.4724 10.4548 3.36925
51 2 13.4991 7.52036 3.56656
24 4 16.4008 7.88244 0.660052
95 2 13.7216 8.3274 1.98237
167 3 14.0854 10.8357 7.57493
160 3 13.9972 12.0051 2.4091
162 3 16.9032 9.24137 1.09901
130 1 12.839 9.00886 2.28303
58 2 19.4118 10.0553 8.29802
16 4 14.7345 12.6253 12.6607
186 3 18.8728 12.5522 8.50829
245 3 17.7614 10.2911 14.6681
243 3 19.8526 11.7151 15.1818
242 2 19.6668 10.4526 12.921
116 2 17.7993 8.77486 8.77227
249 2 16.6281 11.4069 8.58932
241 4 18.8282 11.275 14.121
26 4 16.5593 10.0999 15.8133
88 2 18.3907 7.97806 12.8114
99 2 17.514 8.75666 11.5078
190 3 20.1297 11.3738 10.4699
38 4 18.9445 11.2762 9.34338
40 4 21.057 12.3553 11.4033
187 3 17.4702 10.8429 9.82567
146 3 13.3742 7.7994 12.5368
157 3 17.1804 6.44798 10.7805
6 4 13.4198 6.27297 11.8772
54 2 17.602 5.9717 15.2932
176 3 15.3216 11.5082 11.7099
164 3 15.9776 7.14127 8.58919
173 3 15.1229 10.0526 15.1075
92 2 17.2074 6.75872 13.5656
267 2 15.3769 7.51428 13.9453
129 1 16.1511 6.60561 14.1407
100 2 15.5674 8.21904 11.8107
175 3 14.6221 9.77823 9.7939
101 2 16.5776 9.41458 13.0834
31 4 15.8958 10.3002 10.876
30 4 13.7176 10.7044 14.7257
132 1 16.4894 8.99324 12.0107
28 4 13.4453 9.94767 8.72753
43 2 12.0126 7.98484 9.63382
ITEM: TIMESTEP
300
ITEM: NUMBER OF ATOMS
271
ITEM: BOX BOUNDS xy xz yz pp pp pp
-1.8797685100982608e-01 2.2147303884928004e+01 7.2300955362801274e+00
-8.0830004002260603e-01 1.3391755282591641e+01 -1.9468502361986495e-02
6.5076705643294996e-01 1.5958832943567099e+01 -8.4834475743104976e-01
ITEM: ATOMS id type x y z
108 2 6.69407 5.77172 8.09098
227 4 1.41372 1.96814 0.935929
123 1 3.73508 3.38112 8.22703
55 2 5.69409 0.74 4.09625
214 1 5.59721 0.0238453 5.95857
18 4 3.72083 4.40759 1.08322
252 2 5.52199 0.783782 1.10043
125 1 2.408 3.40056 1.57691
228 2 1.85917 2.18342 2.78748
75 2 2.928 3.66913 7.53776
1 4 5.24937 1.60843 2.69349
203 2 3.00042 4.16302 4.50604
74 2 4.90888 2.57326 7.58013
149 3 3.08122 0.462121 7.57459
206 2 6.69113 2.09553 8.04981
50 2 3.54169 2.18388 2.47842
41 2 2.54086 2.4835 4.79554
139 3 1.13264 0.495333 5.71721
201 2 3.94817 3.56248 6.19171
204 2 4.80917 0.826314 5.66332
213 1 4.10096 3.69689 4.99089
246 2 4.28243 2.71475 4.42754
52 2 5.05296 4.4085 4.75025
134 1 6.49818 5.64558 4.16346
105 2 7.38954 5.94289 3.61313
177 3 4.41189 5.30771 2.17224
211 2 8.79622 5.80948 5.57368
106 2 6.43714 4.48835 4.26687
117 1 6.75606 2.03469 1.54916
212 2 8.32536 4.83479 7.73265
217 1 8.95212 6.25372 6.56224
60 2 6.11757 3.17081 2.71441
193 4 7.07215 1.05056 6.65182
107 2 6.31436 6.20872 5.1718
221 3 7.59687 1.88219 5.4771
148 3 7.77298 1.15129 1.30497
197 4 10.0037 5.1493 7.76726
199 2 7.88604 2.81015 2.84327
33 4 5.11591 6.4959 3.10947
151 3 7.10787 0.477126 11.8343
17 4 6.02857 1.37038 10.8687
230 3 2.03571 -0.189506 15.721
87 2 1.94225 1.59067 11.4199
127 1 1.99166 1.87276 12.6691
48 2 4.12647 4.37072 8.60644
152 3 4.80021 2.75009 15.2946
47 2 2.77132 -0.309789 10.31
86 2 2.12687 0.946466 13.3716
15 4 3.99747 1.30683 8.51966
158 3 3.52637 4.35655 12.0553
23 4 3.5299 5.85041 11.3833
76 2 2.9506 2.55922 9.53919
156 3 4.90203 2.02283 11.8152
208 2 0.828448 -0.371885 10.5357
150 3 5.10509 0.601091 9.59276
81 2 2.00768 2.36282 15.1643
22 4 3.63568 2.77155 12.3233
53 2 3.33856 2.35647 14.0267
13 4 6.20988 2.11721 15.1571
112 2 7.4088 5.72581 15.3676
248 2 6.68917 1.76264 13.5301
79 2 6.39831 3.18758 9.12414
73 2 6.96215 4.10028 14.0693
122 1 7.60561 3.18722 14.4786
124 1 7.08632 2.68923 9.8967
239 2 8.63819 3.96209 11.2694
78 2 7.46079 3.4419 10.6982
264 2 8.60297 3.05889 13.8751
226 3 10.3505 5.79293 9.10579
77 2 7.85494 2.04972 9.44632
179 3 4.76882 5.91371 10.2361
265 2 7.90665 3.44777 15.6652
61 2 8.79463 11.0138 8.10335
205 2 13.2725 12.6368 5.11904
253 2 13.3661 12.3918 0.886208
2 4 9.39682 12.9027 6.71621
7 4 8.94923 10.3774 2.69791
9 4 10.9179 10.2162 5.07908
258 2 7.28773 12.2264 3.29187
118 1 8.10047 11.9165 7.85983
182 3 5.85992 7.64087 2.11579
260 2 6.85266 10.4408 3.7548
161 3 12.3328 10.7179 4.36942
142 3 9.6317 11.5001 1.58986
143 3 9.87582 9.81475 3.90986
144 3 11.1284 8.97765 6.12832
145 3 10.1834 11.649 5.89405
271 3 7.17589 12.2849 0.956395
210 2 9.85343 7.09316 6.61029
202 2 12.5544 12.7933 6.8912
36 4 6.68554 8.70654 1.22063
259 2 7.96118 11.4248 4.87506
183 3 7.97307 9.3277 1.87043
62 2 7.29486 11.5984 7.1635
261 1 7.64345 11.2616 3.80441
56 2 6.88603 7.99952 7.57239
200 2 7.89575 6.70211 7.10803
178 3 4.00963 6.90934 4.24555
109 2 5.45352 7.18441 6.88186
135 1 6.08612 7.29193 7.78882
93 2 12.6376 9.7538 1.25856
5 4 11.028 6.54796 10.3423
189 3 8.83431 10.7024 14.2362
174 3 13.732 12.1634 13.7121
70 2 11.7082 12.4953 11.5046
172 3 12.7216 9.73613 14.32
72 2 9.51755 12.232 11.9464
237 4 8.66905 11.4116 15.7192
63 2 7.63605 12.4664 8.80496
168 3 12.0559 10.7367 9.42389
71 2 9.24454 11.1762 10.2924
121 1 9.88496 12.068 10.9093
89 2 4.98078 7.53991 12.5176
10 4 12.2024 8.70716 13.1577
11 4 11.4327 10.8972 10.8966
147 3 11.5949 9.71295 12.0007
46 2 10.9748 8.01833 13.9898
39 4 7.64828 10.2283 13.1903
35 4 8.30282 7.70542 11.7557
90 2 4.05592 6.33276 13.6211
180 3 9.66301 7.14566 11.1324
57 2 7.9176 6.71447 13.1525
113 2 8.39282 7.21181 14.8791
136 1 7.39141 6.7638 15.0591
181 3 7.18954 7.19044 10.7332
191 3 6.95578 11.5718 12.5262
111 2 6.51352 6.90813 14.3477
184 3 5.84177 8.99375 15.6294
110 2 5.33685 8.24982 9.08944
188 3 8.20967 9.23267 12.068
34 4 6.03513 6.67976 9.71569
59 2 6.51375 9.35663 14.1574
268 2 13.8662 1.4754 6.50494
254 2 10.5076 3.94907 1.04745
216 1 13.8118 0.858874 7.49523
218 3 8.00003 -0.0813084 7.33753
219 3 12.9373 0.948494 3.48754
225 3 10.7768 4.05583 7.01382
224 3 11.0524 1.25647 6.77969
3 4 16.0769 2.0112 5.51822
223 3 10.0368 2.67588 4.54274
257 1 11.5045 3.79325 1.66449
247 2 11.3136 4.03767 2.76527
269 2 14.6945 0.089888 7.60306
222 3 12.5491 2.84498 5.19111
195 4 12.0237 0.110921 7.17376
220 3 8.85407 0.393017 3.65522
255 2 11.416 1.92924 1.76335
194 4 8.63249 1.88245 4.23859
196 4 11.1015 2.58784 5.85362
120 1 13.6046 5.04342 7.23967
256 2 12.4169 4.65143 1.12301
84 2 13.7694 5.11976 3.31455
68 2 14.2064 5.23698 6.19746
21 4 17.8136 5.87887 4.8104