ITEM: TIMESTEP
0
ITEM: NUMBER OF ATOMS
271
ITEM: BOX BOUNDS xy xz yz pp pp pp
-8.0241295096634282e+00 1.4920701945116591e+01 -7.8556211610155886e+00
-8.0830004002260603e-01 1.3391755282591641e+01 3.4935964687144894e-03
6.5076705643294996e-01 1.5958832943567099e+01 -8.4834475743104976e-01
ITEM: ATOMS id type x y z
120 1 -1.64604 4.98187 7.32664
227 4 1.49276 2.10548 0.929568
84 2 -1.33538 5.14589 3.22991
68 2 -0.987489 5.01029 6.21537
214 1 5.45399 0.134061 6.11812
45 2 -2.86582 6.35749 6.6679
252 2 5.40987 0.639426 1.3514
67 2 -2.7368 4.5499 7.17582
69 2 -1.52243 5.91273 7.96919
75 2 2.78802 4.02754 7.73472
192 4 -1.59839 2.48291 3.96091
4 4 -0.237172 3.75289 7.95198
138 3 0.107993 2.64743 4.23055
140 3 0.436788 2.94374 6.79636
3 4 0.946815 2.17887 5.46093
21 4 2.80377 5.86215 4.97322
41 2 2.58889 2.63999 5.2562
139 3 1.02617 0.415952 5.63724
201 2 3.96712 3.79607 6.42035
204 2 4.67474 0.864553 5.83965
213 1 4.20742 3.77442 5.13608
246 2 4.45759 2.54704 4.78917
50 2 3.57885 2.40944 2.72586
149 3 2.9029 0.517967 7.64718
74 2 4.78411 2.77264 7.45271
80 2 0.887327 4.25065 2.32057
203 2 3.23919 4.17237 4.49685
1 4 5.17492 1.59457 2.87982
19 4 0.381343 5.83855 3.02654
165 3 2.61381 6.06169 6.52535
228 2 1.74181 2.42117 2.76652
125 1 2.49095 3.54594 1.6403
155 3 1.43605 5.86954 4.20701
18 4 3.85727 4.51465 1.17121
55 2 5.41796 0.530852 4.18939
198 2 -1.98747 3.39804 2.58559
230 3 2.21677 0.772183 0.667521
82 2 -2.28806 6.48692 4.6998
207 2 -1.89414 3.30158 8.29697
66 2 -1.35007 4.89257 12.8898
141 3 -3.1685 5.76692 11.0267
42 2 0.423783 4.13162 12.5133
64 2 -0.754398 2.97954 13.2322
119 1 -0.354438 4.07227 13.2258
48 2 4.08449 4.32715 8.89893
152 3 4.84447 2.93196 15.4744
47 2 3.10019 -0.238153 10.6703
65 2 -0.0181992 4.32285 14.253
215 1 -0.0906036 -0.0623084 10.2359
209 2 -0.0440979 0.873746 10.8562
23 4 3.48767 5.96127 11.4283
76 2 2.90166 2.57595 9.63109
91 2 0.579305 5.72415 13.845
229 2 -0.743696 0.350068 15.6645
153 3 0.510204 4.27188 9.29729
266 2 2.12835 4.08292 15.7935
22 4 3.68003 2.93954 12.3411
53 2 3.38492 2.38515 13.9569
81 2 2.08653 2.46093 15.0889
150 3 5.02175 0.921661 9.55761
156 3 4.87882 2.12822 11.7776
158 3 3.41233 4.48353 12.2909
15 4 3.86958 1.47212 8.54743
86 2 2.07826 1.06779 13.1221
127 1 2.05122 2.01558 12.5232
87 2 2.04624 1.76012 11.34
85 2 1.12774 2.72237 12.7705
20 4 0.660397 5.93274 9.79546
231 3 -0.612073 1.4837 15.8618
17 4 6.14685 1.47293 10.7814
123 1 3.58762 3.52501 8.34192
61 2 -6.15591 10.9304 7.86328
205 2 -2.22926 12.8275 5.30346
126 1 -1.34233 6.69648 4.07716
2 4 -5.77533 12.8596 6.53238
8 4 -2.7956 8.10418 6.567
9 4 -4.06309 10.2881 5.08185
25 4 -1.4246 10.4666 3.43766
24 4 1.45084 7.844 0.768969
93 2 -2.62026 10.0729 1.4984
95 2 -1.25626 8.60061 1.56989
130 1 -2.08423 9.17966 2.14488
142 3 -5.42763 11.7091 1.55337
143 3 -4.86439 9.88004 3.7607
144 3 -4.12196 8.87709 6.08902
145 3 -4.77367 11.8675 5.74995
161 3 -2.53304 10.5757 4.6267
44 2 -1.60614 8.18401 5.39108
94 2 -2.83754 8.51398 2.72847
162 3 1.78394 9.35321 1.15218
160 3 -1.27522 12.3274 2.69981
167 3 -0.861623 10.7695 7.44174
118 1 -6.90136 11.7783 7.59375
202 2 -2.63884 12.8519 7.13135
51 2 -1.56418 7.61369 3.34544
7 4 -6.06097 10.4261 2.62873
253 2 -1.62583 12.228 1.09502
170 3 0.986417 8.36265 6.16308
83 2 -0.438349 6.95605 4.84203
169 3 -0.12537 9.76431 4.00556
27 4 1.69308 7.45519 7.30146
29 4 1.03336 9.57256 5.08363
159 3 0.56668 6.90598 1.73075
166 3 -2.24759 8.31292 7.94538
258 2 -7.23436 12.2637 3.67779
157 3 2.09723 6.22085 10.6651
54 2 2.72251 6.25137 15.2321
31 4 0.724521 10.2274 10.8382
70 2 -3.12771 12.599 11.4743
154 3 -0.62253 6.26553 10.7296
72 2 -5.72465 12.0415 11.8834
237 4 -6.34005 11.5545 15.7844
63 2 -7.25676 12.3226 8.58433
132 1 1.28585 8.83508 11.9158
71 2 -5.4177 11.4635 9.94318
121 1 -4.98313 12.0406 10.9857
43 2 -3.36478 7.99673 9.77169
10 4 -2.84492 8.80865 13.1212
11 4 -3.3868 10.9663 10.8788
28 4 -1.63541 9.86723 8.60431
30 4 -1.23732 10.702 14.8435
46 2 -4.2637 8.09584 13.7322
146 3 -1.90435 7.61469 12.6404
147 3 -3.12413 9.85697 11.9524
168 3 -2.83528 10.6884 9.43006
172 3 -2.36547 9.60215 14.4792
174 3 -1.23362 11.9989 13.8257
189 3 -6.31826 11.0241 14.1866
101 2 1.09205 9.22319 12.9675
175 3 -0.395684 9.64136 9.71936
100 2 0.422117 8.06591 11.553
129 1 1.08239 6.73995 14.2531
267 2 0.484753 7.68075 14.1213
92 2 2.15508 6.94367 13.7569
173 3 0.20444 9.99562 14.9164
164 3 0.672886 6.87094 8.40256
176 3 0.151061 11.3529 11.7441
5 4 -4.24674 6.65678 10.2014
6 4 -1.8131 6.17489 11.7453
208 2 -6.95121 12.7734 10.2173
16 4 -0.384932 12.5048 12.5927
52 2 5.10172 4.45581 4.80716
134 1 6.4916 5.8533 4.09942
177 3 4.44281 5.56 2.18709
106 2 6.48654 4.72272 3.89068
117 1 6.66969 1.97855 1.74751
60 2 6.1462 3.15949 3.07826
193 4 7.04791 0.986212 6.67937
206 2 6.76123 2.15561 8.06242
107 2 6.19538 6.12336 5.23043
257 1 11.3788 3.19507 1.58264
247 2 11.3163 3.12872 2.7307
269 2 14.5267 -0.111064 7.39815
221 3 7.59819 1.95647 5.51749
195 4 11.9716 -0.0425178 7.16687
148 3 7.70859 1.18798 1.40032
255 2 11.7136 1.28279 1.32168
194 4 8.65569 1.76405 4.22986
196 4 11.1438 2.7355 5.73949
197 4 9.83998 5.1475 7.58379
199 2 7.90143 2.75938 2.92317
220 3 8.75544 0.182645 3.88142
222 3 12.6124 3.20552 5.14124
223 3 10.0563 2.61077 4.43869
224 3 11.1699 1.25308 6.51085
225 3 10.7201 4.02699 6.90034
219 3 13.0921 0.942913 3.87449
217 1 8.56365 5.96202 6.46251
212 2 8.22847 4.55658 7.82926
218 3 7.83161 -0.214386 7.23727
216 1 13.7513 0.709923 7.40533
211 2 8.30714 5.35194 5.58933
254 2 10.337 3.17231 1.08314
265 2 7.81055 4.6231 0.702059
268 2 13.8523 1.37627 6.55758
105 2 7.48485 6.40923 3.80983
256 2 11.9911 4.1972 1.30851
262 2 10.6757 3.40974 11.8092
13 4 6.36338 2.27021 15.4928
248 2 7.02491 1.62116 13.9635
79 2 6.58134 3.33079 9.15049
73 2 7.18269 4.08982 13.9557
122 1 7.68452 3.27156 14.6441
151 3 6.98319 0.309098 11.581
124 1 7.25272 2.77344 9.89359
112 2 6.85232 5.75253 15.1624
108 2 6.64999 5.66015 8.44657
78 2 7.55333 3.39018 10.8331
251 2 14.5829 0.128397 9.18971
77 2 8.03266 2.16972 9.39007
226 3 10.35 5.87396 8.88567
232 4 12.4999 1.4346 15.4915
239 2 8.89471 4.00077 11.8212
263 2 9.45962 2.60822 13.0797
240 1 9.5692 3.03262 11.9988
264 2 8.72934 2.91297 14.1907
238 2 9.33809 2.22009 11.2234
233 4 11.5159 0.475913 12.8028
234 2 10.7877 1.50738 11.5854
235 3 11.9191 1.58305 14.0523
236 3 12.8678 -0.000493411 12.1041
49 2 9.01553 -0.368818 13.0057
244 3 10.5765 -0.640683 13.3226
270 2 13.6152 1.2846 8.41748
271 3 7.22584 12.5654 1.09088
210 2 9.35508 6.88253 6.21172
178 3 4.06982 7.10423 4.32621
102 2 3.12609 12.7048 4.46425
250 2 2.93589 11.5518 5.9057
104 2 4.77566 11.0232 6.11259
32 4 4.8452 12.7808 3.8378
109 2 4.94647 6.80882 7.30302
133 1 4.08708 11.8873 5.87017
12 4 0.233861 12.8517 2.55888
103 2 5.85663 12.029 5.05952
98 2 3.20876 8.55869 4.14472
96 2 3.26117 10.4373 4.44908
97 2 2.26894 9.60991 2.95256
131 1 2.63667 9.57192 4.07828
163 3 1.3803 12.024 1.74932
171 3 1.29061 11.155 5.9467
182 3 5.9064 7.95574 2.17112
185 3 5.01272 11.8545 2.51344
36 4 6.67257 8.84072 1.09279
260 2 6.66617 10.7465 3.51873
37 4 5.74363 11.9442 0.976706
114 2 2.92416 9.51825 7.43928
135 1 5.90403 7.12714 7.82013
115 2 4.13933 8.00761 7.90085
137 1 3.07521 8.60732 8.08803
200 2 7.55695 6.37528 7.0184
56 2 6.56166 7.72673 7.13567
261 1 7.7209 11.1634 3.7712
62 2 7.42424 11.3414 6.85248
183 3 8.16119 9.39142 1.53313
259 2 8.2016 10.7992 4.79507
14 4 0.424695 11.6142 7.2625
33 4 5.10448 6.71238 3.14901
58 2 4.36638 10.0974 8.17906
39 4 7.81739 10.2078 13.1687
186 3 3.59629 12.756 8.55815
35 4 8.40743 7.64214 11.8656
184 3 5.94637 9.28074 15.671
110 2 5.56217 8.44481 8.90502
116 2 2.84273 8.67949 9.16382
249 2 1.39157 11.332 8.63653
188 3 8.55354 9.14257 12.3338
26 4 1.54713 10.1192 15.8318
88 2 3.32427 8.2029 12.8088
99 2 2.37084 8.42858 11.8222
34 4 6.03908 6.81457 9.8129
38 4 3.77662 11.3593 9.34492
40 4 5.98607 12.2416 11.3558
59 2 6.6561 9.56269 14.2192
89 2 4.98283 7.48663 12.4265
90 2 3.91133 6.69999 13.7883
128 1 3.89642 7.24447 12.7956
187 3 2.3488 10.9122 9.8769
190 3 4.93597 11.4625 10.3669
241 4 3.80764 11.297 14.1652
242 2 4.7952 10.4349 13.0835
243 3 4.80714 11.9712 15.183
245 3 2.7123 10.3363 14.7084
111 2 6.69426 7.34943 14.111
191 3 6.91946 11.194 12.1881
181 3 7.14599 7.26012 10.8691
136 1 7.18366 6.81005 14.9587
113 2 8.31777 6.96634 14.9704
57 2 8.23503 6.66892 13.2661
180 3 9.61851 7.14678 11.1324
179 3 4.73671 6.18492 10.4259
ITEM: TIMESTEP
100
ITEM: NUMBER OF ATOMS
271
ITEM: BOX BOUNDS xy xz yz pp pp pp
-8.0308053649460192e+00 1.4920701945116591e+01 -7.8622970162981805e+00
-8.0830004002260603e-01 1.3391755282591641e+01 3.4935964687144894e-03
6.5076705643294996e-01 1.5958832943567099e+01 -8.4834475743104976e-01
ITEM: ATOMS id type x y z
120 1 -1.49406 5.16374 7.26069
227 4 1.42845 2.06131 1.05286
84 2 -1.12621 5.05538 3.2617
68 2 -0.854665 5.40572 6.2334
214 1 5.36294 0.340925 6.12337
207 2 -1.78129 3.49074 8.14507
252 2 5.37108 0.69757 1.20445
67 2 -2.55829 4.76068 7.02053
69 2 -1.40616 6.00553 8.08151
75 2 3.03068 3.80216 7.65946
192 4 -1.59126 2.43017 4.00169
4 4 -0.0836412 3.90464 7.74347
138 3 0.086669 2.50275 4.2689
140 3 0.570097 2.87928 6.79724
3 4 1.14164 2.04479 5.53826
21 4 2.81666 5.91954 4.97265
41 2 2.64089 2.64994 5.05074
139 3 1.14304 0.373898 5.63377
201 2 4.05508 3.90075 6.14839
204 2 4.4694 0.926084 5.81737
213 1 4.22826 3.86419 4.94472
246 2 4.48247 2.7198 4.64525
50 2 3.56034 2.37988 2.56144
149 3 2.97471 0.583499 7.66764
74 2 4.88716 3.22225 7.49603
80 2 0.748183 4.23039 2.18226
203 2 3.18638 4.21794 4.30917
1 4 5.18944 1.64938 2.76001
19 4 0.439322 5.9088 2.86047
165 3 2.45729 6.09994 6.59993
228 2 1.83438 2.14166 2.82829
125 1 2.39899 3.53528 1.70508
155 3 1.51802 5.96615 4.04725
18 4 3.77813 4.50372 1.1478
55 2 5.17845 0.65988 4.21089
198 2 -2.11948 3.34435 2.6346
231 3 -0.729625 2.23208 0.867518
82 2 -2.06937 6.4344 4.63211
123 1 3.94436 3.49423 8.18674
202 2 5.07805 -0.248638 7.12387
256 2 -2.60495 4.27528 0.829246
66 2 -1.20576 4.97398 12.8663
141 3 -3.12421 6.0095 11.1233
42 2 0.723135 4.22334 12.9684
64 2 -0.658063 3.02723 12.7694
119 1 -0.356932 3.92548 13.2477
48 2 4.22533 4.18826 9.07365
152 3 4.7963 2.8785 15.5217
47 2 3.10512 -0.233349 10.412
65 2 -0.349566 3.76725 14.3427
215 1 -0.193115 0.106207 10.3025
209 2 -0.27656 1.05924 11.0324
23 4 3.46224 5.92668 11.3699
76 2 2.75846 2.52615 9.54194
91 2 0.586823 5.57211 13.9693
208 2 0.915286 -0.33746 10.275
153 3 0.725934 4.33044 9.04502
266 2 2.07388 4.09439 15.8575
22 4 3.65501 2.85025 12.2239
53 2 3.2608 2.18009 13.8145
81 2 1.88445 2.43373 15.1866
150 3 5.0815 0.975954 9.39747
156 3 4.94007 2.3213 11.6074
158 3 3.47534 4.42418 11.9772
15 4 3.83482 1.58862 8.56246
86 2 2.03001 0.876952 12.9359
127 1 2.01047 1.89961 12.3806
87 2 2.0058 1.7169 11.1186
85 2 1.1058 2.61394 12.6835
20 4 0.815323 6.03348 9.78015
230 3 2.0053 -0.0629981 15.6698
17 4 5.91078 1.54223 10.7233
151 3 6.82153 0.216602 11.8
61 2 -6.19827 10.9666 8.18738
205 2 -2.14613 12.8492 5.28216
126 1 -1.22617 6.78405 4.00271
2 4 -5.72258 12.8188 6.67312
8 4 -2.61974 8.10895 6.65076
9 4 -4.06452 10.2704 5.1367
25 4 -1.42117 10.4379 3.48284
24 4 1.32428 7.90677 0.888802
93 2 -2.5739 10.055 1.40924
95 2 -1.51449 8.52288 1.71814
130 1 -2.27419 9.25606 2.12854
142 3 -5.48055 11.5362 1.59701
143 3 -4.83473 9.71976 3.77268
144 3 -3.87998 8.82479 6.12889
145 3 -4.84813 11.4939 5.92847
161 3 -2.57324 10.7376 4.56133
44 2 -1.3575 8.10344 5.45212
94 2 -3.16043 8.77554 2.54529
162 3 1.83529 9.32903 1.27834
160 3 -1.07911 11.9396 2.43959
167 3 -0.982282 10.7833 7.46783
118 1 -6.86028 11.7703 7.82898
258 2 -7.28719 12.2187 3.73127
51 2 -1.59244 7.66773 3.27163
7 4 -6.01092 10.3941 2.70473
253 2 -1.91517 12.0057 0.996165
170 3 0.933505 8.40365 6.09268
83 2 -0.388915 7.09565 4.62957
169 3 -0.145868 9.62469 3.90291
27 4 1.65601 7.40227 7.27608
29 4 0.950702 9.64493 5.08743
159 3 0.45291 6.84818 1.63111
166 3 -2.07859 8.34179 8.04056
14 4 0.273587 11.7088 7.20036
45 2 -2.91857 6.4703 6.65735
157 3 2.04614 6.3967 10.7952
54 2 2.75185 6.28288 15.4264
31 4 0.715994 10.152 10.8848
70 2 -3.02706 12.5655 11.5429
154 3 -0.52231 6.21699 10.6821
72 2 -5.29246 12.2443 11.987
237 4 -6.34162 11.6214 15.7542
63 2 -7.25614 12.3325 8.81599
132 1 1.363 8.81759 11.9762
71 2 -5.59069 11.3375 10.3778
121 1 -4.9128 12.1367 10.9524
43 2 -3.56048 8.01621 9.46586
10 4 -2.88937 8.79642 13.0394
11 4 -3.40599 10.9558 10.8792
28 4 -1.53259 9.8032 8.70581
30 4 -1.33479 10.6839 14.7506
46 2 -4.38015 7.96624 13.392
146 3 -1.67073 7.76002 12.6224
147 3 -3.26094 9.8238 11.8986
168 3 -3.02647 10.6831 9.39293
172 3 -2.3792 9.55562 14.3631
174 3 -1.16901 12.0149 13.8899
189 3 -6.23431 10.9929 14.2029
101 2 1.21652 9.19675 13.0427
175 3 -0.371329 9.52993 9.83609
100 2 0.624773 7.95373 11.7223
129 1 1.15175 6.63532 14.3526
267 2 0.327072 7.56113 14.2758
92 2 2.14164 6.79357 13.7425
173 3 0.0890143 9.94579 15.0984
164 3 0.700221 7.0851 8.47233
176 3 0.122444 11.3291 11.7521
5 4 -4.14049 6.693 10.2166
6 4 -1.66173 6.31072 11.7625
52 2 5.12223 4.60638 4.61753
134 1 6.51745 5.98039 4.07735
177 3 4.40415 5.55943 2.13966
106 2 6.60555 4.9635 3.55179
117 1 6.73929 1.85586 1.64288
60 2 6.06348 3.24797 2.72453
193 4 6.93803 1.11784 6.84363
270 2 13.6569 1.41749 8.28286
107 2 6.12771 5.88714 5.17711
257 1 11.249 3.25072 1.63395
247 2 11.1061 3.5088 2.69055
269 2 14.6929 -0.186159 7.49456
221 3 7.47934 1.89957 5.58865
195 4 11.9461 0.0704772 7.12658
148 3 7.66636 0.993737 1.23009
255 2 11.2413 1.6604 1.63515
194 4 8.52682 1.66554 4.28052
196 4 11.0821 2.64153 5.77144
197 4 9.91351 5.0223 7.69116
199 2 7.94766 2.64844 2.91728
220 3 8.65563 0.126909 3.83601
222 3 12.718 2.94865 5.25941
223 3 9.98897 2.38797 4.58021
224 3 11.1091 1.34912 6.73123
225 3 10.7257 4.05376 6.87161
219 3 12.9989 0.972868 3.74105
217 1 8.73616 6.04625 6.56076
212 2 8.24512 4.641 7.88836
218 3 7.80127 -0.112529 7.27716
216 1 13.7537 0.714905 7.36899
211 2 8.4974 5.456 5.61536
254 2 10.3276 3.61238 1.09891
265 2 7.77559 4.44178 0.907015
268 2 13.8326 1.30538 6.40511
262 2 10.6397 3.34032 12.0827
13 4 6.39326 2.30426 15.3948
248 2 6.96306 1.84589 13.7587
79 2 6.97359 3.58427 9.20266
73 2 7.10288 4.34391 14.087
122 1 7.59667 3.40048 14.6225
236 3 12.9692 -0.0795637 12.177
124 1 7.09745 2.88714 10.0874
49 2 9.10427 -0.408081 13.359
108 2 6.84401 5.86305 8.42325
78 2 6.82262 3.60908 11.0602
179 3 4.77044 6.10108 10.381
77 2 8.26868 2.58084 10.1987
226 3 10.5077 5.85473 8.86889
232 4 12.4664 1.66345 15.6021
239 2 8.96998 3.99798 12.1642
263 2 9.44957 2.24703 12.6755
240 1 9.60855 3.06237 11.9711
264 2 8.51119 2.98633 14.1479
238 2 9.43419 2.6244 10.902
233 4 11.6693 0.552312 12.8183
234 2 10.7154 1.39016 11.6195
235 3 11.942 1.49921 14.1199
229 2 14.187 0.309705 15.8772
244 3 10.7288 -0.599006 13.2591
251 2 14.4264 0.292658 9.23987
206 2 6.69986 2.08954 8.32818
271 3 7.24599 12.3806 0.961479
210 2 9.4932 6.93915 6.41506
178 3 4.13304 7.09289 4.39629
102 2 2.98951 12.5916 4.14462
250 2 2.82423 11.6398 5.80152
104 2 4.59373 11.1506 5.99619
32 4 4.72927 12.8374 3.74249
109 2 5.0857 6.63112 7.32135
133 1 3.91142 11.9995 5.73033
12 4 0.24846 12.7787 2.44364
103 2 5.70792 12.056 4.9993
98 2 3.21924 8.49174 4.24252
96 2 3.21102 10.4621 4.66262
97 2 2.32049 9.67671 3.07178
131 1 2.66992 9.52225 4.14709
163 3 1.4143 12.0753 1.62454
171 3 1.10185 11.1083 5.87341
182 3 5.68416 7.96949 2.14232
185 3 5.02841 11.9491 2.44915
36 4 6.68449 8.79402 1.0969
260 2 6.7724 10.6254 3.78659
37 4 5.74534 11.8428 0.986716
114 2 2.96246 9.35846 7.16344
135 1 5.96324 7.11871 7.77695
115 2 4.14644 7.93811 7.86219
137 1 3.09132 8.57366 7.96971
200 2 7.71476 6.44761 7.05552
56 2 6.63734 7.54045 6.97426
261 1 7.79868 11.0974 3.93967
62 2 7.38182 11.4196 7.17793
183 3 8.18981 9.15054 1.92838
259 2 8.21716 10.7487 4.98568
105 2 7.42855 6.58309 3.93473
33 4 5.0833 6.79248 3.08742
58 2 4.17298 10.2448 8.10593
39 4 7.7694 10.3005 13.274
186 3 3.5095 12.8283 8.47468
35 4 8.31379 7.60199 11.8808
184 3 5.91247 9.15658 15.7264
110 2 5.54803 8.4223 8.93969
116 2 2.81775 8.8368 8.99896
249 2 1.25202 11.3619 8.57392
188 3 8.1814 8.97254 12.5796
26 4 1.51347 10.0055 15.8142
88 2 3.1871 7.81312 13.2473
99 2 2.41813 8.62931 11.6009
34 4 5.99655 6.91331 9.83258
38 4 3.68593 11.4616 9.23434
40 4 5.95284 12.2062 11.2822
59 2 6.63246 9.71129 14.417
89 2 4.92604 7.46537 12.4438
90 2 4.1969 6.27449 13.7026
128 1 3.96036 7.03443 12.8927
187 3 2.17456 10.9781 9.76436
190 3 5.00094 11.3702 10.206
241 4 3.79979 11.2918 14.17
242 2 4.46493 10.3484 12.976
243 3 4.81206 11.7744 15.1859
245 3 2.71721 10.3156 14.8049
111 2 6.70417 7.3673 13.9591
191 3 6.88411 11.3112 12.3149
181 3 7.22044 7.31957 10.8608
136 1 7.10061 6.87199 14.8478
113 2 8.21552 6.60565 14.956
57 2 8.03798 6.45304 13.1092
180 3 9.75104 7.33121 11.0423
112 2 6.40813 6.03189 15.1391
16 4 -0.306208 12.5415 12.7085
ITEM: TIMESTEP
200
ITEM: NUMBER OF ATOMS
271
ITEM: BOX BOUNDS xy xz yz pp pp pp
-1.6850834864783959e-01 2.2137445770831533e+01 7.2167438257149428e+00
-8.0830004002260603e-01 1.3391755282591641e+01 3.4935964687144894e-03
6.5076705643294996e-01 1.5958832943567099e+01 -8.4834475743104976e-01
ITEM: ATOMS id type x y z
3 4 1.08717 2.01246 5.43432
227 4 1.37195 1.97326 0.829073
123 1 3.94655 3.48149 8.25827
55 2 5.41452 1.03953 4.28511
214 1 5.45235 0.185791 6.13688
18 4 3.76379 4.44542 1.12815
252 2 5.52698 0.592708 1.13819
125 1 2.44774 3.31698 1.5462
228 2 1.64382 2.23474 2.71517
75 2 3.04076 3.65131 7.53268
1 4 5.29996 1.6247 2.6755
203 2 3.24399 4.1187 4.46703
74 2 5.15112 2.85624 7.50987
149 3 3.11721 0.547376 7.63534
206 2 6.80886 2.21858 8.10191
50 2 3.59086 2.0958 2.24137
41 2 2.67298 2.35805 4.94348
139 3 1.13652 0.50955 5.69546
201 2 4.08499 3.6411 6.24078
204 2 4.79727 1.11326 5.97798
213 1 4.2563 3.66423 5.01973
246 2 4.5094 2.53313 4.67107
52 2 5.17687 4.37131 4.72215
134 1 6.59944 5.67376 3.88249
105 2 7.44261 6.35056 3.63697
177 3 4.31558 5.53699 2.14481
211 2 8.76594 5.55791 5.67645
106 2 6.66821 4.64787 3.4101
117 1 6.75672 1.90212 1.50282
212 2 8.35737 4.6764 7.76876
217 1 8.8978 6.17935 6.64289
60 2 6.05873 3.2202 2.61572
193 4 7.04621 1.13343 6.75044
107 2 6.36223 5.66428 4.99625
221 3 7.48581 1.84141 5.42136
148 3 7.79272 1.12016 1.1838
197 4 10.0131 5.04749 7.76836
199 2 7.63577 2.68413 2.88591
151 3 7.00782 0.34497 11.6506
17 4 6.07979 1.35217 10.8159
230 3 2.02726 -0.243852 15.8111
87 2 2.00106 1.65159 11.1527
127 1 1.93141 1.82064 12.4472
48 2 4.35826 4.4143 8.66557
152 3 4.86326 2.95236 15.4095
47 2 3.00883 -0.228942 10.5008
86 2 2.06489 0.901945 13.016
15 4 3.90511 1.54989 8.63083
158 3 3.31452 4.39835 12.062
23 4 3.47156 5.92568 11.3635
76 2 2.80191 2.64492 9.53774
156 3 4.7988 2.09517 11.7395
208 2 1.00503 -0.309954 10.5688
150 3 5.13554 0.987891 9.55268
81 2 1.9584 2.39853 15.0678
22 4 3.53864 2.79612 12.2982
53 2 3.24401 2.16089 13.8712
13 4 6.25898 2.20976 15.2399
112 2 6.9227 5.76064 15.626
248 2 6.75098 2.05059 13.5265
79 2 6.33448 3.38357 9.38835
73 2 6.87669 4.32931 14.3845
122 1 7.56312 3.40175 14.6541
124 1 7.09221 2.76243 9.98548
239 2 8.56831 3.71265 11.7468
78 2 7.60872 3.29969 10.9232
264 2 8.49225 3.40415 13.9673
226 3 10.3898 5.78998 9.10886
77 2 7.86543 2.21765 9.3962
108 2 6.76911 5.84454 8.28029
265 2 7.95778 3.39059 15.9852
61 2 8.85949 10.9469 8.12016
205 2 12.6345 12.8918 5.33861
253 2 13.1448 12.0797 0.967783
2 4 9.39514 12.7651 6.69083
7 4 8.99726 10.287 2.76778
9 4 11.071 10.2477 5.14714
258 2 7.78794 12.3533 3.51771
118 1 8.23121 11.893 7.84445
93 2 12.5018 9.67622 1.38696
260 2 6.77006 10.6857 3.62886
161 3 12.4104 10.6857 4.49492
142 3 9.59138 11.4088 1.60675
143 3 10.103 9.732 3.77482
144 3 11.1493 8.79345 6.11618
145 3 10.2333 11.5592 5.93362
271 3 7.14953 12.3502 0.891851
210 2 9.69384 7.00038 6.60497
33 4 5.08177 6.66385 3.2081
36 4 6.72971 8.79451 1.0749
259 2 8.14022 11.1755 4.93889
183 3 8.05725 9.15104 1.88947
62 2 7.40467 11.571 7.07235
261 1 7.76491 11.2341 3.87366
56 2 6.69344 7.87784 6.89344
200 2 7.82909 6.63926 7.12625
178 3 4.11766 7.12093 4.46952
109 2 5.09638 6.98222 7.27327
135 1 6.07376 7.41075 7.7216
182 3 5.6732 7.82826 2.29183
202 2 12.3665 12.9894 7.08688
5 4 10.9768 6.77082 10.2757
189 3 8.84928 10.8543 14.1494
174 3 13.8173 12.0436 13.8026
70 2 11.9204 12.3013 11.6657
172 3 12.6711 9.66863 14.2778
72 2 9.87713 12.313 12.2416
237 4 8.72742 11.4579 15.8354
63 2 7.78472 12.4477 8.8427
168 3 12.19 10.7034 9.41301
71 2 9.16228 11.4039 10.7217
121 1 10.011 12.1698 11.0849
128 1 4.03539 7.09349 12.7806
10 4 12.176 8.81602 13.0096
11 4 11.4022 10.8299 10.8449
147 3 11.6129 9.6615 11.872
46 2 10.9008 7.86262 13.6299
39 4 7.73249 10.2815 13.1908
35 4 8.33875 7.57635 11.8212
179 3 4.69876 6.17748 10.2859
180 3 9.82797 7.41001 11.2114
57 2 8.18982 6.55563 13.1901
113 2 8.4942 6.82343 14.9669
136 1 7.35929 6.74075 15.018
181 3 7.28959 7.11545 10.7859
191 3 6.86976 11.3972 12.3519
111 2 6.84186 7.12655 14.0595
184 3 5.88076 9.11634 15.6636
110 2 5.7133 8.45591 8.70745
188 3 8.16575 9.07919 12.3361
34 4 6.04229 6.84681 9.73941
59 2 6.62148 9.59547 14.3111
89 2 5.04385 7.49619 12.5731
90 2 4.00039 6.46348 13.7266
268 2 13.7929 1.28536 6.58976
254 2 10.3704 3.48309 1.44723
216 1 13.7398 0.681389 7.51093
218 3 7.92553 -0.0581451 7.4114
219 3 12.9667 1.03057 3.52197
225 3 10.7339 4.13148 6.78491
224 3 11.0288 1.30051 6.78451
45 2 12.1918 6.37571 6.53571
223 3 9.94511 2.50272 4.61057
257 1 11.4325 3.60925 1.80619
247 2 11.4434 3.70254 2.92777
269 2 14.6424 -0.0340019 7.63639
222 3 12.5559 2.91377 5.2467
195 4 11.8908 0.0926562 7.27654
220 3 8.54801 0.167152 3.81198
255 2 11.1831 1.75673 1.52388
194 4 8.51028 1.75264 4.20508
196 4 11.0147 2.69362 5.81427
120 1 13.6805 5.01485 7.1446
256 2 12.1132 4.58497 1.1733
84 2 13.797 5.17174 3.37619
68 2 14.3375 5.21029 6.05223
21 4 17.8848 5.8494 4.80715
231 3 14.374 2.35295 0.719398
198 2 13.1683 3.43695 2.64687
82 2 12.9434 6.43009 4.9974
67 2 12.5865 4.65851 6.97054
155 3 16.6392 5.99045 3.79416
69 2 13.6417 5.92414 7.82418
192 4 13.517 2.45076 4.06366
165 3 17.4433 6.02538 6.38659
19 4 15.4449 5.96521 2.822
4 4 15.1645 3.9182 7.72778
138 3 15.0346 2.45522 4.24785
80 2 16.0677 4.39848 2.07512
140 3 15.738 2.89954 6.67206
229 2 13.9911 1.22266 0.758626
207 2 13.585 3.41418 8.25864
270 2 13.6526 1.42537 8.4358
262 2 10.5254 3.81255 11.6557
251 2 14.525 0.304275 9.32532
244 3 10.6458 -0.564774 13.5248
266 2 17.2432 4.0145 15.7608
235 3 11.9075 1.68091 14.159
234 2 10.6006 1.45881 11.7823
236 3 12.9059 0.00700304 12.2439
233 4 11.5515 0.630571 12.9805
49 2 8.97785 -0.263425 13.4587
238 2 9.63247 2.27083 11.0116
240 1 9.63452 3.15909 11.8615
263 2 9.6812 2.8108 12.9572
232 4 12.3863 1.68676 15.7014
66 2 13.6548 5.02611 13.076
141 3 11.9624 5.99951 11.2787
42 2 15.6985 4.0589 13.1863
64 2 14.3041 2.76746 12.9904
20 4 15.9091 6.08861 9.83376
85 2 16.1067 2.5719 12.803
119 1 14.6486 3.80111 13.5006
65 2 14.5739 3.62953 14.6226
215 1 15.0049 0.163237 10.3989
209 2 14.7996 1.09912 11.0649
91 2 15.6238 5.49526 13.8473
153 3 16.0333 4.63834 8.889
154 3 14.5646 6.15624 10.7454
94 2 11.9447 8.41508 2.78454
137 1 18.2043 8.63954 7.6392
115 2 19.3197 8.16695 7.60104
102 2 18.1674 12.772 4.13973
250 2 17.9238 11.8358 5.75191
104 2 19.6531 11.1832 6.01102
32 4 19.9138 12.8107 3.73221
114 2 17.9867 9.55656 7.00467
133 1 19.0538 12.0763 5.69569
12 4 15.5097 12.8774 2.35884
103 2 20.8785 12.2976 5.15165
98 2 18.2249 8.50133 4.35381
96 2 18.238 10.5439 4.74618
97 2 17.4113 9.82014 3.09438
131 1 17.662 9.58197 4.2286
163 3 16.7704 12.0584 1.76877
171 3 16.2542 11.2512 6.07816
37 4 20.7868 11.7785 1.00102
185 3 20.1571 11.7766 2.50838
126 1 13.7867 6.60637 4.304
44 2 13.7471 8.13889 5.52594
14 4 15.4653 11.7138 7.38739
166 3 12.6127 8.24239 8.18425
159 3 15.356 7.04581 1.66395
29 4 15.992 9.70141 5.02172
27 4 16.7142 7.47305 7.18034
169 3 14.7403 9.7628 3.96783
83 2 14.7331 6.87946 4.94153
170 3 15.9715 8.36531 6.14099
8 4 12.3922 8.06568 6.64337
25 4 13.4652 10.4544 3.3698
51 2 13.4933 7.52094 3.5659
24 4 16.3927 7.88224 0.660139
95 2 13.7159 8.32711 1.98272
167 3 14.0822 10.8356 7.57518
160 3 13.9872 12.0041 2.40979
162 3 16.8937 9.24168 1.09955
130 1 12.8323 9.008 2.28405
58 2 19.4088 10.0546 8.29835
16 4 14.7333 12.6257 12.6602
186 3 18.8683 12.5542 8.50734
245 3 17.7648 10.2907 14.6683
243 3 19.8552 11.715 15.1811
242 2 19.6671 10.45 12.9206
116 2 17.7985 8.77819 8.77147
249 2 16.6241 11.4085 8.58941
241 4 18.8301 11.275 14.1209
26 4 16.5628 10.1 15.8134
88 2 18.3935 7.97815 12.8092
99 2 17.5202 8.76158 11.511
190 3 20.1285 11.3739 10.4709
38 4 18.9407 11.2749 9.34379
40 4 21.0563 12.3562 11.4033
187 3 17.4672 10.8423 9.82531
146 3 13.3772 7.79951 12.5358
157 3 17.1833 6.4472 10.7805
6 4 13.423 6.27291 11.8773
54 2 17.6102 5.97213 15.2917
176 3 15.3195 11.5085 11.7094
164 3 15.9789 7.14224 8.58942
173 3 15.1263 10.0523 15.1075
92 2 17.2124 6.75884 13.5652
267 2 15.3811 7.51413 13.945
129 1 16.157 6.60537 14.1411
100 2 15.5746 8.21423 11.8083
175 3 14.6198 9.77733 9.79371
101 2 16.5757 9.41243 13.0861
31 4 15.8945 10.3008 10.8758
30 4 13.7201 10.7042 14.7257
132 1 16.4919 8.99387 12.0109
28 4 13.4431 9.94751 8.72729
43 2 12.0146 7.98369 9.63447
ITEM: TIMESTEP
300
ITEM: NUMBER OF ATOMS
271
ITEM: BOX BOUNDS xy xz yz pp pp pp
-1.6850834864783959e-01 2.2130769915548942e+01 7.2100679704323518e+00
-8.0830004002260603e-01 1.3391755282591641e+01 3.4935964687144894e-03
6.5076705643294996e-01 1.5958832943567099e+01 -8.4834475743104976e-01
ITEM: ATOMS id type x y z
108 2 6.69066 5.77571 8.08877
227 4 1.41565 1.96459 0.937368
123 1 3.73476 3.38571 8.2272
55 2 5.70148 0.75626 4.10006
214 1 5.60633 0.0229644 5.96007
18 4 3.7184 4.40723 1.0845
252 2 5.50912 0.773406 1.10242
125 1 2.40733 3.40088 1.57946
228 2 1.86751 2.17905 2.80016
75 2 2.91964 3.6763 7.5576
1 4 5.24888 1.60926 2.69488
203 2 2.99815 4.15666 4.50513
74 2 4.90157 2.55742 7.55107
149 3 3.08668 0.459453 7.57615
206 2 6.71871 2.09241 8.03982
50 2 3.54323 2.18659 2.47436
41 2 2.54702 2.48584 4.78244
139 3 1.14013 0.495552 5.71649
201 2 3.94276 3.55816 6.19558
204 2 4.82482 0.838433 5.67947
213 1 4.10307 3.69631 5.00334
246 2 4.31004 2.69665 4.45488
52 2 5.05374 4.42794 4.77734
134 1 6.49613 5.65155 4.16183
105 2 7.39265 5.94862 3.61643
177 3 4.40824 5.3089 2.17384
211 2 8.79495 5.80415 5.57723
106 2 6.43701 4.48852 4.26947
117 1 6.75602 2.03702 1.54335
212 2 8.32557 4.83438 7.73482
217 1 8.95065 6.25209 6.56289
60 2 6.10695 3.1831 2.72276
193 4 7.07927 1.05328 6.65258
107 2 6.30643 6.22117 5.17199
221 3 7.59795 1.88065 5.47225
148 3 7.77612 1.1487 1.30528
197 4 10.0071 5.14792 7.76804
199 2 7.89072 2.80702 2.85356
33 4 5.11041 6.49872 3.11017
151 3 7.11855 0.474624 11.8331
17 4 6.04127 1.36851 10.8643
230 3 2.05844 -0.190505 15.717
87 2 1.95882 1.58821 11.4167
127 1 2.00722 1.87248 12.6712
48 2 4.13857 4.37072 8.59428
152 3 4.82271 2.74803 15.2964
47 2 2.78688 -0.312815 10.306
86 2 2.14586 0.947525 13.3755
15 4 4.00512 1.30323 8.51937
158 3 3.53543 4.35677 12.0566
23 4 3.53609 5.85144 11.3822
76 2 2.97645 2.55515 9.5292
156 3 4.91661 2.02479 11.8147
208 2 0.84284 -0.365938 10.5334
150 3 5.10927 0.601097 9.5969
81 2 2.02671 2.35829 15.1592
22 4 3.64793 2.77129 12.3236
53 2 3.35558 2.35826 14.0276
13 4 6.23295 2.12346 15.1537
112 2 7.41808 5.72429 15.3712
248 2 6.70592 1.75337 13.5233
79 2 6.39548 3.17656 9.14052
73 2 6.93538 4.07688 14.0697
122 1 7.62956 3.17828 14.4659
124 1 7.1063 2.68141 9.90723
239 2 8.67213 4.01383 11.2281
78 2 7.51585 3.43153 10.6827
264 2 8.63115 3.08463 13.8618
226 3 10.352 5.79395 9.10672
77 2 7.85188 2.0176 9.4509
179 3 4.77266 5.91488 10.236
265 2 7.94081 3.44424 15.6623
61 2 8.78752 11.0153 8.0956
205 2 13.2603 12.6491 5.11316
253 2 13.3456 12.3913 0.882922
2 4 9.38531 12.8998 6.71568
7 4 8.9376 10.3792 2.69701
9 4 10.9083 10.2147 5.07893
258 2 7.27719 12.2299 3.29462
118 1 8.08806 11.9184 7.85712
182 3 5.85033 7.64152 2.11773
260 2 6.84036 10.4429 3.74983
161 3 12.3227 10.7158 4.3703
142 3 9.61677 11.5008 1.58965
143 3 9.86487 9.81614 3.90877
144 3 11.1211 8.97588 6.12782
145 3 10.1719 11.6483 5.89447
271 3 7.15954 12.2834 0.957767
210 2 9.85085 7.09136 6.6084
202 2 12.5418 12.7807 6.87737
36 4 6.67246 8.70802 1.2207
259 2 7.94874 11.4218 4.87567
183 3 7.96134 9.32891 1.8692
62 2 7.27726 11.5991 7.16644
261 1 7.63209 11.2631 3.80393
56 2 6.88557 7.99987 7.56701
200 2 7.89536 6.70284 7.1063
178 3 4.00392 6.91216 4.24524
109 2 5.44976 7.18495 6.88141
135 1 6.08474 7.29371 7.78629
93 2 12.6306 9.75156 1.26426
5 4 11.0305 6.5488 10.3433
189 3 8.83796 10.7027 14.2352
174 3 13.7333 12.1634 13.7123
70 2 11.703 12.4937 11.5046
172 3 12.7261 9.73555 14.321
72 2 9.50806 12.2266 11.9411
237 4 8.67252 11.4115 15.7173
63 2 7.62758 12.4652 8.79944
168 3 12.0525 10.736 9.4265
71 2 9.24228 11.1653 10.2906
121 1 9.87886 12.0645 10.909
89 2 4.9839 7.54435 12.5167
10 4 12.2066 8.70714 13.158
11 4 11.43 10.8959 10.8974
147 3 11.5964 9.71322 12.0025
46 2 10.9807 8.01769 13.9912
39 4 7.65102 10.2292 13.1898
35 4 8.30551 7.70713 11.7535
90 2 4.06084 6.34011 13.6207
180 3 9.66817 7.14679 11.1327
57 2 7.92102 6.71767 13.1505
113 2 8.4009 7.21647 14.8778
136 1 7.39835 6.76224 15.0582
181 3 7.19235 7.19343 10.7311
191 3 6.95542 11.5722 12.5238
111 2 6.51638 6.90684 14.3495
184 3 5.84961 8.99201 15.6298
110 2 5.33568 8.25252 9.08893
188 3 8.21114 9.23376 12.0666
34 4 6.03706 6.6807 9.71361
59 2 6.51793 9.35907 14.159
268 2 13.8606 1.51569 6.53334
254 2 10.5054 3.94856 1.05893
216 1 13.8164 0.867726 7.50449
218 3 8.0081 -0.0806826 7.3334
219 3 12.9403 0.947772 3.48505
225 3 10.7791 4.05343 7.01474
224 3 11.0575 1.25272 6.78249
3 4 16.0831 2.01142 5.5172
223 3 10.0434 2.67451 4.5438
257 1 11.5024 3.79674 1.67033
247 2 11.319 4.04469 2.77164
269 2 14.7032 0.091605 7.59285
222 3 12.5533 2.84213 5.19257
195 4 12.0315 0.106338 7.1756
220 3 8.85719 0.393338 3.65283
255 2 11.4127 1.93489 1.77414
194 4 8.63621 1.88109 4.23739
196 4 11.1043 2.59081 5.8519
120 1 13.6074 5.0421 7.24005
256 2 12.409 4.6592 1.12006
84 2 13.7574 5.13146 3.3205
68 2 14.2025 5.23966 6.20042
21 4 17.8089 5.87958 4.81252