ITEM: TIMESTEP
0
ITEM: NUMBER OF ATOMS
271
ITEM: BOX BOUNDS xy xz yz pp pp pp
-8.0241295096634282e+00 1.4920701945116591e+01 -7.8556211610155886e+00
-8.0830004002260603e-01 1.3391755282591641e+01 3.4935964687144894e-03
6.5076705643294996e-01 1.5958832943567099e+01 -8.4834475743104976e-01
ITEM: ATOMS id type x y z
120 1 -1.64604 4.98187 7.32664
227 4 1.49276 2.10548 0.929568
84 2 -1.33538 5.14589 3.22991
68 2 -0.987489 5.01029 6.21537
214 1 5.45399 0.134061 6.11812
45 2 -2.86582 6.35749 6.6679
252 2 5.40987 0.639426 1.3514
67 2 -2.7368 4.5499 7.17582
69 2 -1.52243 5.91273 7.96919
75 2 2.78802 4.02754 7.73472
192 4 -1.59839 2.48291 3.96091
4 4 -0.237172 3.75289 7.95198
138 3 0.107993 2.64743 4.23055
140 3 0.436788 2.94374 6.79636
3 4 0.946815 2.17887 5.46093
21 4 2.80377 5.86215 4.97322
41 2 2.58889 2.63999 5.2562
139 3 1.02617 0.415952 5.63724
201 2 3.96712 3.79607 6.42035
204 2 4.67474 0.864553 5.83965
213 1 4.20742 3.77442 5.13608
246 2 4.45759 2.54704 4.78917
50 2 3.57885 2.40944 2.72586
149 3 2.9029 0.517967 7.64718
74 2 4.78411 2.77264 7.45271
80 2 0.887327 4.25065 2.32057
203 2 3.23919 4.17237 4.49685
1 4 5.17492 1.59457 2.87982
19 4 0.381343 5.83855 3.02654
165 3 2.61381 6.06169 6.52535
228 2 1.74181 2.42117 2.76652
125 1 2.49095 3.54594 1.6403
155 3 1.43605 5.86954 4.20701
18 4 3.85727 4.51465 1.17121
55 2 5.41796 0.530852 4.18939
198 2 -1.98747 3.39804 2.58559
230 3 2.21677 0.772183 0.667521
82 2 -2.28806 6.48692 4.6998
207 2 -1.89414 3.30158 8.29697
66 2 -1.35007 4.89257 12.8898
141 3 -3.1685 5.76692 11.0267
42 2 0.423783 4.13162 12.5133
64 2 -0.754398 2.97954 13.2322
119 1 -0.354438 4.07227 13.2258
48 2 4.08449 4.32715 8.89893
152 3 4.84447 2.93196 15.4744
47 2 3.10019 -0.238153 10.6703
65 2 -0.0181992 4.32285 14.253
215 1 -0.0906036 -0.0623084 10.2359
209 2 -0.0440979 0.873746 10.8562
23 4 3.48767 5.96127 11.4283
76 2 2.90166 2.57595 9.63109
91 2 0.579305 5.72415 13.845
229 2 -0.743696 0.350068 15.6645
153 3 0.510204 4.27188 9.29729
266 2 2.12835 4.08292 15.7935
22 4 3.68003 2.93954 12.3411
53 2 3.38492 2.38515 13.9569
81 2 2.08653 2.46093 15.0889
150 3 5.02175 0.921661 9.55761
156 3 4.87882 2.12822 11.7776
158 3 3.41233 4.48353 12.2909
15 4 3.86958 1.47212 8.54743
86 2 2.07826 1.06779 13.1221
127 1 2.05122 2.01558 12.5232
87 2 2.04624 1.76012 11.34
85 2 1.12774 2.72237 12.7705
20 4 0.660397 5.93274 9.79546
231 3 -0.612073 1.4837 15.8618
17 4 6.14685 1.47293 10.7814
123 1 3.58762 3.52501 8.34192
61 2 -6.15591 10.9304 7.86328
205 2 -2.22926 12.8275 5.30346
126 1 -1.34233 6.69648 4.07716
2 4 -5.77533 12.8596 6.53238
8 4 -2.7956 8.10418 6.567
9 4 -4.06309 10.2881 5.08185
25 4 -1.4246 10.4666 3.43766
24 4 1.45084 7.844 0.768969
93 2 -2.62026 10.0729 1.4984
95 2 -1.25626 8.60061 1.56989
130 1 -2.08423 9.17966 2.14488
142 3 -5.42763 11.7091 1.55337
143 3 -4.86439 9.88004 3.7607
144 3 -4.12196 8.87709 6.08902
145 3 -4.77367 11.8675 5.74995
161 3 -2.53304 10.5757 4.6267
44 2 -1.60614 8.18401 5.39108
94 2 -2.83754 8.51398 2.72847
162 3 1.78394 9.35321 1.15218
160 3 -1.27522 12.3274 2.69981
167 3 -0.861623 10.7695 7.44174
118 1 -6.90136 11.7783 7.59375
202 2 -2.63884 12.8519 7.13135
51 2 -1.56418 7.61369 3.34544
7 4 -6.06097 10.4261 2.62873
253 2 -1.62583 12.228 1.09502
170 3 0.986417 8.36265 6.16308
83 2 -0.438349 6.95605 4.84203
169 3 -0.12537 9.76431 4.00556
27 4 1.69308 7.45519 7.30146
29 4 1.03336 9.57256 5.08363
159 3 0.56668 6.90598 1.73075
166 3 -2.24759 8.31292 7.94538
258 2 -7.23436 12.2637 3.67779
157 3 2.09723 6.22085 10.6651
54 2 2.72251 6.25137 15.2321
31 4 0.724521 10.2274 10.8382
70 2 -3.12771 12.599 11.4743
154 3 -0.62253 6.26553 10.7296
72 2 -5.72465 12.0415 11.8834
237 4 -6.34005 11.5545 15.7844
63 2 -7.25676 12.3226 8.58433
132 1 1.28585 8.83508 11.9158
71 2 -5.4177 11.4635 9.94318
121 1 -4.98313 12.0406 10.9857
43 2 -3.36478 7.99673 9.77169
10 4 -2.84492 8.80865 13.1212
11 4 -3.3868 10.9663 10.8788
28 4 -1.63541 9.86723 8.60431
30 4 -1.23732 10.702 14.8435
46 2 -4.2637 8.09584 13.7322
146 3 -1.90435 7.61469 12.6404
147 3 -3.12413 9.85697 11.9524
168 3 -2.83528 10.6884 9.43006
172 3 -2.36547 9.60215 14.4792
174 3 -1.23362 11.9989 13.8257
189 3 -6.31826 11.0241 14.1866
101 2 1.09205 9.22319 12.9675
175 3 -0.395684 9.64136 9.71936
100 2 0.422117 8.06591 11.553
129 1 1.08239 6.73995 14.2531
267 2 0.484753 7.68075 14.1213
92 2 2.15508 6.94367 13.7569
173 3 0.20444 9.99562 14.9164
164 3 0.672886 6.87094 8.40256
176 3 0.151061 11.3529 11.7441
5 4 -4.24674 6.65678 10.2014
6 4 -1.8131 6.17489 11.7453
208 2 -6.95121 12.7734 10.2173
16 4 -0.384932 12.5048 12.5927
52 2 5.10172 4.45581 4.80716
134 1 6.4916 5.8533 4.09942
177 3 4.44281 5.56 2.18709
106 2 6.48654 4.72272 3.89068
117 1 6.66969 1.97855 1.74751
60 2 6.1462 3.15949 3.07826
193 4 7.04791 0.986212 6.67937
206 2 6.76123 2.15561 8.06242
107 2 6.19538 6.12336 5.23043
257 1 11.3788 3.19507 1.58264
247 2 11.3163 3.12872 2.7307
269 2 14.5267 -0.111064 7.39815
221 3 7.59819 1.95647 5.51749
195 4 11.9716 -0.0425178 7.16687
148 3 7.70859 1.18798 1.40032
255 2 11.7136 1.28279 1.32168
194 4 8.65569 1.76405 4.22986
196 4 11.1438 2.7355 5.73949
197 4 9.83998 5.1475 7.58379
199 2 7.90143 2.75938 2.92317
220 3 8.75544 0.182645 3.88142
222 3 12.6124 3.20552 5.14124
223 3 10.0563 2.61077 4.43869
224 3 11.1699 1.25308 6.51085
225 3 10.7201 4.02699 6.90034
219 3 13.0921 0.942913 3.87449
217 1 8.56365 5.96202 6.46251
212 2 8.22847 4.55658 7.82926
218 3 7.83161 -0.214386 7.23727
216 1 13.7513 0.709923 7.40533
211 2 8.30714 5.35194 5.58933
254 2 10.337 3.17231 1.08314
265 2 7.81055 4.6231 0.702059
268 2 13.8523 1.37627 6.55758
105 2 7.48485 6.40923 3.80983
256 2 11.9911 4.1972 1.30851
262 2 10.6757 3.40974 11.8092
13 4 6.36338 2.27021 15.4928
248 2 7.02491 1.62116 13.9635
79 2 6.58134 3.33079 9.15049
73 2 7.18269 4.08982 13.9557
122 1 7.68452 3.27156 14.6441
151 3 6.98319 0.309098 11.581
124 1 7.25272 2.77344 9.89359
112 2 6.85232 5.75253 15.1624
108 2 6.64999 5.66015 8.44657
78 2 7.55333 3.39018 10.8331
251 2 14.5829 0.128397 9.18971
77 2 8.03266 2.16972 9.39007
226 3 10.35 5.87396 8.88567
232 4 12.4999 1.4346 15.4915
239 2 8.89471 4.00077 11.8212
263 2 9.45962 2.60822 13.0797
240 1 9.5692 3.03262 11.9988
264 2 8.72934 2.91297 14.1907
238 2 9.33809 2.22009 11.2234
233 4 11.5159 0.475913 12.8028
234 2 10.7877 1.50738 11.5854
235 3 11.9191 1.58305 14.0523
236 3 12.8678 -0.000493411 12.1041
49 2 9.01553 -0.368818 13.0057
244 3 10.5765 -0.640683 13.3226
270 2 13.6152 1.2846 8.41748
271 3 7.22584 12.5654 1.09088
210 2 9.35508 6.88253 6.21172
178 3 4.06982 7.10423 4.32621
102 2 3.12609 12.7048 4.46425
250 2 2.93589 11.5518 5.9057
104 2 4.77566 11.0232 6.11259
32 4 4.8452 12.7808 3.8378
109 2 4.94647 6.80882 7.30302
133 1 4.08708 11.8873 5.87017
12 4 0.233861 12.8517 2.55888
103 2 5.85663 12.029 5.05952
98 2 3.20876 8.55869 4.14472
96 2 3.26117 10.4373 4.44908
97 2 2.26894 9.60991 2.95256
131 1 2.63667 9.57192 4.07828
163 3 1.3803 12.024 1.74932
171 3 1.29061 11.155 5.9467
182 3 5.9064 7.95574 2.17112
185 3 5.01272 11.8545 2.51344
36 4 6.67257 8.84072 1.09279
260 2 6.66617 10.7465 3.51873
37 4 5.74363 11.9442 0.976706
114 2 2.92416 9.51825 7.43928
135 1 5.90403 7.12714 7.82013
115 2 4.13933 8.00761 7.90085
137 1 3.07521 8.60732 8.08803
200 2 7.55695 6.37528 7.0184
56 2 6.56166 7.72673 7.13567
261 1 7.7209 11.1634 3.7712
62 2 7.42424 11.3414 6.85248
183 3 8.16119 9.39142 1.53313
259 2 8.2016 10.7992 4.79507
14 4 0.424695 11.6142 7.2625
33 4 5.10448 6.71238 3.14901
58 2 4.36638 10.0974 8.17906
39 4 7.81739 10.2078 13.1687
186 3 3.59629 12.756 8.55815
35 4 8.40743 7.64214 11.8656
184 3 5.94637 9.28074 15.671
110 2 5.56217 8.44481 8.90502
116 2 2.84273 8.67949 9.16382
249 2 1.39157 11.332 8.63653
188 3 8.55354 9.14257 12.3338
26 4 1.54713 10.1192 15.8318
88 2 3.32427 8.2029 12.8088
99 2 2.37084 8.42858 11.8222
34 4 6.03908 6.81457 9.8129
38 4 3.77662 11.3593 9.34492
40 4 5.98607 12.2416 11.3558
59 2 6.6561 9.56269 14.2192
89 2 4.98283 7.48663 12.4265
90 2 3.91133 6.69999 13.7883
128 1 3.89642 7.24447 12.7956
187 3 2.3488 10.9122 9.8769
190 3 4.93597 11.4625 10.3669
241 4 3.80764 11.297 14.1652
242 2 4.7952 10.4349 13.0835
243 3 4.80714 11.9712 15.183
245 3 2.7123 10.3363 14.7084
111 2 6.69426 7.34943 14.111
191 3 6.91946 11.194 12.1881
181 3 7.14599 7.26012 10.8691
136 1 7.18366 6.81005 14.9587
113 2 8.31777 6.96634 14.9704
57 2 8.23503 6.66892 13.2661
180 3 9.61851 7.14678 11.1324
179 3 4.73671 6.18492 10.4259
ITEM: TIMESTEP
100
ITEM: NUMBER OF ATOMS
271
ITEM: BOX BOUNDS xy xz yz pp pp pp
-8.0241295096634282e+00 1.4920701945116591e+01 -7.8556211610155886e+00
-8.0064600707903821e-01 1.3391755282591641e+01 3.4935964687144894e-03
6.5076705643294996e-01 1.5958832943567099e+01 -8.4069072448748194e-01
ITEM: ATOMS id type x y z
120 1 -1.49132 5.16704 7.26069
227 4 1.42947 2.06151 1.05286
84 2 -1.12363 5.05668 3.2617
68 2 -0.851828 5.40851 6.2334
214 1 5.36324 0.343662 6.12337
207 2 -1.77935 3.49449 8.14507
252 2 5.37142 0.697847 1.20445
67 2 -2.55575 4.76386 7.02053
69 2 -1.40297 6.00925 8.08151
75 2 3.03276 3.80566 7.65946
192 4 -1.58997 2.43184 4.00169
4 4 -0.0815123 3.90819 7.74347
138 3 0.0880006 2.50456 4.2689
140 3 0.571687 2.88236 6.79724
3 4 1.14278 2.04723 5.53826
21 4 2.81972 5.92171 4.97265
41 2 2.64232 2.65214 5.05074
139 3 1.14335 0.376389 5.63377
201 2 4.05716 3.9035 6.14839
204 2 4.46999 0.928668 5.81737
213 1 4.23029 3.86633 4.94472
246 2 4.48392 2.72179 4.64525
50 2 3.56156 2.38084 2.56144
149 3 2.97517 0.587007 7.66764
74 2 4.88894 3.22567 7.49603
80 2 0.750321 4.23116 2.18226
203 2 3.18857 4.21977 4.30917
1 4 5.1903 1.65043 2.76001
19 4 0.442318 5.9099 2.86047
165 3 2.46048 6.10291 6.59993
228 2 1.83549 2.14275 2.82829
125 1 2.40076 3.5358 1.70508
155 3 1.52108 5.96784 4.04725
18 4 3.78038 4.50397 1.1478
55 2 5.17886 0.66166 4.21089
198 2 -2.11778 3.34534 2.6346
231 3 -0.728523 2.23219 0.867518
82 2 -2.06607 6.43639 4.63211
123 1 3.9463 3.49799 8.18674
202 2 5.07808 -0.245402 7.12387
256 2 -2.60282 4.27537 0.829246
66 2 -1.20295 4.98009 12.8663
141 3 -3.12094 6.01474 11.1233
42 2 0.725568 4.2295 12.9684
64 2 -0.656234 3.03329 12.7694
119 1 -0.35464 3.93178 13.2477
48 2 4.22764 4.19247 9.07365
152 3 4.79813 2.88594 15.5217
47 2 3.10526 -0.228468 10.412
65 2 -0.347323 3.7741 14.3427
215 1 -0.192814 0.111033 10.3025
209 2 -0.275763 1.06443 11.0324
23 4 3.46548 5.93204 11.3699
76 2 2.75995 2.5306 9.54194
91 2 0.589958 5.57877 13.9693
208 2 0.915364 -0.332648 10.275
153 3 0.728312 4.33464 9.04502
266 2 2.07633 4.10199 15.8575
22 4 3.65674 2.85603 12.2239
53 2 3.26223 2.18667 13.8145
81 2 1.88605 2.441 15.1866
150 3 5.08221 0.980328 9.39747
156 3 4.94151 2.32678 11.6074
158 3 3.47785 4.42984 11.9772
15 4 3.83582 1.59258 8.56246
86 2 2.03076 0.883095 12.9359
127 1 2.01172 1.90548 12.3806
87 2 2.00693 1.72214 11.1186
85 2 1.10742 2.61995 12.6835
20 4 0.818572 6.03804 9.78015
230 3 2.00567 -0.0554886 15.6698
17 4 5.91181 1.54727 10.7233
151 3 6.82192 0.222177 11.8
61 2 -6.1926 10.9703 8.18738
205 2 -2.1396 12.8516 5.28216
126 1 -1.22271 6.78572 4.00271
2 4 -5.71603 12.8218 6.67312
8 4 -2.61554 8.11195 6.65076
9 4 -4.05929 10.2726 5.1367
25 4 -1.41589 10.4393 3.48284
24 4 1.32822 7.90689 0.888802
93 2 -2.56887 10.0554 1.40924
95 2 -1.51022 8.52341 1.71814
130 1 -2.26954 9.2568 2.12854
142 3 -5.47478 11.5367 1.59701
143 3 -4.8298 9.72132 3.77268
144 3 -3.87544 8.82753 6.12889
145 3 -4.84226 11.4965 5.92847
161 3 -2.56779 10.7395 4.56133
44 2 -1.35334 8.10585 5.45212
94 2 -3.15601 8.77649 2.54529
162 3 1.83995 9.32935 1.27834
160 3 -1.07311 11.9405 2.43959
167 3 -0.976721 10.7867 7.46783
118 1 -6.85422 11.7739 7.82898
258 2 -7.28101 12.2202 3.73127
51 2 -1.58855 7.66904 3.27163
7 4 -6.00569 10.3951 2.70473
253 2 -1.90918 12.0059 0.996165
170 3 0.937838 8.40637 6.09268
83 2 -0.385277 7.09764 4.62957
169 3 -0.140986 9.62632 3.90291
27 4 1.65987 7.40558 7.27608
29 4 0.955627 9.64715 5.08743
159 3 0.456341 6.84867 1.63111
166 3 -2.07423 8.34548 8.04056
14 4 0.279602 11.7121 7.20036
45 2 -2.91519 6.4733 6.65735
157 3 2.0496 6.40177 10.7952
54 2 2.75538 6.29027 15.4264
31 4 0.721334 10.1571 10.8848
70 2 -3.02049 12.5709 11.5429
154 3 -0.518944 6.22201 10.6821
72 2 -5.28604 12.25 11.987
237 4 -6.33541 11.629 15.7542
63 2 -7.24977 12.3366 8.81599
132 1 1.3677 8.82325 11.9762
71 2 -5.58477 11.3424 10.3778
121 1 -4.90647 12.1419 10.9524
43 2 -3.55625 8.02062 9.46586
10 4 -2.88465 8.80262 13.0394
11 4 -3.40025 10.9609 10.8792
28 4 -1.52748 9.80723 8.70581
30 4 -1.32908 10.6909 14.7506
46 2 -4.37583 7.97261 13.392
146 3 -1.66654 7.76601 12.6224
147 3 -3.25574 9.82943 11.8986
168 3 -3.02091 10.6874 9.39293
172 3 -2.37407 9.56247 14.3631
174 3 -1.16266 12.0216 13.8899
189 3 -6.22846 10.9997 14.2029
101 2 1.22144 9.20295 13.0427
175 3 -0.36633 9.53452 9.83609
100 2 0.629036 7.95927 11.7223
129 1 1.15543 6.64217 14.3526
267 2 0.33121 7.56794 14.2758
92 2 2.14538 6.80011 13.7425
173 3 0.0943675 9.95301 15.0984
164 3 0.70396 7.08901 8.47233
176 3 0.128396 11.3346 11.7521
5 4 -4.1369 6.69778 10.2166
6 4 -1.65829 6.31628 11.7625
52 2 5.12462 4.60837 4.61753
134 1 6.52051 5.9821 4.07735
177 3 4.40695 5.56018 2.13966
106 2 6.60809 4.96495 3.55179
117 1 6.74023 1.85636 1.64288
60 2 6.06514 3.24901 2.72453
193 4 6.93874 1.12094 6.84363
270 2 13.6578 1.4213 8.28286
107 2 6.13076 5.8894 5.17711
257 1 11.2507 3.25121 1.63395
247 2 11.1079 3.50982 2.69055
269 2 14.693 -0.182737 7.49456
221 3 7.4804 1.90204 5.58865
195 4 11.9463 0.0737151 7.12658
148 3 7.66685 0.994027 1.23009
255 2 11.2422 1.66089 1.63515
194 4 8.52773 1.66736 4.28052
196 4 11.0835 2.64409 5.77144
197 4 9.91619 5.02582 7.69116
199 2 7.94903 2.64958 2.91728
220 3 8.65576 0.128502 3.83601
222 3 12.7196 2.95096 5.25941
223 3 9.99025 2.38993 4.58021
224 3 11.1099 1.35216 6.73123
225 3 10.7279 4.05687 6.87161
219 3 12.9994 0.974413 3.74105
217 1 8.73932 6.04921 6.56076
212 2 8.24762 4.64462 7.88836
218 3 7.80137 -0.109216 7.27716
216 1 13.7542 0.718264 7.36899
211 2 8.50024 5.45848 5.61536
254 2 10.3294 3.6126 1.09891
265 2 7.7778 4.44191 0.907015
268 2 13.8334 1.30825 6.40511
262 2 10.6417 3.34603 12.0827
13 4 6.39481 2.31164 15.3948
248 2 6.96432 1.85245 13.7587
79 2 6.9756 3.58854 9.20266
73 2 7.10541 4.35063 14.087
122 1 7.59873 3.40746 14.6225
236 3 12.9695 -0.0738006 12.177
124 1 7.09914 2.89186 10.0874
49 2 9.1044 -0.401727 13.359
108 2 6.84713 5.86694 8.42325
78 2 6.82469 3.61428 11.0602
179 3 4.77374 6.10595 10.381
77 2 8.27022 2.58561 10.1987
226 3 10.5108 5.85884 8.86889
232 4 12.4676 1.67093 15.6021
239 2 8.97228 4.00374 12.1642
263 2 9.45101 2.25304 12.6755
240 1 9.61037 3.06803 11.9711
264 2 8.51303 2.99308 14.1479
238 2 9.43577 2.62952 10.902
233 4 11.6699 0.558396 12.8183
234 2 10.7164 1.39565 11.6195
235 3 11.9431 1.50595 14.1199
229 2 14.1876 0.317318 15.8772
244 3 10.7288 -0.592702 13.2591
251 2 14.4267 0.296953 9.23987
206 2 6.7011 2.09338 8.32818
271 3 7.25217 12.3808 0.961479
210 2 9.49681 6.94203 6.41506
178 3 4.13667 7.09476 4.39629
102 2 2.99588 12.5934 4.14462
250 2 2.83018 11.6424 5.80152
104 2 4.59943 11.1532 5.99619
32 4 4.73575 12.8389 3.74249
109 2 5.08918 6.63445 7.32135
133 1 3.91754 12.002 5.73033
12 4 0.254879 12.7796 2.44364
103 2 5.71405 12.0582 4.9993
98 2 3.22357 8.49353 4.24252
96 2 3.21634 10.4642 4.66262
97 2 2.32537 9.67792 3.07178
131 1 2.67476 9.524 4.14709
163 3 1.42034 12.0758 1.62454
171 3 1.10753 11.1109 5.87341
182 3 5.68817 7.97024 2.14232
185 3 5.03441 11.95 2.44915
36 4 6.68887 8.79425 1.0969
260 2 6.77778 10.627 3.78659
37 4 5.75125 11.843 0.986716
114 2 2.9673 9.36172 7.16344
135 1 5.96698 7.12228 7.77695
115 2 4.15059 7.94171 7.86219
137 1 3.09579 8.57732 7.96971
200 2 7.71814 6.45082 7.05552
56 2 6.64127 7.54361 6.97426
261 1 7.8043 11.099 3.93967
62 2 7.38769 11.4229 7.17793
183 3 8.1944 9.15118 1.92838
259 2 8.22263 10.7508 4.98568
105 2 7.43191 6.58473 3.93473
33 4 5.08674 6.7937 3.08742
58 2 4.17829 10.2485 8.10593
39 4 7.77488 10.3068 13.274
186 3 3.51611 12.8322 8.47468
35 4 8.31788 7.60761 11.8808
184 3 5.91745 9.16411 15.7264
110 2 5.55245 8.42644 8.93969
116 2 2.82238 8.84098 8.99896
249 2 1.2579 11.3658 8.57392
188 3 8.18619 8.97851 12.5796
26 4 1.51887 10.0131 15.8142
88 2 3.19134 7.81941 13.2473
99 2 2.42272 8.63479 11.6009
34 4 6.00024 6.9179 9.83258
38 4 3.69187 11.4659 9.23434
40 4 5.95922 12.2116 11.2822
59 2 6.63768 9.71817 14.417
89 2 4.93008 7.47127 12.4438
90 2 4.20038 6.28102 13.7026
128 1 3.9642 7.04055 12.8927
187 3 2.18028 10.9826 9.76436
190 3 5.00687 11.3749 10.206
241 4 3.80579 11.2986 14.17
242 2 4.47043 10.3546 12.976
243 3 4.81833 11.7817 15.1859
245 3 2.72274 10.3227 14.8049
111 2 6.7082 7.37395 13.9591
191 3 6.89007 11.317 12.3149
181 3 7.22437 7.32467 10.8608
136 1 7.10442 6.87909 14.8478
113 2 8.2192 6.61281 14.956
57 2 8.04153 6.45927 13.1092
180 3 9.75498 7.3364 11.0423
112 2 6.41153 6.03913 15.1391
16 4 -0.299623 12.5476 12.7085
ITEM: TIMESTEP
200
ITEM: NUMBER OF ATOMS
271
ITEM: BOX BOUNDS xy xz yz pp pp pp
-1.6850834864783959e-01 2.2150797481396719e+01 7.2300955362801274e+00
-7.9299197413547162e-01 1.3391755282591641e+01 3.4935964687144894e-03
6.5076705643294996e-01 1.5958832943567099e+01 -8.3303669154391535e-01
ITEM: ATOMS id type x y z
3 4 1.08917 2.01773 5.43444
227 4 1.37431 1.97349 0.828514
123 1 3.94977 3.48888 8.25938
55 2 5.41521 1.03895 4.28586
214 1 5.45276 0.189682 6.13744
18 4 3.76851 4.44621 1.12763
252 2 5.5323 0.595921 1.13624
125 1 2.45015 3.31741 1.54613
228 2 1.64924 2.24035 2.7154
75 2 3.04368 3.65976 7.53563
1 4 5.30175 1.62489 2.6766
203 2 3.24933 4.12237 4.46725
74 2 5.16024 2.86578 7.50924
149 3 3.11909 0.555006 7.63538
206 2 6.81505 2.22689 8.10054
50 2 3.59085 2.09494 2.24268
41 2 2.67506 2.36203 4.94286
139 3 1.13778 0.515262 5.69602
201 2 4.08717 3.64399 6.24146
204 2 4.79848 1.11718 5.97901
213 1 4.25984 3.6684 5.01986
246 2 4.51488 2.53233 4.6648
52 2 5.183 4.37517 4.72068
134 1 6.60533 5.67591 3.8821
105 2 7.44981 6.35171 3.63646
177 3 4.32055 5.53856 2.14473
211 2 8.77385 5.56299 5.67649
106 2 6.67163 4.64946 3.40792
117 1 6.75811 1.90188 1.50273
212 2 8.36327 4.68469 7.76957
217 1 8.90528 6.18563 6.643
60 2 6.06533 3.21308 2.6181
193 4 7.04775 1.13993 6.74965
107 2 6.36922 5.66649 4.99734
221 3 7.48692 1.84647 5.42039
148 3 7.7944 1.12052 1.18351
197 4 10.0191 5.05457 7.76836
199 2 7.64036 2.68358 2.88559
151 3 7.00933 0.355769 11.6503
17 4 6.08158 1.36202 10.8151
230 3 2.02743 -0.228411 15.8101
87 2 2.00343 1.66449 11.1538
127 1 1.93449 1.83276 12.4473
48 2 4.35853 4.42176 8.67084
152 3 4.86563 2.96918 15.4087
47 2 3.00562 -0.216634 10.5003
86 2 2.06721 0.913789 13.0163
15 4 3.90667 1.55818 8.63175
158 3 3.31939 4.40973 12.0631
23 4 3.47806 5.93614 11.3635
76 2 2.80461 2.64927 9.53697
156 3 4.80127 2.10619 11.7386
208 2 0.999455 -0.297206 10.5705
150 3 5.13723 0.996328 9.55285
81 2 1.96176 2.41681 15.068
22 4 3.54235 2.80742 12.2982
53 2 3.24572 2.16997 13.8703
13 4 6.26159 2.22446 15.2389
112 2 6.93094 5.7751 15.6242
248 2 6.7529 2.06869 13.5294
79 2 6.33542 3.39199 9.38602
73 2 6.88409 4.34803 14.3819
122 1 7.56877 3.41833 14.6534
124 1 7.09485 2.77225 9.98439
239 2 8.57093 3.72439 11.7482
78 2 7.61695 3.31287 10.9193
264 2 8.49746 3.41429 13.9638
226 3 10.3965 5.7985 9.10913
77 2 7.86583 2.22668 9.39467
108 2 6.77667 5.85238 8.28381
265 2 7.96367 3.41117 15.9807
61 2 8.87329 10.9533 8.11974
205 2 12.643 12.8934 5.34128
253 2 13.1557 12.0857 0.967027
2 4 9.40876 12.771 6.69091
7 4 9.00751 10.2892 2.7677
9 4 11.0813 10.2528 5.14686
258 2 7.79887 12.3558 3.51655
118 1 8.24533 11.899 7.84497
93 2 12.5103 9.681 1.38689
260 2 6.78092 10.6887 3.6297
161 3 12.4206 10.6906 4.49394
142 3 9.60262 11.409 1.60574
143 3 10.1132 9.73524 3.77556
144 3 11.1586 8.80033 6.11688
145 3 10.2451 11.5648 5.93363
271 3 7.16176 12.3504 0.890921
210 2 9.70296 7.00598 6.6052
33 4 5.08869 6.66539 3.20722
36 4 6.73828 8.79448 1.07561
259 2 8.15171 11.1802 4.93866
183 3 8.06671 9.15093 1.89
62 2 7.41817 11.5762 7.07418
261 1 7.77616 11.2372 3.87349
56 2 6.70111 7.8843 6.89194
200 2 7.83622 6.64629 7.1264
178 3 4.12477 7.12473 4.46846
109 2 5.10428 6.98924 7.27372
135 1 6.0815 7.41857 7.72098
182 3 5.68156 7.82934 2.29167
202 2 12.3821 12.9969 7.08888
5 4 10.9841 6.7805 10.2755
189 3 8.86153 10.8678 14.1489
174 3 13.8292 12.0566 13.8023
70 2 11.9339 12.3148 11.6643
172 3 12.6825 9.68203 14.2781
72 2 9.88901 12.3235 12.2398
237 4 8.73965 11.4731 15.8349
63 2 7.80022 12.455 8.84405
168 3 12.2007 10.7123 9.41238
71 2 9.17505 11.413 10.7187
121 1 10.0242 12.181 11.0829
128 1 4.04343 7.10452 12.7806
10 4 12.1858 8.82863 13.0102
11 4 11.413 10.8404 10.8442
147 3 11.6228 9.67313 11.8724
46 2 10.911 7.87638 13.6324
39 4 7.74374 10.2942 13.1909
35 4 8.34685 7.58747 11.8211
179 3 4.70546 6.1873 10.2864
180 3 9.83556 7.42058 11.2107
57 2 8.19757 6.56624 13.1898
113 2 8.50305 6.84047 14.9718
136 1 7.36775 6.75485 15.0187
181 3 7.29686 7.12664 10.7866
191 3 6.88198 11.4088 12.3522
111 2 6.85169 7.14235 14.0599
184 3 5.89085 9.13134 15.6641
110 2 5.7248 8.46024 8.70199
188 3 8.17578 9.09071 12.3366
34 4 6.05014 6.85609 9.74052
59 2 6.63234 9.60952 14.3128
89 2 5.05284 7.50571 12.573
90 2 4.00797 6.47448 13.7263
268 2 13.7967 1.28484 6.58629
254 2 10.3725 3.48366 1.44744
216 1 13.74 0.688531 7.51236
218 3 7.92574 -0.0517403 7.41172
219 3 12.9692 1.03379 3.52185
225 3 10.7385 4.13589 6.78453
224 3 11.0288 1.30643 6.78532
45 2 12.1967 6.38206 6.53447
223 3 9.94749 2.50671 4.61018
257 1 11.4349 3.61025 1.8055
247 2 11.4463 3.70514 2.92705
269 2 14.6421 -0.029061 7.64113
222 3 12.5574 2.91694 5.24698
195 4 11.8917 0.096969 7.27827
220 3 8.54784 0.169874 3.81176
255 2 11.1842 1.75604 1.52447
194 4 8.51181 1.75606 4.20419
196 4 11.0163 2.70237 5.81202
120 1 13.6862 5.02045 7.14544
256 2 12.1184 4.58341 1.17095
84 2 13.8028 5.17768 3.37668
68 2 14.3431 5.21601 6.05302
21 4 17.891 5.85354 4.80763
231 3 14.3762 2.35292 0.719341
198 2 13.1705 3.44025 2.64714
82 2 12.9495 6.43571 4.9979
67 2 12.5924 4.66353 6.97096
155 3 16.6452 5.99391 3.79446
69 2 13.6465 5.92935 7.82514
192 4 13.5193 2.45445 4.06376
165 3 17.451 6.03056 6.38708
19 4 15.4508 5.96865 2.82196
4 4 15.1695 3.92453 7.72818
138 3 15.0374 2.45967 4.24751
80 2 16.0685 4.39938 2.07803
140 3 15.7422 2.90618 6.67198
229 2 13.9948 1.22412 0.758796
207 2 13.5898 3.42066 8.25978
270 2 13.6593 1.44246 8.43075
262 2 10.5281 3.82464 11.6553
251 2 14.5261 0.313618 9.32652
244 3 10.6456 -0.550584 13.5236
266 2 17.2457 4.03198 15.7575
235 3 11.9092 1.69346 14.1586
234 2 10.6024 1.4701 11.7833
236 3 12.9065 0.0183326 12.2433
233 4 11.5526 0.642903 12.98
49 2 8.97937 -0.252702 13.458
238 2 9.63371 2.28464 11.0135
240 1 9.63773 3.17122 11.8621
263 2 9.6858 2.82386 12.9588
232 4 12.3884 1.70237 15.7013
66 2 13.6619 5.03869 13.0763
141 3 11.9692 6.01067 11.2788
42 2 15.7026 4.07336 13.1884
64 2 14.308 2.78082 12.9929
20 4 15.9157 6.09754 9.83378
85 2 16.1095 2.58494 12.8046
119 1 14.6536 3.8148 13.5021
65 2 14.5776 3.64496 14.6241
215 1 15.006 0.172718 10.3995
209 2 14.7981 1.1097 11.0639
91 2 15.6289 5.50842 13.8472
153 3 16.0394 4.64619 8.88971
154 3 14.571 6.16604 10.7456
94 2 11.9531 8.41763 2.78484
137 1 18.213 8.64669 7.6394
115 2 19.3287 8.17585 7.59996
102 2 18.184 12.7761 4.13745
250 2 17.9333 11.8424 5.74436
104 2 19.6665 11.1891 6.00743
32 4 19.9273 12.8143 3.73175
114 2 17.9956 9.56546 7.00884
133 1 19.0666 12.0818 5.69848
12 4 15.5234 12.8787 2.35907
103 2 20.8913 12.2996 5.15065
98 2 18.2346 8.50583 4.35633
96 2 18.2506 10.5496 4.74678
97 2 17.4264 9.82329 3.0956
131 1 17.6724 9.58698 4.22984
163 3 16.7822 12.0582 1.76993
171 3 16.2644 11.2561 6.07717
37 4 20.7984 11.7793 1.00105
185 3 20.1698 11.7792 2.50842
126 1 13.7933 6.61004 4.30424
44 2 13.7558 8.14353 5.52663
14 4 15.477 11.7196 7.38732
166 3 12.6223 8.24973 8.18621
159 3 15.3623 7.04716 1.66403
29 4 16.0017 9.70724 5.02179
27 4 16.7225 7.47989 7.18043
169 3 14.7503 9.76661 3.96713
83 2 14.7404 6.88168 4.94114
170 3 15.9801 8.37084 6.14092
8 4 12.4011 8.07134 6.64395
25 4 13.4755 10.4586 3.36913
51 2 13.5013 7.52378 3.56652
24 4 16.4001 7.88157 0.660105
95 2 13.7248 8.33037 1.98214
167 3 14.0929 10.8427 7.57451
160 3 13.9988 12.0062 2.4096
162 3 16.9028 9.24169 1.09742
130 1 12.8412 9.01079 2.28379
58 2 19.4198 10.062 8.299
16 4 14.7461 12.6373 12.6601
186 3 18.8811 12.5588 8.50821
245 3 17.7755 10.305 14.668
243 3 19.8671 11.7295 15.1817
242 2 19.6795 10.4624 12.9216
116 2 17.8075 8.78282 8.77159
249 2 16.6358 11.4132 8.58839
241 4 18.8419 11.2884 14.1212
26 4 16.574 10.1143 15.8133
88 2 18.4035 7.98998 12.8098
99 2 17.5257 8.76841 11.506
190 3 20.1384 11.383 10.4702
38 4 18.9531 11.2838 9.34348
40 4 21.0689 12.367 11.4035
187 3 17.4787 10.8511 9.82583
146 3 13.3858 7.81123 12.5365
157 3 17.1902 6.45725 10.78
6 4 13.4302 6.28402 11.8775
54 2 17.616 5.98508 15.2918
176 3 15.3314 11.5189 11.7097
164 3 15.986 7.14985 8.58934
173 3 15.137 10.0665 15.108
92 2 17.2201 6.7717 13.5651
267 2 15.3889 7.52905 13.9455
129 1 16.1638 6.61926 14.1409
100 2 15.5784 8.22947 11.8122
175 3 14.6301 9.78674 9.79389
101 2 16.5897 9.4267 13.0839
31 4 15.9052 10.31 10.8765
30 4 13.7316 10.7182 14.7264
132 1 16.5003 9.00441 12.0111
28 4 13.4536 9.95607 8.7275
43 2 12.0212 7.99415 9.63401
ITEM: TIMESTEP
300
ITEM: NUMBER OF ATOMS
271
ITEM: BOX BOUNDS xy xz yz pp pp pp
-1.6850834864783959e-01 2.2150797481396719e+01 7.2300955362801274e+00
-7.8533794119190503e-01 1.3391755282591641e+01 3.4935964687144894e-03
6.5076705643294996e-01 1.5958832943567099e+01 -8.2538265860034876e-01
ITEM: ATOMS id type x y z
108 2 6.69719 5.78117 8.09692
227 4 1.41837 1.96715 0.935613
123 1 3.74019 3.36575 8.2348
55 2 5.71519 0.749996 4.10278
214 1 5.6086 0.0301601 5.95777
18 4 3.72368 4.40728 1.08264
252 2 5.50748 0.767494 1.09472
125 1 2.41038 3.40004 1.57684
228 2 1.86657 2.1837 2.7782
75 2 2.9386 3.62544 7.54608
1 4 5.24814 1.61027 2.69925
203 2 3.00558 4.1625 4.49639
74 2 5.03809 2.45484 7.46741
149 3 3.08713 0.478251 7.57576
206 2 6.72722 2.10461 8.02806
50 2 3.54153 2.18614 2.47983
41 2 2.54485 2.49539 4.77223
139 3 1.14054 0.503395 5.71881
201 2 3.94017 3.53803 6.23705
204 2 4.83235 0.840393 5.66112
213 1 4.10197 3.70226 4.99276
246 2 4.29627 2.70525 4.46763
52 2 5.0572 4.42876 4.78305
134 1 6.50187 5.6495 4.15962
105 2 7.39794 5.94303 3.61305
177 3 4.41333 5.30909 2.17282
211 2 8.80508 5.81797 5.57787
106 2 6.44163 4.48702 4.27034
117 1 6.76565 2.04096 1.54288
212 2 8.33565 4.84972 7.73583
217 1 8.96222 6.26367 6.563
60 2 6.10951 3.19856 2.74801
193 4 7.08463 1.06233 6.65245
107 2 6.32024 6.21443 5.16921
221 3 7.60078 1.88676 5.46899
148 3 7.78138 1.14567 1.30202
197 4 10.0152 5.15966 7.76804
199 2 7.90846 2.81199 2.8464
33 4 5.11999 6.50164 3.10829
151 3 7.12036 0.491435 11.8323
17 4 6.04197 1.38392 10.8611
230 3 2.05924 -0.167078 15.7163
87 2 1.96204 1.60957 11.4157
127 1 2.01095 1.88953 12.673
48 2 4.1047 4.36229 8.59356
152 3 4.82636 2.77331 15.2969
47 2 2.78012 -0.297482 10.3104
86 2 2.15134 0.961766 13.3737
15 4 4.00639 1.32654 8.52277
158 3 3.54233 4.37336 12.0578
23 4 3.54589 5.86639 11.3833
76 2 2.96066 2.60006 9.56023
156 3 4.91894 2.04059 11.8129
208 2 0.841834 -0.355656 10.5351
150 3 5.10909 0.621538 9.59054
81 2 2.03752 2.38017 15.1672
22 4 3.65195 2.78884 12.3247
53 2 3.36009 2.37203 14.0299
13 4 6.2358 2.14527 15.1521
112 2 7.43471 5.74993 15.3678
248 2 6.70501 1.78094 13.5178
79 2 6.39783 3.18832 9.14092
73 2 6.93842 4.09258 14.0629
122 1 7.6343 3.19931 14.4621
124 1 7.11355 2.69914 9.90353
239 2 8.66642 4.02927 11.2349
78 2 7.52448 3.45721 10.6784
264 2 8.64053 3.10953 13.8607
226 3 10.366 5.80588 9.1047
77 2 7.85806 2.03018 9.44927
179 3 4.78385 5.9278 10.2385
265 2 7.941 3.47614 15.6527
61 2 8.80212 11.0281 8.1019
205 2 13.2702 12.6383 5.12353
253 2 13.359 12.3905 0.884388
2 4 9.40712 12.9122 6.7155
7 4 8.95336 10.3813 2.69707
9 4 10.9247 10.2228 5.07917
258 2 7.29242 12.2315 3.28996
118 1 8.1086 11.9266 7.86033
182 3 5.86326 7.64186 2.11601
260 2 6.85745 10.4476 3.75656
161 3 12.3375 10.7236 4.36886
142 3 9.63232 11.5008 1.58944
143 3 9.88037 9.82219 3.9111
144 3 11.1362 8.98784 6.1299
145 3 10.1898 11.6591 5.89396
271 3 7.17629 12.2863 0.954273
210 2 9.86028 7.10422 6.61245
202 2 12.5629 12.8071 6.88435
36 4 6.68741 8.70858 1.22118
259 2 7.96861 11.4344 4.87244
183 3 7.97566 9.32965 1.87185
62 2 7.30089 11.605 7.16815
261 1 7.64861 11.2681 3.80301
56 2 6.90242 8.0087 7.57408
200 2 7.90701 6.71312 7.10752
178 3 4.01748 6.91471 4.24262
109 2 5.46897 7.19046 6.87748
135 1 6.09853 7.30137 7.78745
93 2 12.6433 9.7544 1.2611
5 4 11.0424 6.56179 10.3421
189 3 8.85725 10.7247 14.2347
174 3 13.751 12.1835 13.7113
70 2 11.7231 12.5139 11.5025
172 3 12.7432 9.75563 14.3208
72 2 9.5323 12.2479 11.9456
237 4 8.69077 11.4358 15.7163
63 2 7.6472 12.4778 8.80458
168 3 12.0671 10.7479 9.42567
71 2 9.25917 11.1879 10.2915
121 1 9.8996 12.0836 10.9089
89 2 4.99631 7.55884 12.5149
10 4 12.2216 8.72542 13.1599
11 4 11.4471 10.9121 10.8969
147 3 11.6114 9.72997 12.0027
46 2 10.995 8.03654 13.992
39 4 7.66843 10.2483 13.1898
35 4 8.31794 7.72314 11.7545
90 2 4.07118 6.35259 13.6207
180 3 9.67715 7.16058 11.1304
57 2 7.93037 6.7342 13.1507
113 2 8.41415 7.23882 14.8809
136 1 7.41318 6.78559 15.061
181 3 7.20639 7.20655 10.7321
191 3 6.97369 11.5901 12.524
111 2 6.53352 6.92668 14.3485
184 3 5.86507 9.0154 15.6324
110 2 5.34514 8.26962 9.08664
188 3 8.22745 9.25041 12.0678
34 4 6.04755 6.69486 9.71645
59 2 6.53605 9.37837 14.1595
268 2 13.8732 1.48343 6.5039
254 2 10.5103 3.95339 1.06392
216 1 13.8209 0.869621 7.49486
218 3 8.01043 -0.0715578 7.33187
219 3 12.9436 0.952137 3.48764
225 3 10.7862 4.06432 7.01382
224 3 11.0603 1.26498 6.77822
3 4 16.083 2.01864 5.51789
223 3 10.0427 2.68219 4.54242
257 1 11.505 3.80127 1.66823
247 2 11.3251 4.04002 2.77361
269 2 14.7032 0.100442 7.60389
222 3 12.5546 2.85369 5.18855
195 4 12.0331 0.119448 7.17443
220 3 8.86204 0.396251 3.65184
255 2 11.4184 1.93939 1.77563
194 4 8.63997 1.8869 4.23663
196 4 11.1089 2.596 5.85299
120 1 13.6116 5.05105 7.24209
256 2 12.4042 4.64874 1.12465
84 2 13.7661 5.13884 3.31931
68 2 14.212 5.24803 6.20094
21 4 17.8191 5.88497 4.81386