LAMMPS data file via write_data, version 2 Aug 2023, timestep = 20000, units = real

295 atoms
4 atom types

0 15.1447 xlo xhi
0 13.6088 ylo yhi
0 16.498 zlo zhi
-7.6974 -0.6366 0.5805 xy xz yz

Masses

1 12.0107
2 1.00794
3 15.9994
4 28.0855

Atoms # full

6 1 4 1.125683862939325 0.5380213002837957 1.3185480650009114 5.934383844356811 0 0 0
7 1 4 1.01104134514532 0.2829966931401702 3.828244801745995 1.6836837196228316 0 0 0
8 1 4 1.040043943814888 -0.7473158293515245 3.923991841894521 7.094119259412623 0 0 0
10 1 4 0.882079918416329 -2.2630021734243266 6.104179388866691 5.740746641225638 0 0 0
25 1 4 1.206118494561047 0.7363068755145681 6.1924108235088156 3.595245968739744 0 0 0
52 1 1 -0.134121987994997 -1.8110842237785947 3.976630419976985 1.1920354888204594 0 0 0
79 1 3 -0.70737813482745 -0.4167211055507708 0.829843806943147 4.695826844250542 0 0 0
81 1 3 -0.7085042606811288 0.20888056587478582 2.5914577626105446 2.775588274148588 0 0 0
82 1 3 -0.7461610732603622 1.0724296475482342 3.3266559617346867 0.30784646398315296 0 0 0
84 1 3 -0.8010739204451114 -0.1840804108090558 2.3700044140616687 6.852916036331994 0 0 0
85 1 3 -0.7436479959108612 -1.5774406077863947 4.605409102712466 5.8455180490000975 0 0 0
102 1 3 -0.7849143315911946 0.9076273278382826 5.189821738709615 2.3588153085234675 0 0 0
90 1 3 -0.7551385296433788 -2.3328072568799705 7.000238931492917 7.061614204664482 0 0 0
106 1 3 -0.7095450613030234 1.7250874983726388 5.760376364288779 4.859225289144095 0 0 0
173 1 2 0.1071619495268306 1.5452416135402351 3.2185047045287325 4.661582361535748 0 0 0
180 1 2 0.07652149182190987 1.7885066138610366 4.668805254295061 7.143420747744452 0 0 0
236 1 2 0.03967507884344877 9.89740408854663 3.480762697588151 0.3676685718161391 0 0 0
176 1 2 0.05463332177453856 -2.1700263518840264 4.571058194221513 2.015672525346317 0 0 0
51 1 1 -0.06652161387598556 2.199422844490574 2.4216887012518153 5.034237834218008 0 0 0
172 1 2 0.08771091984871479 2.80977295542882 2.2695767972799534 2.0157192927618373 0 0 0
262 4 1 -0.08236710055412069 13.892421610372917 0.14982801339272672 1.854651576749161 0 0 0
162 1 2 0.1233672230062955 11.79885417407527 3.756083575079563 7.236867482908434 0 0 0
253 2 2 0.02977918321478516 6.621313528182547 6.4965512262546055 1.8269500541721597 0 0 0
43 1 4 0.6993951752403086 10.197027059116511 1.798584801411053 2.2981814595161225 0 0 0
133 1 3 -0.6607167121700527 9.006675173361328 1.4839215697621224 3.3210195893249286 0 0 0
122 1 3 -0.64018342673105 9.24031192205756 3.1617190264105823 5.2628449628167635 0 0 0
171 1 2 0.04132783659094141 4.09171058139548 1.3521035876664607 2.888494934595676 0 0 0
174 1 2 0.0727125078562585 2.6949529905874683 1.7816296447033637 4.293731759486388 0 0 0
235 1 2 0.04833260260581378 8.93009485621906 3.9287801180795987 1.8534414082557895 0 0 0
175 1 2 0.1158763520228472 2.936430105970113 2.771702421035133 5.776378843881131 0 0 0
249 2 2 0.02499878432196134 4.906384819873586 4.085116717252095 1.427355777443038 0 0 0
135 1 3 -0.8045955849821658 5.675453266822186 5.5539241166183695 7.803054698271876 0 0 0
170 1 2 0.07136707269893566 4.314292825416565 1.8366617878904006 1.1620846347103346 0 0 0
21 1 4 0.5747245104365771 7.942917959890843 4.072579290813488 5.70641023233143 0 0 0
26 1 4 1.27672874174654 5.095472879712009 4.4179671583676665 6.84780027011147 0 0 0
27 1 4 0.6718436480474003 3.2463197175915197 6.147828083602149 5.285656595041783 0 0 0
50 1 1 -0.09592014055452563 3.643818055322311 1.6018172452316608 1.9594116426239376 0 0 0
62 1 1 -0.07095045404184426 8.410948447859724 5.206461839913931 7.399318074043669 0 0 0
63 1 1 -0.1211043998693248 7.609806710987199 5.574803734193696 4.305059243357827 0 0 0
96 1 3 -0.8404382588507689 3.6154900984958704 0.712544857641084 7.6005268294059585 0 0 0
105 1 3 -0.6823578999358846 6.6165570030364425 3.161207206434855 5.933304907208439 0 0 0
107 1 3 -0.7432042375519817 4.3757839237836205 4.966844528872489 5.515411508348431 0 0 0
203 1 2 0.05076320473890669 7.42587535872116 5.035079981235885 3.378166655434708 0 0 0
204 1 2 0.01566241840534192 8.471549512440795 6.1986371829325675 4.292945140476403 0 0 0
205 1 2 0.04177160776973113 6.719233355642808 6.0573685119229435 4.66448101994021 0 0 0
247 2 1 -0.07091618932018179 4.047136959711853 4.598186832817895 0.9882383623695481 0 0 0
250 2 2 0.1205532287099516 3.431638704419545 3.954621889296152 0.3668969991024874 0 0 0
251 2 2 0.09683577493484119 3.4881228308913577 5.224464352920454 1.6906327538686001 0 0 0
274 8 1 -0.07990566826235879 7.008796040547384 2.347524645072849 1.049994113445226 0 0 0
275 8 2 0.04267287526467041 6.663643789197941 3.0261855644517497 1.8293770071688424 0 0 0
276 8 2 0.07691988273875459 8.067179683356288 2.240117517787 0.9552658997596597 0 0 0
277 8 2 0.08332354579509516 6.550378367919053 1.4069587331251798 1.0508637258871487 0 0 0
161 1 2 0.2439563847231722 6.736606202727669 2.418485758383161 6.769383647555758 0 0 0
202 1 2 0.1341216908792507 7.833609478217015 4.832377895752451 8.231429790357588 0 0 0
200 1 2 0.0589649326228741 8.154309336223369 6.261514971127584 7.168234128460535 0 0 0
263 4 2 0.05654678914670343 14.229413964026673 0.5870662634251079 0.905805386955995 0 0 0
281 11 2 0.1013609217296501 11.421302901178965 3.7773374713397665 7.89240059822755 0 0 0
201 1 2 0.04946833869786497 9.44667082856567 4.966920360862855 7.440642341612751 0 0 0
104 1 3 -0.7992896766082411 4.228773592427506 3.35491606793328 7.629755900062734 0 0 0
38 1 4 1.063772622185749 12.510406464223465 0.7064995480420628 7.688667928959561 0 1 0
234 1 2 0.03892920310341171 10.699435988892445 4.323932734013303 1.7427689580868224 0 0 0
177 1 2 0.04495712707571511 12.985928042645794 2.9359584357294013 1.2576150718706824 -1 0 0
2 1 4 0.7972191680823547 14.131719940032726 1.6497260185434652 3.3662701940814093 -1 0 0
125 1 3 -0.6914274826201249 12.479662166511353 2.749444077962249 3.6804795433333783 0 0 0
182 1 2 0.0374120041735431 10.460385893132578 6.603698068703161 5.19589557319325 -1 0 0
227 1 2 0.06945703170059347 9.546850236662255 2.3991939696901023 7.528233363841425 0 0 0
286 16 2 0.06377769990902396 10.889596863136815 5.08068183791864 4.327157833654379 0 0 0
54 1 1 -0.1101194988335244 10.901961857085608 5.645641142536893 5.244603463006225 -1 0 0
164 1 2 0.3424581329628724 12.806004589610131 3.371280000357745 4.370317384444641 0 0 0
127 1 3 -0.7201554323140562 11.682060528321369 1.5829279506726028 6.579532302159143 0 0 0
74 1 1 -0.1112184077417042 9.902330161259536 3.6619975651059806 1.4244834945104163 0 0 0
183 1 2 0.04839147502667054 10.519029023110324 5.110710934858192 6.0967098789591 -1 0 0
36 1 4 0.617871916470988 9.190204639624204 1.594038546938124 4.948253216207969 0 0 0
53 1 1 -0.08998274201837206 0.9563767761594437 5.185530956486247 7.571922392617468 0 0 0
134 1 3 -0.6848431922574616 10.683933287538535 0.7124745943662528 1.2121998988412028 0 0 0
40 1 4 0.5607507823457182 11.640891067452303 1.3271756220647544 4.970438296584593 0 0 0
179 1 2 0.07992688018697636 0.7472669444764342 6.1352688728010865 7.0785676758855995 0 0 0
212 1 2 0.07735394546019497 6.515946627098151 0.14292967602620243 3.2278992024711655 0 1 0
103 1 3 -0.6895664847233512 -1.2089425779691867 6.81500057246166 4.181751283125041 0 0 0
228 1 2 0.04276366749797673 8.186652623051359 1.2577259831968584 8.16921476034049 0 0 0
178 1 2 0.01623281537374389 -2.0150082186361824 4.4701699655227145 0.2340214845942158 0 0 0
78 1 3 -0.7267451985709649 1.4497335893369616 0.602020576665722 0.14517775305367572 0 0 0
83 1 3 -0.7362644762107315 -1.4661387661711596 4.013757864019791 8.560711490897654 0 0 0
86 1 3 -0.7912694289591569 -3.394051077115572 6.355105414224305 10.439053673195463 0 0 0
98 1 3 -0.7258162411709743 1.5323894857812623 3.059604228485218 14.566322681974789 0 0 0
256 3 1 -0.1155832830205777 0.5480236252174564 6.979438459026689 15.209434002510843 0 0 0
267 6 1 -0.1142095078821912 -0.3450941539414924 2.4724034814879583 11.133889357475823 0 0 0
285 15 2 0.04279129091147252 0.4141738583876993 3.218506846196786 10.899359743832836 1 0 0
3 1 4 0.9888878291960024 0.5023697635789174 2.638914657323817 15.816994410161831 0 0 -1
148 1 2 -0.03657988548655635 -2.729211381273645 5.43068406053141 12.864318206928935 0 0 0
199 1 2 0.03379957309164976 2.0018625121300833 2.1315862229222535 9.404537496771127 0 0 0
153 1 2 0.02604295223948315 3.0746746907114497 6.988023814969051 12.491087387037517 0 0 0
138 1 3 -0.7528246707071009 7.1221222728146385 6.906111391373598 9.51543841609172 0 0 0
265 5 2 0.02952639056819726 -1.4777273188624092 3.4633731118309 14.532337200768938 0 0 0
181 1 2 0.04460728815803559 1.0459967541632729 5.227810133308544 8.66020454113605 0 0 0
268 6 2 0.03923634368554016 -0.8374123730667217 2.703281804323588 12.059584280438344 0 0 0
269 6 2 0.05177819343427688 -0.20737835883513045 1.4448178962410816 10.903106168272707 0 0 0
11 1 4 0.6714291285603724 -2.4270954114631365 6.619106103194482 11.674724309270143 0 0 0
184 1 2 0.07886366103466266 -0.6032653948395095 6.200875359145077 10.098239054616053 0 0 0
55 1 1 -0.1126412805881948 -0.5246167596216289 6.333802565944198 11.154948697217744 0 0 0
259 3 2 0.09814369606721667 0.5650921967650063 6.051733503880055 15.803946765017743 0 0 0
191 1 2 0.02171033865599541 10.936690911074116 6.9324068617060695 14.796919447830746 -1 0 0
101 1 3 -0.6630371153015593 6.20762419595195 5.604362748383144 15.62199230900573 0 0 0
44 1 4 1.030766673890196 5.593438872342928 6.759944041180338 8.939106705320949 0 0 0
198 1 2 0.03521019819163906 3.0208988950024547 1.1781997945954057 10.599673728825316 0 0 0
197 1 2 0.0985969221057319 3.2016242965325423 3.0408906731293692 10.425368115470272 0 0 0
20 1 4 1.104349954562937 4.319560014985066 1.8957772023972108 8.407959443569807 0 0 0
19 1 4 0.8102617072459161 5.72531655852774 3.5875541076478843 15.67968001766913 0 0 0
23 1 4 1.033089103324217 3.1573522020051783 2.9734855344979367 14.269075284884948 0 0 0
24 1 4 1.174154868092551 6.186963652841867 1.8695120941703416 10.84240332046089 0 0 0
28 1 4 1.1458450393 5.401097770088267 4.144527576460844 12.62192300329145 0 0 0
41 1 4 1.053136445495293 7.6276608421474315 1.349489393842598 14.880349295489292 0 0 0
61 1 1 -0.1124429768066722 2.889087780148185 2.102825822246499 9.991376830486201 0 0 0
97 1 3 -0.7524751319307803 4.214179971222988 3.101540394793084 15.521745690057113 0 0 0
99 1 3 -0.7886135478308901 5.729155912959511 1.6821870779875774 9.266309629517371 0 0 0
100 1 3 -0.855057142579886 5.803107858405841 0.6840118493916236 11.827440216197772 0 0 0
108 1 3 -0.7516901999542773 3.8750216696928628 3.786863388172783 13.016248814526666 0 0 0
109 1 3 -0.7599875493536126 5.738818313799278 3.3901556690778025 11.248060759442327 0 0 0
110 1 3 -0.7476440079584074 5.678748096748319 5.758202271541346 12.610775681226968 0 0 0
130 1 3 -0.7574221824550583 6.731442154158684 2.7156000523584147 14.694380207073614 0 0 0
152 1 2 0.316733911847777 6.266066485512782 6.002694197358139 14.690356771936807 0 0 0
29 1 4 0.7178992247745172 4.658346012065777 6.707045321744863 11.801826571587132 0 0 0
165 1 2 0.04950468910394225 7.5786873429552495 6.420431741194283 12.122181181029221 0 0 0
257 3 3 -0.6298203321376542 3.5052590273273667 7.185649371207486 15.250998958731453 0 0 0
64 1 1 -0.06989400530895593 3.296844947887199 0.8959863210907905 13.674175304935337 0 0 0
207 1 2 0.04640374838778258 2.4218706252495927 0.8061823704829039 13.053334884277621 0 0 0
124 1 3 -0.7223697216606323 8.442594767538088 2.089951058863508 11.152049293773885 0 0 0
136 1 3 -0.7016299110639383 4.517628838861152 6.532775009235059 10.201758096107783 0 0 0
206 1 2 0.1200042516830772 4.254553177750134 0.7963257004350967 13.138501375367099 0 0 0
190 1 2 0.04400398533411361 9.644881934119502 7.156378605509082 13.598782520027198 -1 0 0
295 25 2 0.09288640929705508 9.191034112339123 3.5256701259348295 12.761916006863352 -1 0 0
264 5 1 -0.1388789825541599 -1.288619371474601 2.4329662275862325 14.837917290654316 0 0 0
226 1 2 0.1039626979600504 9.96783931845302 1.021331162950243 8.735730031978733 0 0 0
233 1 2 0.03299872193615512 11.029525226833652 3.565148148488806 13.216789049741575 0 0 0
132 1 3 -0.6998723127085188 9.462340912642414 4.336823740856083 9.754046804103561 0 0 0
232 1 2 0.01341009308730691 10.09298652997478 5.095601531793329 13.060476263883759 0 0 0
230 1 2 0.05967506425257876 10.070242113385946 1.5394126654690337 15.451000343906536 0 0 0
260 3 2 0.04220818142083906 0.6724274201549246 6.812474667365159 14.13858014170008 0 0 0
231 1 2 0.03159168743165268 9.578220706655385 3.043523011996295 14.626678475344722 0 0 0
163 1 2 0.3320632740070117 8.509327088890503 1.0789950380050364 11.236552402325815 0 0 0
284 14 2 0.0319846893012154 -0.9855427389564031 1.7690560258205477 14.034183594925704 1 0 0
5 1 4 0.9993583221406593 13.149171768764894 2.821005365839528 9.68562219629011 0 0 0
229 1 2 0.05115355002632455 9.958942594657158 1.470081686990808 13.665487218093409 0 0 0
72 1 1 -0.124265112937929 9.639618802351954 1.959176655815463 14.571969566360472 0 0 0
123 1 3 -0.773471480912309 13.126707217073553 1.311946415677881 9.072902251229138 0 0 0
266 5 2 0.02185228820925493 13.156775053410215 2.0355502255722184 15.53721539994807 -1 0 0
131 1 3 -0.7331186045196356 11.768859855615995 3.0810063951352316 10.482004590248506 0 0 0
42 1 4 0.7522876557251942 10.746712819867929 4.284955781977661 10.747263471288896 0 0 0
73 1 1 -0.1128273939638488 10.189666492061555 4.041606230238929 12.766764886886623 0 0 0
39 1 4 0.6433418536132949 8.659821653566427 2.930507405610951 9.770390174179578 0 0 0
185 1 2 0.0287019248531671 -0.2845720609156192 5.473420325884835 11.77720299778251 0 0 0
246 2 4 0.4997830351389081 4.4685676339146045 6.402741978145257 16.27899969667918 0 0 -1
129 1 3 -0.713427369954305 7.710581225917795 0.7888933162234385 16.4389695208299 0 0 0
243 1 2 0.03395075903493178 12.840918045818427 0.49970637702811793 12.612646408837325 0 1 0
71 1 1 -0.09238786352571891 9.199582797634324 1.716391723045312 8.34231996314027 0 0 0
12 1 4 0.6494338704479004 -2.8990959532352703 9.34194801399079 2.2190708082547452 0 0 0
15 1 4 1.194030858188467 -2.9777946842909673 8.39724510114225 7.6081208864939445 0 0 0
16 1 4 1.06598995018594 -3.952525751546518 10.916430060708276 5.872458039271353 0 0 0
87 1 3 -0.7049428706042998 -5.581402205335044 12.405334396519052 2.1502567560309775 0 0 0
91 1 3 -0.7282429187752258 -4.3996392674778235 11.533724482644095 4.432667755867917 0 0 0
92 1 3 -0.7159790601546979 -4.176915283920933 8.970302024756824 5.8999352023243885 0 0 0
93 1 3 -0.7795825460968917 -4.721101215668761 11.650209884566872 7.087379275812838 0 0 0
114 1 3 -0.6838036176107322 -1.9249801449175314 11.479776863100577 6.007712729140509 0 0 0
13 1 4 0.8516909898224632 -5.024705149559098 11.124410251638162 3.0055527469833474 0 0 0
88 1 3 -0.6917127793474038 -3.9498336615151683 10.281687841410777 1.417346537010939 0 0 0
113 1 3 -0.6949632998108823 -2.0507882620560367 9.845112219492943 3.5053657708653128 0 0 0
160 1 2 0.2756600318181855 -5.002170021972601 8.784581834306563 6.4129403824125095 1 0 0
294 24 2 0.05949155596914556 2.7802412505530936 10.963943618055305 0.08359869528349262 0 0 0
213 1 2 0.06768118965051362 -2.8962086522072625 13.044602611431127 3.0134656862880886 0 0 0
4 1 4 1.171390478285509 -5.13758317424546 13.162110327172423 7.388470230169624 0 0 0
66 1 1 -0.07368517834109388 -1.8456097667351323 12.947759811270215 2.8733014376998978 0 0 0
56 1 1 -0.1193961543142497 -3.9203959427237574 7.561567087474927 2.575996926582554 0 0 0
187 1 2 0.03291717225992379 10.299796025469083 7.8091707194326805 3.0645699274357243 -1 0 0
282 12 2 0.08008950101453552 5.128124762779459 13.525237074237555 1.9290969369199285 0 0 0
252 2 2 0.04545118749652023 6.088257299015294 7.91235261620969 0.7865718683478267 0 0 0
1 1 4 1.039680877910689 -5.013513700719953 13.45634105832871 1.0377747480437878 0 -1 0
280 10 3 -0.7480948697633253 -3.804742248495557 12.831960126140974 0.1735414965562159 0 0 0
31 1 4 0.8606520821869462 -1.4385108563750852 11.21372199718665 4.0562779501570745 0 0 0
158 1 2 0.3278292325719004 -1.565823908515345 10.713184487383614 6.483405998721331 0 -1 0
237 1 2 0.04267156761141342 5.742129114650297 8.817968435137782 7.408225356271236 0 0 0
115 1 3 -0.7278546652298752 -1.8411862771905723 9.512236304347484 8.061218597816195 0 0 0
289 19 2 0.04402773101604385 -1.2187804159712852 7.459299337678567 1.5981151205032296 0 0 1
151 1 2 0.02086740609561825 3.955725773008606 7.460960545402759 4.351732481752226 0 0 0
283 13 2 0.08173126079682957 6.7976727464112825 12.956297496572487 2.204756136580075 0 0 0
254 2 2 0.07631285447141767 4.9342539191349095 7.105289248344891 1.8658182342608554 0 0 0
57 1 1 -0.09835948041927091 -1.3828415119355189 8.372798033146836 1.074930541279948 0 0 0
112 1 3 -0.7203477749378794 3.0404098395498127 7.75970012599473 0.8979101349951909 0 0 0
157 1 2 0.3192429176626498 -1.1903770739423538 7.836492047152066 4.392255998368346 0 0 0
37 1 4 0.6615346604709501 1.8937520792644467 13.213058662768896 0.8034185837025302 0 -1 0
30 1 4 1.063780735399432 1.952050669818039 8.43069691045781 1.912735059970064 0 0 0
33 1 4 0.6497492376028681 1.2054258803968545 10.742741014564798 5.011303175279407 0 0 0
46 1 4 0.6953515542560494 3.168576406635608 10.517546107344227 3.355033229483566 0 0 0
159 1 2 0.09682374965000062 1.3899036259883981 12.166372529350927 2.1325883899438534 0 -1 0
68 1 1 -0.1065613345416763 1.3246663820234104 12.10956945012114 6.421983149856309 0 0 0
116 1 3 -0.6701192228402494 0.16529666587987082 11.29472684322294 3.853098893335512 0 0 0
139 1 3 -0.7324463561672295 2.269405174790068 9.953444729831626 2.14559550092377 0 0 0
140 1 3 -0.661481930465703 2.6590565309400778 10.031139167594368 4.787496260237465 0 0 0
189 1 2 0.07029643312559461 -0.6018852345101388 9.082436946896822 1.2166398778197756 0 0 0
166 1 2 0.2737039639853659 3.7575409644660116 12.559338971951032 5.159923706028534 0 0 0
217 1 2 0.05230295144151027 2.263614836800855 12.617315113943343 6.245182310704555 0 0 0
218 1 2 0.06001891791024196 1.4107925010148492 11.621817201504022 7.369576062306647 0 0 0
219 1 2 0.05594816163126801 0.44123569331504237 12.6963264477951 6.316898760802602 0 0 0
126 1 3 -0.706117931513902 4.186477718789075 12.98013483977915 4.363246014466905 0 -1 0
141 1 3 -0.789988589496502 4.088294421033057 12.849350768641047 7.71653392807979 0 0 0
111 1 3 -0.74067801762231 1.3042710691407877 7.712923382752647 3.254145700581661 0 0 0
168 1 2 0.266545836524369 5.246869285485536 12.869895542772031 4.7184471304114295 0 0 0
214 1 2 0.09685954250340845 -1.5208992154312817 12.569581660090503 1.8827206955084632 0 0 0
239 1 2 0.0208685741750299 4.024046813259103 8.204041886103964 7.395365108708252 0 0 0
188 1 2 0.0201260410868321 -4.154702516424794 7.3317193065661455 1.514918302217039 0 0 0
270 7 1 -0.1199739223549313 8.333864712704326 9.9987157996857 3.3897362657625907 0 0 0
248 2 1 -0.1006006980412527 5.826680201507919 7.018633596410099 1.309068112806065 0 0 0
272 7 2 0.01965197174227508 8.481856438811503 8.928207071045673 3.3638726379114265 0 0 0
80 1 3 -0.7791679481196164 -6.4521959907939435 13.624179222881041 6.585078747652825 0 -1 0
273 7 2 0.04118239110429007 7.719060576437505 10.411411079349007 2.5683500792084955 0 0 0
75 1 1 -0.1202494417737967 4.867696952413699 8.56639051511847 7.941277173566841 0 0 0
167 1 2 -0.007835877058208412 4.916085063300833 10.338205252592383 3.200677888397516 0 0 0
271 7 2 0.0619147805822126 8.073460248148713 10.369611663398288 4.364634837831298 0 0 0
287 17 2 0.06375295607533139 -3.183642337176212 6.932302369693012 3.067425226401299 1 0 0
288 18 2 0.06784155849099013 -1.6925085380456395 8.308467791616316 0.02640711809748052 0 0 1
209 1 2 0.04913235878150531 2.06261667352493 8.770408434685004 8.065194949738308 0 0 0
149 1 2 0.07712068573903347 6.854585162257981 12.484550655127252 8.244371354241553 -1 0 0
17 1 4 0.7177272800391663 -3.6351710243857394 8.906077710600503 13.189499101703795 0 0 0
59 1 1 -0.05269344973506147 -4.640004133223891 10.367880069705746 12.033121113272953 0 0 0
94 1 3 -0.6841562830597392 -2.538644196360161 8.089655494720315 12.308000223020347 0 0 0
95 1 3 -0.687263945242428 -5.063315927879356 11.756509050123153 14.839793722729928 0 0 0
117 1 3 -0.7140953310850788 -2.815792228244795 9.636427596690131 14.32117338291744 0 0 0
119 1 3 -0.6952227936145857 -2.0233548939791435 11.849638632967805 16.133440393456215 0 0 0
192 1 2 0.1066744596155957 -4.195771728899942 11.292236768005294 12.382689440208193 0 0 0
193 1 2 0.1292192677890465 -5.680086768055469 10.30235867993007 12.320260555467668 0 0 0
194 1 2 0.07516515135639823 -4.301469085392042 10.08088279051744 11.011518880255242 0 0 0
89 1 3 -0.8173166561378854 -4.101315365727659 8.201666304185343 8.77056199402282 0 0 0
67 1 1 -0.08163703092753417 -2.5268552215979256 12.078728699001754 9.542256396260386 0 0 0
155 1 2 0.3368715650518173 -1.654290778234123 12.700485289031478 15.88976950019454 0 0 -1
147 1 2 -0.003354596234262389 -5.926391004852367 12.790492629105954 8.996517842544788 0 0 0
14 1 4 1.000437270089126 -4.12054417879519 11.89533567063973 16.14197061351625 0 0 0
9 1 4 1.196987667588795 10.53110615735618 7.173999586490625 9.825611647822527 -1 0 0
216 1 2 0.09568478880440077 -2.0454751539683937 12.653694249086477 10.309576600946109 0 0 0
195 1 2 0.06839328171093298 -7.511284005818621 13.620530563766774 14.445198023411633 1 0 0
211 1 2 0.04978336686924486 1.8268795791497965 8.802521309474368 9.812547206986785 0 0 0
156 1 2 0.05865883430271612 -1.7583350864991445 9.252428701682854 10.724565953311492 0 0 0
34 1 4 0.8612692971709447 -1.8866007489698946 10.910462187192016 14.353970643734321 0 0 0
118 1 3 -0.7944302147001139 -1.948792974661021 11.939846228933952 13.024269501243449 0 0 0
215 1 2 0.1008896878696555 -2.42070664719833 12.432618611479944 8.554234921037523 0 0 0
150 1 2 0.001691054906206756 8.136381146256536 10.322242625051233 16.32501957919236 0 0 0
186 1 2 0.03991047135660391 -0.050655820526285034 7.247050263153721 11.382569677511325 0 0 0
245 1 2 0.09789672000410773 3.8772981354389824 13.928951167193818 11.268589954458825 0 0 0
279 9 2 0.05402075230293732 1.8747387511271594 12.523031048823846 15.114401719714309 0 0 0
32 1 4 0.6809113399606511 -1.4701773235536029 10.312104195024908 9.429813932436335 0 0 0
35 1 4 1.05621152378044 0.9222076622763313 11.74852749456393 10.547307172450104 0 0 0
47 1 4 1.037951765528597 3.465721029796233 12.041129934145296 8.977255357766316 0 0 0
69 1 1 -0.1261268055719626 0.08008717849174096 10.333663195151852 14.627852080977503 0 0 0
70 1 1 -0.1371325211148452 1.9067276727982032 10.454105635293464 12.000706829801091 0 0 0
120 1 3 -0.7368550628635175 0.07463157195840064 10.767941291071748 9.556754969048114 0 0 0
121 1 3 -0.8611319956426589 0.1768096052254306 12.788330176400487 11.51967124056705 0 0 0
142 1 3 -0.7817301819880346 2.187050732905011 12.518630226598109 9.82375556010438 0 0 0
278 9 1 -0.115499277632059 2.2711486515453836 12.480720335624921 16.084305408322383 0 0 0
222 1 2 0.03912856443049355 0.7005580133674442 10.90648727959913 13.984171533269542 0 0 0
223 1 2 0.04090533510218838 2.849935672195307 10.119017839264655 11.525452592784864 0 0 0
224 1 2 0.02247244520341276 1.1900893449314434 9.648288754732555 12.182012432037972 0 0 0
225 1 2 0.02815433821680424 2.224984572451096 11.020982171371378 12.85005945068436 0 0 0
258 3 2 -0.008137470907940187 2.5193887939747475 9.428297549268335 14.903755447210642 0 0 0
22 1 4 1.518317183788905 -0.9528653787096775 13.170828988006521 12.6410711324836 0 -1 0
220 1 2 0.02469096915430857 -0.1015381703765581 9.303642904015403 14.324097667774428 0 0 0
77 1 1 -0.107387710726834 4.473480656833164 13.465066191078138 12.07459702553312 0 0 0
128 1 3 -0.8771370337954776 -0.2985884105748162 13.64207982574375 13.960217344017439 0 -1 0
221 1 2 0.04478167356320303 0.14384392401203883 10.561498391409573 15.671191598984889 0 0 0
255 3 4 0.6047424581094234 2.2488687657296706 7.987570425974027 15.786236402076478 0 0 0
244 1 2 0.02969744322898219 3.898752599400513 12.81610898062696 12.729429152700908 0 0 0
196 1 2 0.05517189056528232 6.971923324506246 12.888179677358693 15.93649636274045 0 0 0
292 22 2 0.03807344191683079 -3.5310064263623575 11.80269769017766 9.827458891640456 0 -1 0
169 1 2 0.08757978396620558 6.72987516845394 11.763372344778192 8.59982278622577 0 0 0
45 1 4 1.118538401378331 7.7573713930354735 7.613606089517801 10.841115971897823 0 0 0
241 1 2 0.05665711211414987 5.212557378357797 8.672712457859443 13.997293741968877 0 0 0
210 1 2 0.06073091391046685 0.9456111349629316 7.606013186911773 8.745635231221398 0 0 0
242 1 2 0.01778499470259378 4.405216183809489 10.22966949091751 13.190405185654066 0 0 0
137 1 3 -0.8067655201646107 9.36616812416559 7.784857575905057 10.779465185340579 0 0 0
145 1 3 -0.7145991137390234 4.596659666287966 11.289554285671592 9.848511186621643 0 0 0
290 20 2 0.06474542243332788 9.778722423440005 8.273889935278001 15.0507229430452 0 0 0
144 1 3 -0.7326754225052926 8.067195833605089 10.070546958255546 13.733744757563372 0 0 0
48 1 4 1.073254807885473 6.919138287930169 9.987535932503887 12.597426782539161 0 0 0
18 1 4 0.636221398508773 8.523505809781925 11.136375886837737 14.90322495404724 0 0 0
146 1 3 -0.6978218804202256 6.727644355352351 11.427679763480134 11.908205050924707 0 0 0
60 1 1 -0.09540572112536352 7.16486458175422 12.78168818450591 14.889103295312545 0 0 0
143 1 3 -0.7888229985170538 6.988807809995897 8.882817517918602 11.411558099169259 0 0 0
240 1 2 0.01791485540014769 5.3024175986141975 10.322384736391081 14.768175170767005 0 0 0
49 1 4 0.6342387011078603 5.514297968174796 12.110535603395798 10.968042950555377 0 0 0
291 21 2 0.0356268924148273 6.338024425780413 12.434432533642179 14.265495418524646 0 0 -1
58 1 1 -0.1078292853223957 10.273886727467751 7.641379219112541 14.350880668555918 -1 0 0
293 23 2 0.03008681028220912 3.2413638340423696 12.888162897735592 16.11279921442929 0 -1 0
76 1 1 -0.1382067124209519 5.130856009213916 9.753168639344329 13.855415492610254 0 0 0
208 1 2 0.1221379141260097 -4.4294936368376625 14.002264500981711 14.603542440016522 0 -1 0
65 1 1 -0.08655821142828428 1.9124141438429159 8.136041666321951 8.928690846496638 0 0 0
261 3 2 0.01986639608167769 -0.2881190322017143 7.607624291319318 15.469280085317777 0 0 0
154 1 2 0.05957952673255252 2.777093052455064 7.520380141622596 9.069811874965142 0 0 0
238 1 2 0.07860388277966321 4.745989877084508 9.110730733215732 8.846603702144188 0 0 0

Velocities

6 0.0025479762600070428 0.00031796565997847874 -0.0023723162716330947
7 0.0026701390140401247 0.0018578857631427563 -0.000769360203596386
8 -0.0023276963669226006 0.001274775627498171 0.001993192171209903
10 0.0009647916496555768 0.002621173468043852 -0.001714642281544073
25 -0.0009888061288655372 -0.0004546983430744367 -0.008876971942910036
52 -0.00020963791443579514 0.00037273434662721223 0.0017472342713057618
79 -0.0019354608701837254 -0.007966007186880161 -0.003569440681234993
81 -0.0003010565166675805 0.005410261930028449 -0.0025931073718577324
82 -0.0031504767978108 -0.0019150065513852171 -0.006832929754875789
84 -0.006868602448193403 -0.005502821675570905 -0.006081636924840643
85 -8.649928612029682e-05 -0.0013613268483148723 0.0030931473502099913
102 0.004334288016853296 -0.0018162736951942626 -0.005124868952545155
90 0.0013009985081026071 0.008091300584110131 -0.0007884012167705463
106 -0.0054098920608404676 0.0017106041485576557 0.000683947639500362
173 0.017102808782378222 -0.004401522806556888 0.020065385430169013
180 0.004454158853668567 -0.0013201392952537263 0.002402263971516585
236 0.027274154988091524 0.013781763006360222 -0.0020561569572295807
176 0.022305979446205916 -0.0015732764146406627 0.009719755609559573
51 0.00032486489258392237 -0.0004440010020413859 -0.0026502367443855725
172 0.0018151833566993267 -0.003871426103219805 -0.024190883952440807
262 0.00793335549439917 -0.002922886855932159 -0.00910085812848804
162 -0.012861518662052976 -0.006035675644936483 0.04814357466180314
253 -0.0015541827897375942 -0.021226462252544515 0.010163446176803705
43 -0.0007860920498021812 -0.001098573566367416 0.0018808637727634997
133 0.0040073367375240265 -0.008616361541198315 -0.0023070592980084293
122 0.003603808738626552 -0.005084772302991627 0.004627807499980341
171 0.024297507615765913 0.006517691012901686 -0.003076420500455885
174 0.00234913801948023 -0.00047694719102959126 0.01175611456248047
235 0.009175920690030209 -0.009683027357938483 0.043280975377901564
175 0.010904281122457 -0.005984761414167914 -0.008846772596766469
249 0.00609539588405669 0.019874759602595066 0.000953188402363089
135 -0.0011934101841407155 0.006469637543482829 -0.00034700767244582784
170 -0.01253901154492718 0.0021876629564925292 -0.021195906300179954
21 0.0007471722090178722 0.0010516920013849908 0.0026893756494159693
26 -0.005391230507073701 -0.0014303257165156193 0.00701785156909145
27 0.004372685760256607 0.002360620127451686 -0.0029318790185755106
50 -0.00461685304626936 0.0027540307211583945 0.0014715258515992443
62 -0.0008547146725081014 -0.0008385693118490837 -0.0004287363980574903
63 0.006788282497293363 0.004720471899983554 0.00599961888695036
96 -0.0024745864038728978 0.0011393874818241797 -0.00557760981905949
105 0.0029299534083688343 0.007749891616275751 -0.00030669912831106605
107 0.0020656284171229177 -0.004913376124342279 -0.001056775324519225
203 -0.020916322331916263 0.006200792304120425 0.0016165837616023426
204 -0.02107349572238736 -0.00042199614761800533 0.0029785329134657036
205 0.009126757375897502 0.020334093509039423 0.012538402992727361
247 0.008731363040158304 -0.0054557434017661445 0.0035439364761185575
250 -0.011007704606076014 -0.008401461589152337 -0.010161601782053626
251 -0.027655191081965257 -0.02626175454131484 -0.02727855227652989
274 0.0009805671020160134 0.002266300470653432 -0.0017475854598395782
275 0.019381726647710613 0.020657373622041383 0.002635555775946576