LAMMPS (2 Aug 2023 - Update 2)
  using 1 OpenMP thread(s) per MPI task
Reading data file ...
  triclinic box = (0 0 0) to (15.1447 13.6088 16.498) with tilt (-7.6974 -0.6366 0.5805)
WARNING: Triclinic box skew is large. LAMMPS will run inefficiently. (src/domain.cpp:220)
  1 by 2 by 2 MPI processor grid
  reading atoms ...
  295 atoms
Finding 1-2 1-3 1-4 neighbors ...
  special bond factors lj:    0        0        0       
  special bond factors coul:  0        0        0       
     0 = max # of 1-2 neighbors
     0 = max # of 1-3 neighbors
     0 = max # of 1-4 neighbors
     1 = max # of special neighbors
  special bonds CPU = 0.000 seconds
  read_data CPU = 0.007 seconds
WARNING: Van der Waals parameters for element SI indicate inner wall+shielding, but earlier atoms indicate a different van der Waals method. This may cause division-by-zero errors. Keeping van der Waals setting for earlier atoms. (src/REAXFF/reaxff_ffield.cpp:251)
*****Minimization starts.*****

CITE-CITE-CITE-CITE-CITE-CITE-CITE-CITE-CITE-CITE-CITE-CITE-CITE

Your simulation uses code contributions which should be cited:
- pair reaxff command: doi:10.1016/j.parco.2011.08.005
- fix qeq/reaxff command: doi:10.1016/j.parco.2011.08.005
The log file lists these citations in BibTeX format.

CITE-CITE-CITE-CITE-CITE-CITE-CITE-CITE-CITE-CITE-CITE-CITE-CITE

Switching to 'neigh_modify every 1 delay 0 check yes' setting during minimization
WARNING: Fix qeq/reaxff group is not charge neutral, net charge = -2.46 (src/REAXFF/fix_qeq_reaxff.cpp:392)
Neighbor list info ...
  update: every = 1 steps, delay = 0 steps, check = yes
  max neighbors/atom: 2000, page size: 100000
  master list distance cutoff = 12
  ghost atom cutoff = 12
  binsize = 6, bins = 4 3 3
  2 neighbor lists, perpetual/occasional/extra = 2 0 0
  (1) pair reaxff, perpetual
      attributes: half, newton off, ghost
      pair build: half/bin/newtoff/ghost
      stencil: full/ghost/bin/3d
      bin: standard
  (2) fix qeq/reaxff, perpetual, copy from (1)
      attributes: half, newton off
      pair build: copy
      stencil: none
      bin: none
Setting up cg style minimization ...
  Unit style    : real
  Current step  : 0
Per MPI rank memory allocation (min/avg/max) = 142.2 | 143.4 | 144.6 Mbytes
   Step          Temp          Press         Density         Volume         PotEng    
         0   0              123682.77      1.5382232      3400.2575     -27051.653    
        27   0             -3043.6537      1.5382232      3400.2575     -29423.731    
Loop time of 1.93676 on 4 procs for 27 steps with 295 atoms

96.5% CPU use with 4 MPI tasks x 1 OpenMP threads

Minimization stats:
  Stopping criterion = energy tolerance
  Energy initial, next-to-last, final = 
     -27051.6528085369  -29423.7250370684  -29423.7312212342
  Force two-norm initial, final = 3631.1324 193.26695
  Force max component initial, final = 486.62913 99.451068
  Final line search alpha, max atom move = 3.0261149e-05 0.0030095036
  Iterations, force evaluations = 27 56

MPI task timing breakdown:
Section |  min time  |  avg time  |  max time  |%varavg| %total
---------------------------------------------------------------
Pair    | 1.319      | 1.3714     | 1.453      |   4.7 | 70.81
Bond    | 0.00010064 | 0.00011711 | 0.00012432 |   0.0 |  0.01
Neigh   | 0          | 0          | 0          |   0.0 |  0.00
Comm    | 0.042409   | 0.12352    | 0.17548    |  15.4 |  6.38
Output  | 0.0049033  | 0.0064436  | 0.0072083  |   1.1 |  0.33
Modify  | 0.43143    | 0.4319     | 0.43236    |   0.1 | 22.30
Other   |            | 0.003409   |            |       |  0.18

Nlocal:          73.75 ave          81 max          68 min
Histogram: 2 0 0 0 0 0 1 0 0 1
Nghost:        3641.75 ave        3665 max        3613 min
Histogram: 1 0 0 1 0 0 0 0 1 1
Neighs:          43862 ave       47622 max       40803 min
Histogram: 2 0 0 0 0 0 0 1 0 1

Total # of neighbors = 175448
Ave neighs/atom = 594.73898
Ave special neighs/atom = 0
Neighbor list builds = 0
Dangerous builds = 0
System init for write_data ...
##### Equilibration starts.##### 
WARNING: Compute rdf cutoff less than neighbor cutoff - forcing a needless neighbor list build (src/compute_rdf.cpp:179)
Neighbor list info ...
  update: every = 10 steps, delay = 0 steps, check = yes
  max neighbors/atom: 2000, page size: 100000
  master list distance cutoff = 12
  ghost atom cutoff = 12
  binsize = 6, bins = 4 3 3
  3 neighbor lists, perpetual/occasional/extra = 2 1 0
  (1) pair reaxff, perpetual
      attributes: half, newton off, ghost
      pair build: half/bin/newtoff/ghost
      stencil: full/ghost/bin/3d
      bin: standard
  (2) compute rdf, occasional
      attributes: half, newton on, cut 7
      pair build: half/bin/newton/tri
      stencil: half/bin/3d/tri
      bin: standard
  (3) fix qeq/reaxff, perpetual, copy from (1)
      attributes: half, newton off
      pair build: copy
      stencil: none
      bin: none
Setting up Verlet run ...
  Unit style    : real
  Current step  : 0
  Time step     : 0.5
Per MPI rank memory allocation (min/avg/max) = 147.1 | 148.3 | 149.5 Mbytes
   Step          Temp          Press          PotEng         TotEng    
         0   300            490.58201     -29423.731     -29160.824    
       100   206.15553     -4806.6872     -29308.757     -29128.091    
       200   280.39455      2664.1171     -29323.374     -29077.648    
       300   334.25283      5658.2653     -29341.8       -29048.875    
       400   402.07745     -1398.4635     -29439.893     -29087.529    
       500   342.65442      8930.5459     -29451.525     -29151.237    
       600   334.15968     -11044.184     -29497.577     -29204.734    
       700   265.93923     -9406.6085     -29473.602     -29240.544    
       800   293.90738      2422.2084     -29519.852     -29262.283    
       900   309.04497      850.84952     -29533.903     -29263.069    
      1000   346.95205      6626.186      -29554.872     -29250.818    
      1100   296.97771      3283.5456     -29515.278     -29255.019    
      1200   329.80451      1198.1746     -29573.24      -29284.213    
      1300   305.71431     -11046.079     -29579.133     -29311.218    
      1400   311.09025     -4810.2518     -29596.517     -29323.891    
      1500   300.5073       1526.6446     -29589.868     -29326.516    
      1600   322.5455      -4798.4256     -29598.909     -29316.244    
      1700   314.27413     -5544.408      -29605.964     -29330.548    
      1800   294.43337      5007.4791     -29623.795     -29365.766    
      1900   275.61679     -6030.0669     -29614.884     -29373.345    
      2000   316.80371     -2503.5972     -29634.22      -29356.586    
      2100   348.40337      19127.548     -29664.949     -29359.623    
      2200   311.15195      1599.8065     -29673.619     -29400.939    
      2300   311.83078      1740.9629     -29698.188     -29424.913    
      2400   297.35481     -4315.104      -29705.526     -29444.937    
      2500   290.08739     -4245.1322     -29701.333     -29447.112    
      2600   295.03118      7443.2783     -29688.778     -29430.225    
      2700   307.98492      5608.1376     -29673.196     -29403.291    
      2800   303.16925      1087.2271     -29667.524     -29401.839    
      2900   323.39206      7936.8102     -29694.062     -29410.654    
      3000   291.33261      6630.846      -29683.517     -29428.205    
      3100   306.57356      14200.198     -29698.942     -29430.274    
      3200   289.18231      358.54608     -29682.734     -29429.307    
      3300   299.22974     -1709.3861     -29691.085     -29428.853    
      3400   300.59828      379.74239     -29679.192     -29415.76     
      3500   308.00106      4028.89       -29670.097     -29400.178    
      3600   272.19064      11525.791     -29664.84      -29426.303    
      3700   288.74667      17367.852     -29703.578     -29450.533    
      3800   285.62177      8246.4617     -29695.973     -29445.666    
      3900   294.83988     -3033.1495     -29693.375     -29434.99     
      4000   304.72613     -9745.5546     -29682.32      -29415.271    
      4100   304.42122     -3427.2778     -29669.512     -29402.73     
      4200   296.67521     -4049.5329     -29670.365     -29410.372    
      4300   290.93058     -1156.6206     -29701.563     -29446.603    
      4400   285.84398     -5515.6396     -29714.439     -29463.937    
      4500   315.68959     -527.53322     -29749.319     -29472.662    
      4600   282.72199      2581.8407     -29748.135     -29500.37     
      4700   336.77036      2672.6467     -29816.825     -29521.693    
      4800   290.83492      301.97871     -29806.687     -29551.811    
      4900   333.75045     -9599.6045     -29870.592     -29578.107    
      5000   314.5064       1894.0358     -29870.005     -29594.384    
      5100   281.68961      8553.1811     -29855.611     -29608.75     
      5200   302.13204     -1029.3028     -29861.293     -29596.517    
      5300   303.95063      6453.2273     -29840.179     -29573.809    
      5400   315.33167      9058.8913     -29855.471     -29579.127    
      5500   283.68241      6233.4895     -29848.38      -29599.773    
      5600   276.66251      12312.137     -29852.738     -29610.282    
      5700   302.3318       8141.2276     -29873.837     -29608.886    
      5800   289.67926     -6610.4821     -29852.074     -29598.211    
      5900   306.766        3724.5859     -29848.413     -29579.577    
      6000   308.92409     -1802.4162     -29846.671     -29575.943    
      6100   286.58752      2688.7132     -29868.952     -29617.799    
      6200   284.16798     -12946.018     -29875.899     -29626.866    
      6300   315.55633      5739.7674     -29883.557     -29607.016    
      6400   310.32449      7538.5017     -29859.463     -29587.508    
      6500   287.52221      5465.9956     -29828.024     -29576.051    
      6600   321.87273      1617.2978     -29853.4       -29571.324    
      6700   317.54089      4168.3613     -29871.182     -29592.902    
      6800   280.80277      7089.3665     -29864.185     -29618.101    
      6900   308.43372     -1850.4066     -29893.714     -29623.416    
      7000   295.54633     -854.9401      -29872.814     -29613.81     
      7100   291.26947      2649.2046     -29840.763     -29585.507    
      7200   308.47603     -9641.9801     -29850.383     -29580.048    
      7300   316.31113     -13942.476     -29865.7       -29588.498    
      7400   290.14879     -9832.3139     -29860.666     -29606.392    
      7500   286.44809     -7992.6136     -29865.249     -29614.218    
      7600   301.00042     -0.75285667    -29883.123     -29619.339    
      7700   295.89846     -1159.9984     -29879.677     -29620.364    
      7800   305.31784      922.05277     -29887.898     -29620.331    
      7900   308.98503      4210.3188     -29897.894     -29627.113    
      8000   282.81533     -14337.815     -29884.364     -29636.516    
      8100   287.65297     -7292.518      -29899.231     -29647.144    
      8200   309.03084      5296.8291     -29897.876     -29627.055    
      8300   323.27974     -3373.8176     -29892.729     -29609.42     
      8400   319.14494     -7315.4538     -29911.378     -29631.692    
      8500   292.62326     -12930.304     -29903.888     -29647.445    
      8600   286.9405      -5513.6673     -29909.218     -29657.755    
      8700   293.97319      2719.4631     -29929.358     -29671.733    
      8800   309.29013     -899.99631     -29957.563     -29686.514    
      8900   296.18594     -2508.8778     -29957.493     -29697.928    
      9000   287.45491     -9207.807      -29953.288     -29701.375    
      9100   322.126       -8630.2883     -29977.873     -29695.576    
      9200   313.65562      7973.6537     -29983.321     -29708.446    
      9300   306.34052     -4792.4526     -30004.835     -29736.371    
      9400   289.85056      4646.8988     -29990.96      -29736.947    
      9500   315.58438      5428.4233     -30004.596     -29728.031    
      9600   290.58254     -1366.173      -29960.422     -29705.768    
      9700   325.37545     -6249.9734     -29964.339     -29679.194    
      9800   314.7889       4062.613      -29966.005     -29690.137    
      9900   289.25482      2455.7024     -29973.762     -29720.271    
     10000   283.98658      9057.641      -29976.311     -29727.437    
     10100   299.33912     -1961.241      -29981.664     -29719.336    
     10200   299.50381     -8232.1003     -29978.171     -29715.698    
     10300   296.26799     -9240.6066     -29995.017     -29735.381    
     10400   278.66002      4582.3564     -29995.09      -29750.884    
     10500   291.73983     -3006.8522     -29985.246     -29729.578    
     10600   326.48962      5422.1955     -29988.621     -29702.499    
     10700   296.90995      9825.9285     -29974.566     -29714.366    
     10800   291.17485      18293.182     -29989.977     -29734.804    
     10900   313.03636      9995.8897     -30016.262     -29741.931    
     11000   278.89919     -3327.3006     -29988.949     -29744.534    
     11100   316.26772     -5349.1132     -29988.157     -29710.994    
     11200   309.89799      3601.836      -29973.314     -29701.732    
     11300   304.04847      13436.55      -29982.244     -29715.789    
     11400   305.75555      16882.163     -30014.115     -29746.164    
     11500   313.10203     -3384.8515     -30041.663     -29767.274    
     11600   287.72372      8351.1912     -30035.43      -29783.281    
     11700   293.81258      10947.074     -30035.052     -29777.567    
     11800   310.56009      3504.6149     -30025.421     -29753.26     
     11900   306.30143     -8187.7664     -30018.139     -29749.71     
     12000   304.0302       3459.6632     -30022.723     -29756.283    
     12100   319.6038      -1055.3551     -30041.572     -29761.484    
     12200   290.54447     -285.23419     -30022.086     -29767.464    
     12300   300.62562      934.9799      -30020.254     -29756.799    
     12400   324.51525     -3063.2091     -30019.909     -29735.518    
     12500   323.27485     -9445.6676     -30006.631     -29723.326    
     12600   293.16978     -2053.7299     -30012.465     -29755.543    
     12700   304.05647      9181.5951     -30037.968     -29771.505    
     12800   295.71134      2253.8601     -30028.084     -29768.935    
     12900   308.31517      113.61335     -30033.417     -29763.222    
     13000   332.575       -8262.9825     -30031.243     -29739.788    
     13100   326.44583     -9637.1497     -30015.056     -29728.972    
     13200   291.14164     -6617.079      -30015.949     -29760.805    
     13300   265.39742      3628.4376     -30008.326     -29775.742    
     13400   292.58451     -4230.3215     -30034.214     -29777.805    
     13500   292.1264      -3528.1642     -30025.098     -29769.091    
     13600   330.7523       5503.711      -30033.433     -29743.576    
     13700   321.30471      2113.2995     -30042.367     -29760.789    
     13800   304.7119      -8357.1037     -30056.484     -29789.447    
     13900   319.88414      2242.7539     -30090.929     -29810.596    
     14000   290.93734      9356.4251     -30083.653     -29828.687    
     14100   288.35875     -1658.5697     -30086.119     -29833.414    
     14200   278.17318      5030.0761     -30057.721     -29813.941    
     14300   310.86045     -8189.8991     -30061.673     -29789.248    
     14400   304.66941     -8014.1549     -30064.369     -29797.37     
     14500   292.82557      2327.4839     -30068.617     -29811.997    
     14600   302.15354      6239.1653     -30076.063     -29811.269    
     14700   314.72995      4595.7528     -30072.393     -29796.577    
     14800   317.6186      -3390.5824     -30061.08      -29782.732    
     14900   334.19703      7653.9898     -30087.714     -29794.837    
     15000   279.16176      11846.905     -30072.387     -29827.742    
     15100   289.35623      7410.3055     -30080.917     -29827.338    
     15200   296.39634      2088.0769     -30069.97      -29810.221    
     15300   316.76547      7380.8613     -30072.681     -29795.081    
     15400   298.26032     -6848.8133     -30056.596     -29795.213    
     15500   285.15018     -5436.1764     -30078.659     -29828.766    
     15600   278.50643      2317.5862     -30080.634     -29836.562    
     15700   309.05091     -1364.2976     -30093.55      -29822.71     
     15800   316.2118      -6322.6508     -30095.27      -29818.155    
     15900   304.5717       10342.135     -30091.431     -29824.517    
     16000   299.6812      -1408.3306     -30091.938     -29829.31     
     16100   284.28426      2401.2569     -30079.996     -29830.861    
     16200   311.48325      1820.3225     -30097.884     -29824.913    
     16300   294.97929     -7335.7185     -30081.376     -29822.869    
     16400   312.26381      5006.3622     -30083.531     -29809.876    
     16500   323.55859      2939.5879     -30072.291     -29788.738    
     16600   303.59095     -10399.698     -30070.155     -29804.1      
     16700   279.92171      6067.6998     -30075.668     -29830.356    
     16800   286.73513      13876.767     -30095.087     -29843.804    
     16900   289.66333     -7250.2266     -30103.953     -29850.105    
     17000   295.5524      -11070.112     -30099.242     -29840.232    
     17100   304.94493      1585.3639     -30080.891     -29813.65     
     17200   325.60521     -5627.0483     -30096.526     -29811.179    
     17300   303.74436     -4376.663      -30105.562     -29839.373    
     17400   311.58414      959.19095     -30120.707     -29847.648    
     17500   301.79959     -7302.8753     -30103.32      -29838.836    
     17600   320.23229     -7826.3354     -30109.351     -29828.713    
     17700   287.88783     -4066.6593     -30089.372     -29837.079    
     17800   291.08022      1290.0719     -30118.315     -29863.225    
     17900   275.59095      12190.608     -30115.597     -29874.08     
     18000   304.09463     -12067.341     -30121.745     -29855.249    
     18100   302.17885     -3815.9145     -30104.853     -29840.036    
     18200   303.29385      877.31566     -30101.938     -29836.144    
     18300   314.63492      4494.0982     -30103.21      -29827.477    
     18400   315.7969      -7745.3587     -30102.454     -29825.703    
     18500   309.30553      1125.7041     -30119.538     -29848.475    
     18600   287.93919      1698.5148     -30114.696     -29862.358    
     18700   290.51999      6086.0363     -30103.343     -29848.743    
     18800   288.11426     -3994.9131     -30071.254     -29818.762    
     18900   312.77951     -6632.7973     -30086.588     -29812.481    
     19000   312.0709      -3169.4988     -30094.449     -29820.963    
     19100   279.7789      -4671.7697     -30085.506     -29840.32     
     19200   270.96105      904.78052     -30091.679     -29854.22     
     19300   305.22599      2356.1153     -30108.993     -29841.506    
     19400   332.61482      6838.034      -30101.251     -29809.761    
     19500   305.01922     -10530.451     -30091.201     -29823.895    
     19600   300.31312     -9685.6946     -30106.811     -29843.629    
     19700   303.38499     -4328.526      -30119.722     -29853.848    
     19800   285.306       -1809.8345     -30107.023     -29856.992    
     19900   292.88858      8147.5615     -30106.776     -29850.1      
     20000   330.10231     -2449.3745     -30124.188     -29834.9      
Loop time of 1596.24 on 4 procs for 20000 steps with 295 atoms

Performance: 0.541 ns/day, 44.340 hours/ns, 12.529 timesteps/s, 3.696 katom-step/s
82.7% CPU use with 4 MPI tasks x 1 OpenMP threads

MPI task timing breakdown:
Section |  min time  |  avg time  |  max time  |%varavg| %total
---------------------------------------------------------------
Pair    | 885.93     | 941.35     | 972.1      | 112.3 | 58.97
Bond    | 0.051439   | 0.05771    | 0.069      |   2.8 |  0.00
Neigh   | 15.067     | 15.632     | 16.496     |  15.0 |  0.98
Comm    | 371.37     | 398.45     | 449.93     | 157.1 | 24.96
Output  | 0.66504    | 0.81832    | 1.0074     |  16.9 |  0.05
Modify  | 234.28     | 238.6      | 243.02     |  27.3 | 14.95
Other   |            | 1.338      |            |       |  0.08

Nlocal:          73.75 ave          80 max          63 min
Histogram: 1 0 0 0 0 0 0 1 1 1
Nghost:        3592.75 ave        3625 max        3552 min
Histogram: 1 0 0 0 0 0 2 0 0 1
Neighs:        43779.8 ave       47075 max       37889 min
Histogram: 1 0 0 0 0 0 0 1 1 1

Total # of neighbors = 175119
Ave neighs/atom = 593.62373
Ave special neighs/atom = 0
Neighbor list builds = 352
Dangerous builds = 1
System init for write_data ...
WARNING: Compute rdf cutoff less than neighbor cutoff - forcing a needless neighbor list build (src/compute_rdf.cpp:179)
Total wall time: 0:26:38
