ITEM: TIMESTEP
0
ITEM: NUMBER OF ATOMS
271
ITEM: BOX BOUNDS xy xz yz pp pp pp
-7.2018999999999993e+00 1.4748699999999999e+01 -6.1971999999999996e+00
-1.8606000000000000e+00 1.3431800000000001e+01 -1.0046999999999999e+00
0.0000000000000000e+00 1.6609600000000000e+01 -1.8606000000000000e+00
ITEM: ATOMS id type x y z q
4 4 -0.05347 3.83516 7.22 1.1864
65 2 -1.71814 2.0814 7.86901 0.202892
67 2 -1.87876 5.35562 6.39272 0.154766
68 2 -1.53069 3.94385 5.17784 0.178021
69 2 -0.320209 5.4058 5.29821 0.168809
82 2 -1.11232 5.29642 3.02279 0.146352
83 2 -0.312661 4.48949 1.49404 0.179594
120 1 -1.10049 4.76908 5.82013 -0.666107
126 1 -0.680204 5.44572 1.98588 -0.669153
138 3 0.0641429 1.54388 4.29654 -0.828863
231 3 -0.704318 2.41601 0.0581943 -0.797161
3 4 1.13979 1.52932 5.47004 1.25628
13 4 7.29066 2.27602 0.0645145 1.02207
18 4 5.03818 4.09686 1.2378 0.989968
21 4 3.06419 5.69626 4.29894 1.18781
41 2 2.62517 1.90473 4.73682 -0.044797
50 2 3.99853 3.42099 2.41492 -0.058323
52 2 3.53274 4.17355 4.84524 -0.0458815
106 2 6.57695 4.332 4.32726 0.157427
134 1 7.04684 5.34699 4.16088 -0.680261
139 3 1.20792 0.0535195 6.17045 -0.822653
140 3 0.821356 2.70937 6.49763 -0.821978
148 3 7.35701 0.777124 0.517227 -0.815191
149 3 2.9252 0.147778 8.16647 -0.775822
152 3 6.37184 3.1649 1.05508 -0.776357
153 3 0.756874 4.90748 8.0475 -0.825487
155 3 2.0295 5.47763 3.03165 -0.804465
177 3 5.47549 5.57276 1.60605 -0.766211
193 4 6.04427 1.59011 5.92852 1.15527
201 2 5.55343 0.274054 3.84584 0.241222
202 2 4.66423 1.94149 3.80959 0.124666
203 2 3.98906 0.516132 4.86867 0.193717
204 2 5.35651 4.04211 6.08645 0.138442
205 2 5.95808 3.2956 7.72084 0.171722
206 2 4.2203 2.89103 7.07898 0.179587
213 1 4.88021 1.00414 4.3957 -0.6678
214 1 5.2816 3.18915 6.81785 -0.670962
218 3 6.15588 0.451681 7.02851 -0.800302
227 4 0.668775 1.75444 0.362026 0.975568
229 2 1.73828 2.97327 0.739537 -0.0434819
230 3 0.874661 0.627914 1.4007 -0.805536
246 2 2.47951 0.186363 3.54489 -0.0191565
253 2 4.01789 0.201477 1.39093 0.169987
221 3 7.42585 1.95087 5.18761 -0.831039
56 2 6.87866 5.77861 6.94204 -0.0507329
73 2 9.45075 2.89998 1.0622 0.155585
105 2 8.00468 5.28589 3.56137 0.155869
192 4 13.2561 1.20179 4.0787 1.26012
194 4 8.58793 1.54873 4.12674 1.26235
196 4 10.9539 1.41528 6.00287 1.44527
197 4 9.8719 3.98852 7.40652 1.05984
198 2 12.663 2.47298 3.11764 -0.0350554
199 2 8.92791 2.96398 3.28873 -0.0373245
200 2 8.85948 4.98055 6.44797 -0.0484429
211 2 8.4817 1.97561 7.86544 0.202006
216 1 13.1706 -0.821089 8.14945 -0.659891
219 3 12.8429 -0.198682 3.32387 -0.799757
220 3 8.09751 0.484787 3.06987 -0.847184
222 3 12.5155 1.25041 5.4946 -0.818216
223 3 9.91727 1.02452 4.8044 -0.84366
224 3 10.7182 0.530721 7.41641 -0.792956
225 3 10.679 3.04893 6.43862 -0.805795
250 2 11.1796 0.177629 1.21442 0.00626653
270 2 13.7511 0.105511 7.88182 0.197592
1 4 -4.44549 12.9752 2.14568 1.11163
2 4 -3.89811 12.5853 6.9761 1.32718
8 4 -1.71762 8.45103 6.94214 1.02457
9 4 -2.53605 10.6287 4.97587 1.53394
25 4 -0.310214 10.9057 2.85918 1.35134
44 2 -0.510132 7.31447 6.70049 0.00804271
45 2 -3.09536 7.50168 6.96085 -0.0610063
60 2 -2.51519 11.7764 1.15369 0.1855
61 2 -3.97694 10.398 8.18828 0.169521
62 2 -5.51425 10.6766 7.11856 0.168234
84 2 -1.31068 6.10261 1.30764 0.156919
93 2 -1.29203 8.67499 2.19568 0.15956
95 2 -1.47626 9.99847 0.863138 0.150675
117 1 -2.88274 12.832 0.995853 -0.674587
118 1 -4.81608 11.1042 7.89907 -0.681506
130 1 -0.78122 9.49063 1.59776 -0.681814
142 3 -5.00892 11.5589 2.5709 -0.781964
143 3 -4.02181 10.0679 4.48198 -0.828357
144 3 -1.78481 9.38341 5.71181 -0.841771
145 3 -2.86237 11.8926 5.97412 -0.821872
160 3 0.0462336 12.226 2.01719 -0.826144
161 3 -1.66992 11.1782 3.68205 -0.828863
263 2 -3.73292 8.8596 0.778039 0.192273
12 4 1.48707 13.0905 1.74366 1.48827
14 4 0.313729 12.3953 7.52203 1.36004
19 4 0.954989 6.43124 2.28433 0.994278
24 4 2.68758 7.86189 0.110306 1.02331
27 4 2.40623 7.72211 6.52933 1.36063
29 4 1.48188 10.5125 5.33732 1.40032
32 4 6.0233 12.5152 2.02789 1.11234
33 4 5.79712 6.40605 3.14577 1.23861
51 2 0.579366 7.78926 3.26216 0.0222815
54 2 4.23987 7.29285 0.560987 0.0321682
94 2 0.198284 9.1638 1.13487 0.221966
96 2 3.25904 12.2072 4.89884 0.23349
97 2 3.96636 10.461 4.96292 0.167845
98 2 3.50717 11.3559 6.56089 0.20421
102 2 4.89715 10.3709 1.63215 0.228099
103 2 4.0822 11.4162 3.00079 0.210269
104 2 5.69106 10.46 3.3591 0.186983
107 2 7.1744 5.93717 5.11912 0.140941
108 2 6.72831 8.79827 7.55587 0.149277
114 2 4.59508 8.42972 5.45998 0.201314
115 2 4.82128 7.31759 6.96864 0.183964
116 2 4.40678 9.1492 7.1996 0.160331
131 1 3.30126 11.2272 5.45321 -0.678311
133 1 5.04515 10.9811 2.58473 -0.661409
137 1 4.32641 8.2389 6.54198 -0.662171
159 3 1.49557 6.93943 0.794436 -0.764022
162 3 2.54448 9.3824 0.524753 -0.795853
163 3 2.67919 12.0823 1.22102 -0.830325
164 3 1.99199 7.36203 8.03623 -0.81145
165 3 2.32866 6.46896 5.48583 -0.824242
169 3 1.00549 10.3795 3.78366 -0.809166
170 3 1.67489 9.06291 5.99189 -0.825741
171 3 0.693276 11.5335 6.26453 -0.854854
178 3 4.40877 6.51692 3.95952 -0.826718
182 3 6.5499 7.80511 2.81129 -0.768556
184 3 7.35615 9.29157 0.650682 -0.815262
185 3 7.067 11.9163 1.0052 -0.791756
259 2 7.10686 10.9688 4.29508 0.202232
268 2 6.83306 11.9154 7.26893 0.185225
7 4 9.41563 10.2997 3.61529 1.36795
36 4 7.83284 8.31556 1.83963 1.33227
109 2 8.52002 8.27847 7.92833 0.136244
111 2 7.74583 6.20663 0.516196 0.193897
112 2 9.05372 6.11452 1.87352 0.158225
113 2 9.39372 7.1153 0.311195 0.167034
136 1 8.61384 6.72135 1.02875 -0.661884
183 3 8.96337 8.94736 2.82213 -0.799398
258 2 7.98257 9.89975 5.58582 0.15433
260 2 8.41793 11.7373 5.40558 0.222459
261 1 8.05131 10.7958 4.89028 -0.675378
42 2 -0.492774 4.2343 11.231 -0.0392984
64 2 -0.522026 2.46977 9.29196 0.139104
66 2 -1.93928 3.66178 8.88897 0.215869
119 1 -1.22479 2.87676 8.505 -0.672738
254 2 -2.31962 3.20255 14.0752 0.150127
255 2 -0.844359 2.00547 14.1256 0.155564
256 2 -1.07724 3.28623 15.5116 0.168861
257 1 -1.5753 2.63896 14.723 -0.663379
15 4 2.81271 0.557803 9.68749 1.07221
17 4 5.18481 0.853554 11.7494 1.32513
22 4 4.56907 3.84916 12.5261 1.01197
48 2 1.47874 -0.276832 10.3587 -0.0641101
49 2 7.37299 -1.06266 14.4881 -0.0314258
53 2 3.01237 4.36445 13.0098 -0.0384208
74 2 1.59815 2.56394 8.95674 0.197738
75 2 3.36412 2.94948 9.51651 0.232896
76 2 2.01471 2.61124 10.8052 0.147452
77 2 6.55029 2.04051 10.0165 0.196095
78 2 7.2215 0.331124 10.4529 0.179606
80 2 2.14026 2.83805 16.4259 0.15613
81 2 2.91351 1.17979 15.896 0.135094
85 2 6.81856 3.96278 13.5143 0.15456
86 2 5.44028 3.87139 14.8278 0.146807
87 2 5.7655 5.50662 13.9043 0.140106
91 2 1.55062 4.73738 14.6471 0.144625
123 1 2.38646 2.42149 9.75217 -0.656746
124 1 6.82196 1.31501 10.8439 -0.66079
125 1 3.08873 2.26454 16.1749 -0.671854
127 1 5.82296 4.37189 13.883 -0.668841
150 3 4.09794 0.410433 10.6035 -0.760979
151 3 5.4614 -0.200772 12.9721 -0.828356
156 3 4.60332 2.26301 12.3917 -0.775326
157 3 2.95145 5.45766 9.61804 -0.812263
158 3 5.0263 4.55331 11.1664 -0.754112
228 2 0.358656 -0.645424 15.5567 -0.0261477
248 2 5.56578 0.515583 15.1299 0.0035595
266 2 3.78235 2.81333 15.4662 0.158329
226 3 10.8055 4.89889 8.34445 -0.817491
249 2 7.94845 -0.921739 8.38324 0.00923176
57 2 8.02661 4.66751 11.9616 -0.0294429
79 2 7.4836 1.78061 11.6349 0.149162
122 1 8.06301 1.10062 16.6041 -0.673034
180 3 10.266 5.61429 10.8126 -0.800662
195 4 11.3274 -0.295301 8.63078 1.12789
207 2 11.6289 1.88632 9.89873 0.172611
208 2 12.0063 0.364354 10.9541 0.151604
209 2 10.2132 0.815991 10.5483 0.161157
210 2 9.43336 2.62008 9.38353 0.18354
212 2 7.88549 3.53816 8.76713 0.179256
215 1 11.2978 0.856014 10.2221 -0.672327
217 1 8.76342 2.87357 8.49915 -0.656795
232 4 12.0805 1.38662 15.6654 1.01571
233 4 11.1382 -0.971349 13.8337 1.22293
234 2 9.96601 -0.690354 12.6438 -0.0163673
235 3 11.3343 0.451759 14.5852 -0.788148
236 3 12.5001 -1.44055 13.1105 -0.817999
247 2 10.9297 2.23827 16.6089 -0.0194078
264 2 7.93872 2.16444 16.2238 0.149343
265 2 8.61543 0.415809 15.8836 0.157821
6 4 -0.767952 5.86924 10.8492 1.28481
16 4 0.0756539 11.9109 13.2916 1.28324
5 4 -3.53452 5.94447 9.4954 1.23499
10 4 -2.20503 7.46413 13.0129 1.28491
11 4 -3.31434 9.90337 11.3339 1.09978
28 4 -0.960055 10.3006 9.27431 1.54774
30 4 -0.956532 9.54942 14.8935 1.29027
43 2 -3.89611 7.49865 8.91795 -0.037532
46 2 -3.37715 6.39846 13.5839 -0.0030818
47 2 -4.57998 9.62206 10.2206 -0.0332605
55 2 -2.00986 10.0765 16.1112 -0.00508017
63 2 -5.35415 11.5536 8.78198 0.141538
70 2 -4.31958 12.0554 11.9658 0.14034
71 2 -3.04747 11.4158 13.2277 0.220046
72 2 -4.79452 10.6384 13.1507 0.167634
121 1 -3.9667 11.1865 12.5994 -0.680859
141 3 -2.00272 5.8931 9.84348 -0.846375
146 3 -1.10439 6.61022 12.2412 -0.835998
147 3 -2.94039 8.56125 12.1089 -0.806808
166 3 -1.60128 9.16549 8.30936 -0.854655
167 3 -0.742778 11.6925 8.455 -0.811064
168 3 -2.07797 10.5053 10.5636 -0.782302
172 3 -1.62576 8.23377 14.2727 -0.85676
174 3 -0.849353 10.7396 13.8551 -0.846766
237 4 -5.26752 8.43663 15.3574 1.04961
238 2 -4.07902 9.6614 15.2366 -0.0385076
239 2 -3.43368 6.95285 15.9917 0.144593
240 1 -4.53275 6.87085 16.2824 -0.674515
252 2 -4.3066 11.1832 16.5699 0.141465
37 4 6.59877 8.8965 16.5859 1.54285
20 4 1.57383 6.04563 8.94683 1.50355
23 4 4.37987 5.91292 10.2213 1.26873
26 4 1.68781 9.1084 16.5659 1.50967
31 4 1.48043 10.2195 11.1422 1.36492
34 4 6.91638 6.54534 8.47383 1.01208
38 4 4.39503 10.5248 9.99566 1.25462
40 4 6.81209 11.007 11.9594 1.24913
58 2 4.61243 9.13991 9.07244 -0.000573683
59 2 6.4244 7.48458 13.4186 -0.011714
88 2 3.65754 8.10517 11.069 0.181494
89 2 5.17086 7.44274 11.9891 0.146552
90 2 3.446 6.77598 12.3979 0.141554
92 2 2.34198 6.45644 14.399 0.144684
99 2 1.60025 7.7647 11.7348 0.22616
100 2 0.200639 8.63412 12.6404 0.253565
101 2 1.97457 8.83566 13.2414 0.163656
110 2 7.36814 8.80153 9.34694 0.19028
128 1 4.1238 7.22693 11.6085 -0.692067
129 1 1.4823 5.85831 14.838 -0.668362
132 1 1.29635 8.64792 12.3657 -0.669844
154 3 0.559732 6.45696 10.1818 -0.800986
173 3 0.464605 9.30682 15.5375 -0.857174
175 3 0.532948 9.88588 9.88664 -0.814288
176 3 0.970899 11.4636 12.0476 -0.848433
179 3 5.43287 6.5355 9.14067 -0.795589
186 3 4.32493 11.7555 8.96052 -0.810337
187 3 3.0413 10.3423 10.7863 -0.854235
190 3 5.61028 10.7333 10.9689 -0.870207
241 4 4.27477 9.69615 14.8341 1.27314
242 2 3.92748 9.12876 13.2745 -0.0176807
243 3 5.65633 8.97809 15.214 -0.832915
244 3 4.35377 11.3229 14.8001 -0.828336
245 3 3.082 9.24744 15.7665 -0.860363
267 2 0.457162 6.29962 14.6103 0.221892
269 2 7.36506 12.0874 9.069 0.137425
181 3 7.95183 5.80052 9.44927 -0.799091
35 4 8.6446 5.88696 10.9492 1.19003
39 4 7.84157 8.15751 12.8031 1.2539
135 1 7.45031 8.34532 8.30679 -0.677105
188 3 8.27165 7.32802 11.5296 -0.835453
189 3 8.98176 7.95027 13.921 -0.814914
191 3 7.50533 9.66243 12.428 -0.843652
251 2 7.99471 11.8772 11.1259 -0.049209
262 2 9.66952 6.00048 15.7951 0.157133
271 3 8.23418 8.96563 16.1829 -0.792794
ITEM: TIMESTEP
100
ITEM: NUMBER OF ATOMS
271
ITEM: BOX BOUNDS xy xz yz pp pp pp
-7.3255680339044265e+00 1.4797389187328932e+01 -6.2831382408661911e+00
-1.9862400399641602e+00 1.3484382412957210e+01 -9.9374060570929379e-01
-9.2119443821678360e-02 1.6701719443821652e+01 -1.9336576270069405e+00
ITEM: ATOMS id type x y z q
4 4 -0.101221 3.90523 7.09258 1.13844
65 2 -1.8121 2.10657 7.69558 0.212332
67 2 -1.97153 5.06342 6.06106 0.160489
68 2 -1.2286 3.91322 4.83463 0.167572
69 2 -0.315354 5.47137 5.28419 0.184509
82 2 -1.52137 5.61735 2.59654 0.138505
83 2 -0.247649 4.29067 1.90616 0.175345
120 1 -1.04681 4.70617 5.58978 -0.682565
126 1 -0.739396 5.34596 1.78381 -0.665955
138 3 0.214504 1.30563 4.23546 -0.7998
231 3 -0.800086 2.50914 0.046117 -0.765847
3 4 1.16547 1.30055 5.45255 1.2599
13 4 7.46954 2.18174 -0.0605343 1.02652
18 4 4.95422 4.03999 1.17885 0.992979
21 4 2.89983 5.64021 4.2219 1.25429
41 2 2.75977 1.65547 4.9491 -0.0150402
50 2 3.98127 3.08975 2.21289 -0.0551592
52 2 3.25574 4.01666 4.42255 -0.0348237
106 2 6.6216 4.2248 3.61835 0.153709
134 1 6.87661 5.27563 4.05664 -0.673149
139 3 0.909795 -0.0654949 6.17992 -0.757755
140 3 0.959026 2.66203 6.35824 -0.76416
148 3 7.45449 0.670382 0.137526 -0.796436
149 3 2.54146 -0.0452374 8.38158 -0.811987
152 3 6.2744 3.20109 0.63414 -0.772196
153 3 0.640854 4.973 7.94961 -0.830186
155 3 1.94699 5.69379 3.03679 -0.824113
177 3 5.22619 5.4951 1.74556 -0.779224
193 4 6.0622 1.53474 5.95222 1.11922
201 2 5.20195 0.406136 4.00588 0.20676
202 2 4.01707 1.89914 4.40165 0.111947
203 2 3.83949 0.195344 5.21905 0.236031
204 2 5.9687 3.93626 6.08075 0.156891
205 2 6.05081 3.1744 7.76719 0.177094
206 2 4.41824 3.22389 6.81453 0.178245
213 1 4.5136 0.906729 4.70172 -0.675678
214 1 5.55423 3.20376 6.74565 -0.681927
218 3 6.21352 0.443319 7.18683 -0.791141
227 4 0.669676 1.86795 0.165537 0.954834
229 2 1.82011 3.0381 0.367019 -0.0367624
230 3 0.940914 0.788044 1.22889 -0.832012
246 2 3.08884 0.191115 2.67338 0.0291655
253 2 -1.99939 13.0059 1.15729 0.202866
221 3 7.38607 1.71642 5.02472 -0.823588
56 2 6.96634 5.77381 6.93555 -0.0449794
73 2 9.58608 2.31679 0.984673 0.156047
105 2 7.95079 5.59269 3.80253 0.14189
192 4 13.3463 1.13366 4.1034 1.24602
194 4 8.65607 1.48015 4.05047 1.25415
196 4 11.0043 1.29964 5.87841 1.3981
197 4 9.91805 3.95559 7.40553 1.01965
198 2 12.9024 2.5461 3.26156 -0.0244891
199 2 9.08351 2.9631 3.43205 -0.0462196
200 2 8.35268 4.29665 6.86241 -0.0282087
211 2 9.05807 1.73044 8.16216 0.216082
216 1 13.2457 -0.864488 7.94973 -0.643871
219 3 12.8381 -0.0809408 3.15209 -0.81015
220 3 8.24759 0.575361 2.78025 -0.858558
222 3 12.6 1.18131 5.48175 -0.839711
223 3 9.89656 0.960846 4.79859 -0.871086
224 3 10.7415 0.325605 7.34883 -0.770711
225 3 10.7909 2.98787 6.50961 -0.785024
250 2 4.53352 13.0137 1.20688 0.0565358
270 2 -0.984119 0.0251548 8.20338 0.185292
1 4 -4.70653 13.1493 1.98157 1.14705
2 4 -4.09389 12.5349 7.13173 1.26323
8 4 -1.6916 8.54863 6.93182 1.01053
9 4 -2.60485 10.6779 4.98631 1.50829
25 4 -0.372504 10.9757 2.78434 1.33595
44 2 -0.490956 7.34707 6.72123 -0.00208595
45 2 -2.94587 7.44058 6.81632 -0.0559367
60 2 -3.1364 11.4802 1.65703 0.18524
61 2 -4.38351 10.2423 7.95374 0.156982
62 2 -5.96504 10.9893 7.35758 0.169742
84 2 -1.03416 5.637 0.700023 0.162086
93 2 -1.27977 8.71232 2.30783 0.160358
95 2 -1.41522 9.88912 0.82316 0.157351
117 1 -3.04656 12.5673 1.1044 -0.672401
118 1 -5.06201 11.1185 7.98998 -0.686201
130 1 -0.755322 9.47351 1.63298 -0.67226
142 3 -5.13039 11.9887 2.93709 -0.779305
143 3 -4.01364 10.0382 4.49089 -0.820313
144 3 -1.7951 9.47522 5.65013 -0.841354
145 3 -2.99422 11.9702 6.00448 -0.815677
160 3 0.137122 12.3067 1.80969 -0.842589
161 3 -1.70992 11.2818 3.62733 -0.806006
263 2 10.5302 8.53391 0.451221 0.201951
12 4 1.4235 13.1469 1.60632 1.48808
14 4 0.218275 12.4691 7.58627 1.33207
19 4 0.745845 6.45269 2.11037 0.976534
24 4 2.56846 7.87247 -0.0241287 1.04104
27 4 2.39533 7.5836 6.51546 1.32236
29 4 1.40702 10.4628 5.35937 1.34857
32 4 5.99953 12.5445 1.95928 1.11205
33 4 5.65756 6.44472 3.15009 1.23615
51 2 -0.0508737 7.68901 2.97596 0.00435091
54 2 3.91973 6.88465 0.231727 0.0261678
94 2 0.236763 9.08537 1.20799 0.217678
96 2 3.0189 12.3191 4.91357 0.238211
97 2 3.74867 10.6258 4.69431 0.172572
98 2 3.50017 11.3234 6.38944 0.198452
102 2 4.72187 10.2342 1.95965 0.229835
103 2 3.95138 11.5484 3.07484 0.211811
104 2 5.67693 10.8377 3.53517 0.166833
107 2 6.62842 5.34599 5.14312 0.145501
108 2 6.28813 8.78614 7.74203 0.159475
114 2 4.54846 8.14972 5.3979 0.21924
115 2 4.79555 7.50787 7.12212 0.195571
116 2 4.32369 9.31679 6.84189 0.161709
131 1 3.12443 11.2903 5.31831 -0.678908
133 1 4.92686 11.1503 2.66449 -0.66456
137 1 4.24908 8.22011 6.45061 -0.659885
159 3 1.30107 7.12326 0.690069 -0.786091
162 3 2.91738 9.35866 0.296473 -0.805082
163 3 2.61388 12.0709 1.10043 -0.800768
164 3 2.0809 7.29749 8.10377 -0.806236
165 3 2.24314 6.14675 5.58728 -0.799052
169 3 0.822221 10.4572 3.74299 -0.79511
170 3 1.72994 8.947 5.92661 -0.820897
171 3 0.685626 11.5019 6.37625 -0.835836
178 3 4.32187 6.39775 4.06033 -0.82457
182 3 6.43068 7.88928 2.81085 -0.764457
184 3 7.37053 9.45293 0.6666 -0.78837
185 3 7.05792 12.0606 0.847159 -0.79627
259 2 7.11442 10.124 4.55443 0.17982
268 2 6.92257 12.4972 6.83794 0.215607
7 4 9.491 10.3374 3.66646 1.29028
36 4 7.80524 8.38718 1.84976 1.27129
109 2 8.07517 8.25184 7.7762 0.131783
111 2 7.48876 6.03849 0.961707 0.196649
112 2 9.22736 6.54681 1.4591 0.152989
113 2 7.49894 5.11578 16.6059 0.172909
136 1 8.30693 6.8268 0.878997 -0.674082
183 3 9.07864 9.01098 2.69024 -0.785841
258 2 8.46026 9.89442 5.86404 0.154289
260 2 8.13283 11.6416 5.06098 0.218894
261 1 8.09836 10.5026 4.93301 -0.67263
42 2 -0.707606 4.15226 11.3099 -0.0354697
64 2 -0.875915 2.86926 9.22858 0.143109
66 2 -2.26227 3.8362 8.36618 0.233604
119 1 -1.46661 3.06632 8.2562 -0.665786
254 2 -2.26741 3.14436 14.3213 0.147025
255 2 -1.0823 1.73314 13.9395 0.160986
256 2 -0.843936 2.85544 15.4419 0.157748
257 1 -1.5745 2.39978 14.7216 -0.669401
15 4 2.71376 0.464533 9.83255 1.07523
17 4 5.24421 0.700296 11.8107 1.2699
22 4 4.6532 3.78035 12.5401 1.0046
48 2 1.28803 0.10374 10.6886 -0.0459898
49 2 7.43477 -1.38611 14.5965 0.00291874
53 2 3.29428 4.48923 13.2833 -0.032708
74 2 1.68486 2.61802 9.09156 0.213196
75 2 3.26464 2.72936 10.2324 0.229645
76 2 1.53274 2.29022 10.9551 0.141033
77 2 6.36063 2.06776 10.1001 0.199739
78 2 7.13027 0.375042 10.3941 0.17936
80 2 2.05529 3.06338 16.695 0.164543
81 2 2.2619 1.15894 16.3648 0.126749
85 2 6.82654 4.30333 13.1362 0.13531
86 2 5.89387 3.64913 14.6889 0.164749
87 2 5.60316 5.44872 14.1647 0.138679
91 2 1.11165 4.82005 14.5597 0.15218
123 1 2.19319 2.26444 10.0672 -0.660432
124 1 6.75915 1.32635 10.8486 -0.663359
125 1 2.73351 2.17496 16.5332 -0.660305
127 1 5.88433 4.39639 13.8452 -0.673008
150 3 4.08057 0.217374 10.7221 -0.757044
151 3 5.81382 -0.27513 12.9446 -0.836519
156 3 4.50958 2.19368 12.5941 -0.745187
157 3 2.90696 5.08892 9.48037 -0.769346
158 3 4.95756 4.43082 11.0931 -0.779191
228 2 0.04625 -0.717118 15.4531 -0.0157944
248 2 6.88459 0.815229 15.1753 0.00380024
266 2 3.59878 2.35931 15.7357 0.167652
226 3 10.6713 5.11214 8.3519 -0.823027
249 2 7.77284 -0.898273 8.60089 0.0110889
57 2 8.05074 4.65048 11.8446 -0.0328338
79 2 7.46166 1.75837 11.6172 0.154019
122 1 9.20329 2.85134 0.0398763 -0.68349
180 3 10.1797 5.76513 10.8717 -0.789854
195 4 11.364 -0.454062 8.57097 1.12584
207 2 11.7474 1.70263 9.66839 0.175548
208 2 12.2135 0.265391 10.793 0.147004
209 2 10.3498 0.785356 10.5481 0.152577
210 2 9.32588 3.13271 9.4908 0.171199
212 2 7.77648 3.19536 8.28622 0.167183
215 1 11.4244 0.726407 10.071 -0.668831
217 1 8.85573 2.8302 8.43542 -0.643002
232 4 12.0857 1.32886 15.7653 0.98602
233 4 11.1538 -1.07389 13.8416 1.2287
234 2 9.98053 -0.863913 12.7348 -0.0181388
235 3 11.2644 0.328102 14.6951 -0.768586
236 3 12.5338 -1.41382 13.0554 -0.824057
247 2 11.0123 2.38629 16.5457 -0.0222844
264 2 9.15164 4.00139 0.158986 0.153532
265 2 8.75473 0.571653 15.9145 0.16542
6 4 -0.871759 5.79403 10.8683 1.27895
16 4 0.101777 11.8462 13.3554 1.29812
5 4 -3.62749 6.04383 9.50006 1.19836
10 4 -2.2358 7.39346 13.148 1.26281
11 4 -3.25901 9.95045 11.4846 1.10115
28 4 -1.01638 10.3219 9.26017 1.5026
30 4 -1.02052 9.52212 14.9868 1.27658
43 2 -3.8104 7.62115 9.06559 -0.0291382
46 2 -3.40473 6.33968 13.7061 0.00113654
47 2 -4.70824 9.80647 10.619 -0.0272864
55 2 -2.1136 10.0352 16.1614 0.00691553
63 2 -5.3523 11.3629 9.01436 0.150504
70 2 -4.3531 12.072 11.9408 0.136943
71 2 -2.93884 11.661 13.111 0.227098
72 2 -4.64345 10.867 13.3511 0.1683
121 1 -3.89891 11.3228 12.6495 -0.690239
141 3 -2.05154 5.83073 9.84432 -0.836025
146 3 -1.26204 6.56024 12.2427 -0.841124
147 3 -2.98637 8.55453 12.2784 -0.780907
166 3 -1.61437 9.18637 8.32026 -0.873605
167 3 -0.906721 11.8182 8.47304 -0.78955
168 3 -2.06769 10.4024 10.5712 -0.800626
172 3 -1.59302 8.10121 14.4549 -0.846183
174 3 -0.944815 10.8303 13.9706 -0.853047
237 4 -5.32293 8.402 15.4059 1.00171
238 2 -3.89131 9.29739 15.5417 -0.0375491
239 2 -3.66627 7.12453 16.31 0.126442
240 1 -4.83149 6.77046 16.2583 -0.671397
252 2 -3.6162 12.6511 0.00377526 0.129637
37 4 6.50982 8.94137 16.6374 1.52753
20 4 1.46166 5.98321 8.90616 1.46261
23 4 4.22206 5.65084 10.1112 1.29936
26 4 1.62501 9.0575 16.6083 1.5264
31 4 1.49182 10.1307 11.1817 1.36282
34 4 6.75856 6.42496 8.54086 1.03181
38 4 4.40673 10.3946 10.0167 1.25636
40 4 6.74532 10.9528 12.0534 1.23063
58 2 4.65127 8.97001 9.11373 0.0110388
59 2 6.67439 7.31176 13.7657 -0.0242388
88 2 3.2274 7.8032 10.7109 0.187242
89 2 4.87902 7.48659 11.5939 0.160783
90 2 3.25312 6.71801 12.3219 0.13885
92 2 2.27195 6.27938 14.4081 0.14694
99 2 1.73408 7.76555 11.7192 0.210461
100 2 0.11169 8.37253 12.3268 0.24672
101 2 1.6094 8.75754 13.3645 0.172587
110 2 7.23568 8.75447 9.36706 0.187788
128 1 3.8189 7.1102 11.3872 -0.686603
129 1 1.3422 5.88858 14.869 -0.6701
132 1 1.18972 8.54763 12.3285 -0.683072
154 3 0.543608 6.30494 10.2601 -0.809668
173 3 0.272989 9.23761 15.8084 -0.866198
175 3 0.608364 10.041 9.84045 -0.805807
176 3 1.04324 11.2883 12.1905 -0.850651
179 3 5.23585 6.29082 9.03312 -0.805832
186 3 4.42108 11.6451 9.00714 -0.809401
187 3 3.06647 10.2146 10.821 -0.843485
190 3 5.66076 10.5018 10.9879 -0.848565
241 4 4.19475 9.70366 14.8889 1.30018
242 2 3.91427 9.06117 13.3616 -0.0152546
243 3 5.54185 8.95489 15.4223 -0.856341
244 3 4.43908 11.2743 14.7412 -0.832811
245 3 2.89043 9.4575 15.6856 -0.863308
267 2 0.422719 6.57664 14.7559 0.222985
269 2 7.29833 11.7236 8.5028 0.151808
181 3 7.87108 5.74388 9.4991 -0.813609
35 4 8.59763 5.9224 10.9025 1.22817
39 4 7.873 8.09358 12.9449 1.23259
135 1 7.09384 8.28041 8.32939 -0.682367
188 3 8.18976 7.30999 11.5972 -0.825797
189 3 9.22358 8.11667 13.8486 -0.796038
191 3 7.35277 9.55848 12.6065 -0.812731
251 2 7.97152 11.7295 11.1952 -0.0404984
262 2 9.74542 6.01197 15.4511 0.151303
271 3 8.22396 9.07821 16.1848 -0.775049
ITEM: TIMESTEP
200
ITEM: NUMBER OF ATOMS
271
ITEM: BOX BOUNDS xy xz yz pp pp pp
-7.3947416789414007e+00 1.4841687805616788e+01 -6.3920571740928587e+00
-2.0304188147543782e+00 1.3447925060356205e+01 -9.0969669923174612e-01
-2.1244394013614532e-01 1.6822043940136147e+01 -2.0142937543981767e+00
ITEM: ATOMS id type x y z q
4 4 -0.152287 3.86173 6.83841 1.17328
65 2 12.8836 2.34344 7.39108 0.209466
67 2 -1.96814 4.45315 5.58156 0.146979
68 2 -0.41728 4.50253 4.33565 0.162718
69 2 -0.722977 5.94968 5.53989 0.159351
82 2 -1.57035 5.94196 1.5478 0.111602
83 2 -0.330539 4.52755 2.22127 0.176306
120 1 -0.852437 4.83513 5.34948 -0.668511
126 1 -0.567137 5.24426 1.42572 -0.644971
138 3 -0.0304022 1.37462 4.23615 -0.810403
231 3 -0.858257 2.61176 0.0380428 -0.745476
3 4 0.957295 1.10966 5.44459 1.19531
13 4 7.54315 2.29608 -0.157666 1.06946
18 4 5.07661 3.94435 0.734242 1.03519
21 4 2.64804 5.68484 4.23986 1.24695
41 2 2.54911 0.931163 4.77982 -0.0238208
50 2 3.77177 2.9143 1.25134 -0.00611393
52 2 2.62599 4.0013 4.29395 -0.0406407
106 2 7.45166 4.88973 3.22275 0.157497
134 1 6.80106 5.3622 3.9893 -0.67322
139 3 0.796578 -0.186371 6.4495 -0.798605
140 3 0.67233 2.50813 6.36641 -0.770037
148 3 7.57105 0.714047 0.0278793 -0.846886
149 3 2.48295 -0.292808 8.8948 -0.757578
152 3 6.29833 3.10287 0.228276 -0.842719
153 3 0.48214 4.88045 7.84536 -0.806601
155 3 1.54002 6.00591 3.19621 -0.795141
177 3 5.25799 5.22685 1.55422 -0.774387
193 4 6.17487 1.50285 5.80005 1.12389
201 2 4.97559 0.591445 3.69527 0.19331
202 2 3.93562 1.82627 4.57122 0.113413
203 2 4.1274 0.0028123 5.35261 0.23612
204 2 6.52422 3.99847 6.01573 0.148908
205 2 5.68715 3.21573 7.53383 0.183632
206 2 4.74425 3.34369 5.93825 0.140647
213 1 4.51792 0.877609 4.6827 -0.667601
214 1 5.76574 3.24815 6.426 -0.677979
218 3 6.33451 0.374363 7.06952 -0.755535
227 4 0.588715 2.01822 -0.00701342 0.964373
229 2 1.45793 3.43171 0.274242 -0.00590662
230 3 1.18153 0.847865 0.887299 -0.790523
246 2 3.35254 0.00144763 2.5801 0.027385
253 2 -2.12838 12.1251 1.27506 0.21578
221 3 7.45261 1.60139 4.90113 -0.836795
56 2 7.1952 5.86525 6.94321 -0.0471942
73 2 9.48856 2.50037 1.09559 0.155908
105 2 7.32092 6.26949 4.46968 0.149415
192 4 13.2572 1.39948 3.93068 1.26285
194 4 8.66617 1.40635 3.90501 1.31241
196 4 10.9558 1.32019 5.8489 1.41423
197 4 10.1088 3.86527 7.42602 1.00051
198 2 12.8481 2.91864 3.31927 -0.0247449
199 2 9.04245 2.99105 3.49679 -0.0328899
200 2 8.45616 4.11794 7.1028 -0.0142675
211 2 9.25511 1.78215 8.32927 0.188521
216 1 13.2532 -0.901413 7.97345 -0.655289
219 3 12.9248 0.340969 2.8105 -0.825368
220 3 8.27993 0.670506 2.57545 -0.819171
222 3 12.4926 1.13343 5.29575 -0.830882
223 3 9.9171 0.953719 4.61059 -0.842812
224 3 10.685 0.172613 7.1859 -0.785904
225 3 10.7807 2.89986 6.35726 -0.842415
250 2 4.44972 12.8103 1.72205 0.0956587
270 2 13.7741 -0.722488 8.96838 0.152453
1 4 1.70909 -0.258855 2.01392 1.0564
2 4 -4.42237 12.3775 7.20665 1.22962
8 4 -1.62983 8.48744 6.83667 1.02904
9 4 -2.65074 10.6317 4.97955 1.46582
25 4 -0.448296 11.1065 2.86358 1.33764
44 2 -0.326374 7.58577 6.39192 0.0341475
45 2 -2.88342 7.33354 6.70211 -0.0471452
60 2 -3.92567 11.2431 1.0868 0.168557
61 2 -4.74275 9.92581 7.11578 0.165356
62 2 8.5686 10.9019 7.64463 0.150738
84 2 -0.307008 4.94694 0.353731 0.18706
93 2 -1.48462 8.97749 1.98972 0.139884
95 2 -1.17585 10.2108 0.702688 0.157448
117 1 -3.25612 12.302 1.08455 -0.647879
118 1 -5.18587 10.7813 7.76557 -0.66094
130 1 -0.685407 9.68124 1.56533 -0.679264
142 3 -5.44262 12.0429 2.78025 -0.751917
143 3 -4.05712 9.96843 4.45551 -0.829459
144 3 -1.73195 9.47846 5.65819 -0.836302
145 3 -3.23223 11.853 6.22979 -0.785061
160 3 -0.153103 12.3419 1.89877 -0.82339
161 3 -1.92708 11.2835 3.67812 -0.81297
263 2 9.8893 8.21664 -0.0734617 0.199603
12 4 1.33393 13.1153 1.27927 1.45008
14 4 0.348272 12.3701 7.72068 1.3162
19 4 0.532621 6.68593 2.02842 0.943033
24 4 1.73006 5.80941 16.7101 1.00623
27 4 2.32132 7.54423 6.59107 1.32201
29 4 1.39818 10.4465 5.39844 1.38024
32 4 6.22265 12.4581 2.05422 1.14259
33 4 5.49458 6.32456 3.02984 1.20329
51 2 -0.131362 8.20346 2.70348 0.017396
54 2 4.19286 7.09736 -0.211367 1.06646e-06
94 2 0.340479 9.2194 1.3758 0.208678
96 2 3.36194 11.6843 4.18261 0.211331
97 2 3.85562 10.2084 5.19822 0.169375
98 2 3.2389 11.7815 6.01597 0.22324
102 2 4.82649 10.3381 1.86127 0.23389
103 2 3.87158 11.5556 2.87934 0.20687
104 2 5.63566 10.8712 3.53356 0.139919
107 2 6.41325 4.65135 4.77882 0.162298
108 2 6.05814 8.92521 7.82955 0.159058
114 2 4.36628 8.0404 5.47724 0.204078
115 2 4.64427 7.60771 7.31356 0.193501
116 2 4.23765 9.39134 6.77578 0.172082
131 1 3.17671 11.0866 5.10368 -0.670417
133 1 4.92088 11.1686 2.56943 -0.690295
137 1 4.13051 8.30701 6.58166 -0.685949
159 3 1.45792 7.10635 0.635297 -0.729857
162 3 2.7713 9.3343 0.163558 -0.765417
163 3 2.502 12.0255 0.963037 -0.814854
164 3 1.86517 7.23051 8.1485 -0.783719
165 3 2.25316 6.20271 5.70368 -0.801754
169 3 0.735234 10.7205 3.95192 -0.803291
170 3 1.45551 8.80817 5.84742 -0.791507
171 3 0.876481 11.4234 6.5672 -0.835257
178 3 4.11571 6.27964 3.95125 -0.808552
182 3 6.29024 7.78789 2.74128 -0.759507
184 3 7.15331 9.40549 0.478423 -0.787964
185 3 6.93274 11.9864 0.721003 -0.81211
259 2 7.70932 9.20602 4.85285 0.174374
268 2 13.5961 -0.179243 7.15993 0.252783
7 4 -5.38592 10.3515 3.68903 1.20643
36 4 7.59215 8.50844 1.74234 1.26925
109 2 7.83495 8.31616 7.72978 0.116285
111 2 7.96657 6.18575 1.57897 0.158038
112 2 9.38197 7.04171 0.598208 0.156917
113 2 7.70482 6.91566 -0.177929 0.180772
136 1 8.26189 7.02366 0.786494 -0.645207
183 3 8.92407 9.14104 2.47973 -0.750466
258 2 8.82049 10.4891 6.03718 0.174976
260 2 7.56238 11.1449 4.65342 0.166963
261 1 8.20565 10.2452 4.98363 -0.657153
42 2 -0.532666 4.20303 11.329 -0.0325639
64 2 -1.07637 2.71971 8.84622 0.173062
66 2 -2.31322 3.96754 8.25816 0.243001
119 1 -1.59033 3.1508 7.98761 -0.66926
254 2 -2.16519 3.3292 15.1173 0.121699
255 2 -1.93655 2.09486 13.6602 0.160993
256 2 -0.539259 2.20946 14.9902 0.139931
257 1 -1.66896 2.34475 14.7476 -0.652559
15 4 2.75326 0.467175 10.1571 1.09144
17 4 5.30689 0.683203 12.0428 1.27343
22 4 4.86819 3.67335 12.7614 1.00393
48 2 1.39901 0.609134 11.1964 0.000411081
49 2 7.63758 -1.52223 14.922 0.00325514
53 2 3.97616 4.45196 13.98 -0.0116751
74 2 2.30296 2.42863 9.09843 0.201088
75 2 2.71241 2.80196 10.9408 0.194363
76 2 0.90952 2.64994 10.4311 0.150197
77 2 6.20084 1.98465 10.0788 0.194254
78 2 7.10742 0.323854 10.4797 0.159358
80 2 2.57808 4.79233 0.326386 0.199042
81 2 1.8749 1.19091 16.4705 0.120208
85 2 6.80564 4.68689 13.1194 0.105055
86 2 6.33943 3.52135 14.7167 0.160156
87 2 5.61823 5.25776 14.737 0.156914
91 2 0.580164 4.83979 14.7091 0.164647
123 1 1.98132 2.19922 10.2433 -0.650881
124 1 6.68588 1.3611 10.8682 -0.647501
125 1 3.27733 4.12193 -0.113833 -0.651199
127 1 5.93996 4.39428 14.1075 -0.667236
150 3 4.08725 0.326098 11.0856 -0.787438
151 3 5.92765 -0.628954 13.0094 -0.797783
156 3 4.86007 2.08315 12.8461 -0.792981
157 3 2.63137 4.94367 9.47855 -0.793547
158 3 4.69592 4.48172 11.3395 -0.787688
228 2 0.267981 -0.0995262 15.4698 -0.0287461
248 2 7.35688 0.683184 15.4343 -0.0200944
266 2 3.27866 2.76142 16.0013 0.0980694
226 3 10.9118 5.18444 8.14611 -0.815413
249 2 8.07742 -0.876451 8.68482 -0.00355936
57 2 8.35632 4.4708 11.6779 -0.0323041
79 2 7.38786 1.9615 11.5173 0.146687
122 1 9.20885 3.26086 0.220764 -0.679275
180 3 10.2234 5.92818 10.806 -0.823065
195 4 11.4283 -0.587222 8.40403 1.12032
207 2 11.7338 1.73165 9.51709 0.161079
208 2 12.4935 0.337616 10.5167 0.152283
209 2 10.6864 0.580624 10.5872 0.151184
210 2 9.63976 3.34271 9.59791 0.151219
212 2 7.99699 3.32114 8.50994 0.175309
215 1 11.5914 0.668703 9.93094 -0.662415
217 1 9.04369 2.93171 8.62618 -0.66281
232 4 12.1382 1.25185 15.8105 0.980535
233 4 11.3481 -1.07821 13.8153 1.23436
234 2 10.1914 -0.668651 12.7223 -0.0260985
235 3 11.5452 0.171718 14.8293 -0.792887
236 3 12.7121 -1.44129 12.9595 -0.81067
247 2 10.8559 2.17834 16.4953 -0.024464
264 2 9.02775 4.29176 0.552039 0.169477
265 2 8.9428 1.14871 16.3239 0.1448
6 4 -0.949918 5.80286 10.9402 1.27103