ITEM: TIMESTEP
0
ITEM: NUMBER OF ATOMS
310
ITEM: BOX BOUNDS xy xz yz pp pp pp
-9.0443569934275416e+00 1.5435014826195875e+01 -7.7519759760840659e+00
9.8835977962569821e-02 1.3580554735429383e+01 -1.2687661911472270e+00
2.3983829263538503e-01 1.7263561707364509e+01 9.3829071339187675e-01
ITEM: ATOMS id type x y z
74 2 -0.45684 1.42541 2.04574
152 4 -1.15595 5.70848 5.10044
183 3 -0.722653 4.25022 4.31979
27 2 1.89602 3.90879 5.11773
159 2 -1.28147 3.18142 1.8202
154 4 -0.193579 4.09475 2.82855
75 2 0.620949 2.02896 3.61132
76 1 0.267797 2.24065 2.52801
160 2 1.15227 2.51099 1.80482
184 3 0.715436 5.24267 2.09956
182 3 -1.72497 5.7511 6.73007
279 2 1.4827 4.03219 8.16046
227 2 0.571152 1.83347 7.21701
16 2 4.27508 0.24179 1.55681
25 2 2.86412 2.77979 6.32528
125 2 3.73428 1.51914 0.262683
48 3 2.85256 1.35491 3.75938
42 1 2.93565 4.19476 5.01412
241 2 3.08827 5.72846 5.85176
26 2 3.2356 4.51611 3.84964
180 3 0.31946 6.63136 5.35202
3 4 3.65545 2.40364 4.77895
49 3 5.23717 2.42877 4.82402
51 3 5.18531 3.10599 2.10346
110 2 4.165 4.22489 6.4259
215 4 7.07345 0.381652 1.52293
98 4 5.02915 2.67718 0.587186
179 3 -2.18841 6.51436 4.35277
223 2 5.84201 1.01058 6.51028
19 2 -2.15877 3.67516 7.82448
78 4 -0.503295 0.945596 11.8155
134 3 4.87495 1.58796 11.0817
100 4 5.11221 3.09872 14.0216
145 2 -1.53627 6.94472 15.5167
108 2 5.12565 2.27015 15.6707
146 2 -1.67128 3.19548 16.9711
245 1 -2.1121 6.25028 11.9363
83 2 0.421009 4.26891 10.8009
132 3 2.74044 1.57724 9.27707
173 2 0.816428 5.53691 14.1751
124 2 -0.471854 5.95998 15.371
131 1 -0.0234122 6.27215 14.4111
126 2 -0.792444 6.22829 13.4973
289 2 2.44894 3.41069 13.8218
94 4 2.0572 4.74685 10.428
81 2 0.181768 3.2037 15.2093
79 4 1.2526 2.16556 14.2475
162 2 -3.33593 5.27233 10.8694
148 1 -1.46116 2.53518 15.9891
242 2 -1.0633 5.87398 11.6832
120 2 2.00296 6.39125 11.2677
90 3 0.341821 1.49037 13.0684
92 2 -0.622926 1.70475 16.0658
290 1 3.24444 1.69224 14.2094
85 2 3.60078 1.7817 15.3973
87 1 0.868606 3.70305 9.01691
89 3 0.236978 1.2195 10.3914
95 4 4.03299 2.50022 10.112
243 2 -3.06583 4.97944 12.6772
147 2 -1.58828 3.10317 15.0138
136 3 4.83 3.21368 8.93997
133 3 3.12923 3.82308 11.0956
252 2 3.73065 2.77051 12.8435
280 2 -0.198369 3.96021 8.91883
77 4 1.19593 1.74759 9.13337
118 2 2.24623 6.28341 8.76139
141 3 3.9321 4.76308 16.5552
129 1 2.93742 6.66846 9.70905
220 1 4.24765 1.84488 17.2509
216 2 -3.70287 5.63574 16.4812
84 2 1.90235 0.960447 15.3921
196 2 -1.40818 7.11011 0.54248
233 3 -1.67681 12.8893 7.21143
2 4 -3.59071 7.08603 3.80112
231 1 -6.6645 12.7937 7.4443
168 2 1.24398 9.64133 7.5841
287 2 -6.25335 12.1684 2.16919
226 2 -6.97994 12.2821 6.47311
157 2 -7.18374 12.2351 8.32448
161 2 0.696626 7.697 0.588599
41 1 -4.47684 11.0779 5.73073
208 4 -5.79624 10.9869 0.992821
200 3 -4.4995 10.1373 1.26837
219 2 -3.95689 11.3804 3.82081
80 2 -5.12452 10.7305 4.83833
225 2 -5.5341 12.6735 7.54987
156 2 1.73614 7.94708 7.44813
199 3 -3.19445 8.44541 2.92476
193 4 -3.35785 9.0156 1.48423
170 2 -3.42871 8.0906 6.10694
22 2 -3.84099 10.1208 6.17947
23 2 -5.24531 11.4815 6.56435
164 2 -3.28913 8.96046 7.84459
24 2 -3.73063 11.956 5.44584
60 3 -4.70379 7.63247 5.14671
153 4 -1.86423 7.12786 7.61639
230 2 -0.949823 12.0476 4.36382
177 1 -2.69161 8.57902 6.9323
169 2 -1.6707 10.0154 6.41652
158 2 -0.845873 8.42657 6.80101
171 2 -1.315 11.7516 8.62207
213 2 -1.36159 9.66736 0.579123
229 2 0.0578235 9.027 5.2446
228 2 -0.618545 8.49202 1.51459
222 4 -0.919725 11.6199 6.15223
174 2 -0.335256 7.91681 3.32981
172 2 1.26104 9.45212 2.71808
178 1 0.153576 8.25802 2.37491
150 4 1.73723 7.10396 5.83363
155 4 1.28998 6.8897 2.02911
175 1 1.53743 9.00418 5.93328
185 3 2.75836 7.3005 2.36665
310 3 0.00821222 11.4449 1.62927
20 2 -6.11506 9.74703 8.26094
204 2 -6.30751 10.4226 4.29104
1 4 -4.6599 12.5937 2.84944
203 2 -7.2669 12.0866 3.85393
195 2 -3.55787 7.74779 0.287667
259 2 0.594547 8.98036 14.2826
247 4 -5.44548 8.98305 11.1178
210 2 -3.64431 13.2496 17.1377
198 1 -3.27351 9.80539 17.0996
144 2 0.459091 7.31352 14.5228
257 3 -4.27601 7.93265 10.8296
149 3 -4.1954 7.75954 15.1609
309 3 -7.38728 12.8679 16.3426
88 1 -3.61955 11.4608 13.0036
300 2 -4.19651 12.343 12.5566
114 2 -4.15038 11.0624 13.9139
283 2 -5.38409 10.3737 14.34
250 2 -5.50368 10.2988 9.84059
166 2 -3.42863 10.4717 12.0691
253 2 -5.33211 9.75971 12.6256
142 4 -2.81834 8.1235 15.7623
276 2 -2.55554 11.9575 14.5631
254 2 -7.44039 11.5066 12.9852
181 3 -1.89796 7.20939 9.22714
194 2 -3.68706 10.3567 16.2227
262 2 1.55572 8.11563 15.9407
167 2 -2.25028 7.2214 12.5727
248 2 -7.31264 11.4902 11.0101
119 2 -2.16033 10.4365 9.49581
96 4 -1.66894 11.2774 13.1566
135 3 -0.902273 12.4151 12.2324
38 2 -1.05881 9.1656 9.3857
197 2 -1.92471 9.11729 14.6427
176 1 -1.21505 11.0605 9.51874
143 2 -1.07934 11.6508 10.5579
101 4 0.548224 9.93877 9.30054
122 2 -0.085535 9.30858 12.1897
151 4 -3.00804 6.98493 10.5027
112 2 -0.69362 7.9682 13.4348
121 2 -1.93304 9.08636 12.4361
130 1 -0.907115 9.05618 12.9593
123 2 -0.528531 10.2318 14.2534
284 1 -6.29227 9.70545 14.3715
297 2 1.58758 8.72679 10.8742
93 2 -4.2056 13.2006 13.8567
86 2 -7.40011 12.0555 15.8022
264 1 1.54966 9.02246 14.9865
4 4 6.19908 2.75195 3.37602
50 3 7.08641 1.36757 2.81502
57 3 7.18968 4.12535 3.63153
116 2 7.11742 3.78305 7.06474
117 2 5.58951 6.03017 8.14679
128 1 6.95774 5.12256 8.142
9 4 7.28379 5.66794 4.04484
61 3 8.57111 6.04283 5.05103
99 4 5.41047 4.09755 7.75156
7 4 10.1845 0.578228 5.76177
45 1 5.6128 6.11149 5.02569
109 2 7.80031 5.83837 7.89361
33 2 6.13401 6.34183 6.0098
18 2 8.32592 1.02633 5.8803
274 2 9.14084 2.8956 2.29769
58 3 9.38747 5.2127 0.950825
72 2 12.9092 1.07541 2.41886
295 2 9.25914 2.05308 7.93952
34 2 4.69744 5.26919 5.00935
56 3 11.1746 5.98056 2.81718
73 2 10.2668 1.31728 1.62388
31 2 9.62818 3.94744 3.79063
46 1 12.7943 2.92459 7.10511
62 3 10.6613 5.01173 6.27552
12 4 9.85433 6.40169 5.90553
29 2 11.8908 3.32497 3.57372
44 1 10.0651 3.2882 2.88606
71 4 11.302 1.71297 3.09153
8 4 10.5355 4.90288 1.94183
11 4 11.0253 3.56482 6.87793
53 3 10.8461 0.925486 4.38879
59 3 10.0127 2.4088 6.65832
214 3 9.44585 1.47897 0.396424
30 2 11.8227 4.24289 0.853793
37 2 12.9623 1.76904 7.43417
36 2 11.5669 3.59747 8.50538
35 2 13.0574 3.17964 5.92687
106 2 9.57525 2.5814 0.300948
271 3 13.2303 0.881104 11.8473
104 2 3.98919 6.18078 9.64755
111 2 4.59907 6.27314 12.7129
278 2 11.4543 4.03609 16.4097
291 2 6.53821 1.63053 9.0457
293 1 7.59569 2.17017 10.4967
294 2 9.02331 1.37996 10.9865
107 2 7.68044 3.23088 10.6828
137 3 6.42249 2.47754 13.2076
139 3 5.07428 4.65127 14.1901
190 2 6.31963 6.50349 12.587
102 4 4.85779 5.61125 15.5901
187 4 7.94617 5.87578 12.8967
140 3 6.18708 6.13398 16.2378
221 4 8.32947 1.19509 9.20204
305 2 8.62826 2.87302 12.5423
307 2 7.76675 4.57038 14.1646
266 4 11.8109 0.864117 12.5212
189 2 8.37185 5.09261 11.3197
308 1 8.83773 3.95955 12.7637
299 2 8.75896 3.16951 14.4502
5 4 9.26826 2.11775 15.9015
105 2 4.12364 6.80931 11.2728
138 3 4.79492 6.96067 12.0465
10 4 7.23787 7.0889 16.8904
52 3 11.0222 1.95841 16.2485
91 4 12.4051 1.39656 16.6272
192 3 9.07116 6.91851 13.3153
97 4 6.3651 1.59404 11.7484
188 2 7.9391 1.0776 14.1951
103 2 10.052 4.30253 11.2821
306 2 9.8891 4.41288 14.1869
240 4 10.8768 3.86422 12.7597
273 3 11.32 2.34764 12.7096
55 3 11.7192 4.78009 16.9652
115 2 7.07163 4.75494 9.21915
218 2 6.11723 2.19622 17.0252
239 1 3.43499 9.90208 1.14336
66 3 5.32833 7.77499 1.16395
285 2 7.20678 12.4439 1.47944
232 1 0.765258 11.984 5.11132
224 2 0.658489 11.1608 6.82349
65 3 7.07268 9.55498 2.48559
68 3 5.74481 9.69131 4.89388
63 3 7.11913 6.74928 2.83574
238 2 2.44834 9.27539 0.551955
54 3 3.074 12.2831 6.89227
163 2 2.98467 9.82636 5.26389
67 3 9.3478 7.08646 7.38493
302 2 6.25949 11.5153 8.32577
202 2 8.02348 11.3217 5.59024
43 1 5.59247 12.3669 8.04888
212 2 0.80513 12.2132 3.71452
32 2 5.40064 7.0786 4.43999
207 1 6.08405 12.4953 1.32796
237 2 3.06183 10.8156 1.61602
209 2 8.28851 10.1573 1.62608
235 2 4.01817 9.68616 2.96238
286 2 5.59122 11.4635 1.26452
205 2 5.70725 11.7873 3.10368
234 4 3.91597 8.2231 1.91312
6 4 3.99393 11.2981 7.81001
15 4 5.51408 9.0584 6.29558
40 2 4.76341 7.53151 6.08552
69 3 6.90905 8.69906 7.13799
70 3 4.4786 9.88733 7.10858
201 4 6.60173 10.4243 3.75381
13 4 6.84702 7.79504 1.7385
14 4 8.34425 8.24648 7.96791
165 2 2.58784 8.13656 4.64803
206 1 8.16696 11.1208 4.47586
64 3 7.8689 7.4756 0.539648
301 2 5.99993 12.7824 7.09444
217 2 0.799209 11.7703 1.16928
236 2 4.26925 10.1978 0.42804
211 4 1.33598 10.2243 4.47933
288 2 3.02972 7.77566 9.67797
186 4 9.54266 7.8517 14.6723
277 2 1.82068 12.5467 14.5332
17 2 0.443915 12.5911 15.7762
127 1 0.943488 13.1853 14.9598
292 2 0.580773 11.915 9.23795
191 3 8.38697 7.53563 15.7918
298 1 1.52828 10.0313 10.8397
263 2 1.62137 10.1418 15.5318
260 2 4.26187 10.0962 15.5895
261 2 3.51143 9.29107 13.112
269 2 5.96195 10.3092 15.1148
258 4 3.34009 8.78543 14.7816
272 3 2.95347 12.3833 11.7086
265 4 3.15065 11.0327 10.9206
47 1 4.69952 9.90074 11.6473
281 2 8.49257 9.80899 15.3457
296 2 0.978527 10.6479 11.6749
256 1 7.45248 11.6103 11.9564
21 2 7.83296 7.55719 9.64765
251 2 8.3269 8.26737 11.3816
282 2 8.56535 9.53694 13.3869
82 2 6.43252 10.9654 11.8607
270 3 3.41489 11.2095 9.38223
39 2 5.37915 10.2785 10.7163
249 2 7.54217 9.84551 9.83481
303 2 5.396 12.5925 15.5289
244 2 6.24366 11.2951 13.5171
246 1 5.48955 11.1206 14.4614
275 2 4.50865 10.8584 14.085
304 2 4.32411 12.6419 14.0771
255 1 8.45416 9.21783 9.80328
268 2 5.07472 10.3154 12.6484
267 2 4.7581 8.70252 11.7189
28 2 5.3324 13.0787 8.88113
113 2 4.06049 7.19289 15.1582
ITEM: TIMESTEP
100
ITEM: NUMBER OF ATOMS
310
ITEM: BOX BOUNDS xy xz yz pp pp pp
-9.0443569934275416e+00 1.5435014826195875e+01 -7.7519759760840659e+00
9.8835977962569821e-02 1.3580554735429383e+01 -1.2687661911472270e+00
2.3983829263538503e-01 1.7263561707364509e+01 9.3829071339187675e-01
ITEM: ATOMS id type x y z
74 2 -0.267737 1.48361 2.0052
152 4 -1.17573 5.75643 5.13714
183 3 -0.920684 4.28392 4.28668
27 2 1.82754 3.89891 5.46182
159 2 -1.09722 3.13623 1.6535
154 4 -0.191824 4.08412 2.85174
75 2 0.762112 2.10185 3.62138
76 1 0.465584 2.3112 2.47365
160 2 1.36205 2.49148 1.81144
184 3 0.652779 5.25631 2.08896
182 3 -1.80709 5.7438 6.69845
279 2 1.75379 3.87924 8.03536
227 2 0.451833 1.57342 7.40121
16 2 4.25568 0.243375 1.51637
25 2 2.89193 2.62787 6.30336
19 2 -2.18515 3.51916 7.59684
48 3 2.93566 1.32165 3.75802
42 1 2.88943 4.22585 5.17449
241 2 3.01173 5.87105 6.08861
26 2 2.97437 4.46009 4.02475
180 3 0.305687 6.53688 5.36485
3 4 3.69374 2.47904 4.71878
49 3 5.23415 2.39787 4.81541
51 3 5.21509 3.02714 2.05686
110 2 4.13038 4.46054 6.54461
215 4 7.0653 0.419438 1.60781
98 4 4.98982 2.68932 0.546185
179 3 -2.32919 6.54066 4.35016
223 2 5.53142 0.817129 6.54406
125 2 3.73764 1.53306 0.288364
78 4 -0.611285 0.798787 11.8278
134 3 4.97996 1.5197 10.9777
100 4 5.06183 3.04579 13.9879
145 2 -1.54586 6.9644 15.4927
108 2 5.12348 2.16446 15.583
146 2 -1.6765 3.14001 16.8614
245 1 -2.27199 6.33353 11.8858
83 2 0.597093 4.06842 10.9165
132 3 2.75904 1.70979 9.43166
173 2 0.787306 5.71868 14.0733
124 2 -0.51571 5.99118 15.3651
131 1 -0.0576143 6.37507 14.3675
126 2 -0.91843 6.41351 13.429
289 2 2.33827 3.41041 13.9358
94 4 2.15344 4.76849 10.5055
81 2 0.320698 3.12472 15.5206
79 4 1.18927 2.14035 14.3878
162 2 -3.43511 5.21216 10.8853
148 1 -1.49677 2.38456 15.9254
242 2 -1.19609 6.03321 11.6643
120 2 2.10298 6.42074 11.271
90 3 0.258909 1.69256 13.1924
92 2 -0.607045 1.60856 16.0914
290 1 3.19779 1.6897 14.2564
85 2 3.56858 1.66144 15.3924
87 1 1.11096 3.77187 9.07664
89 3 0.233091 1.3616 10.2746
95 4 4.15452 2.5722 10.0907
243 2 -3.17722 5.00997 12.6595
147 2 -1.54861 2.82394 14.8971
136 3 5.00782 3.33882 8.95881
133 3 3.40584 3.87912 10.8586
252 2 3.64001 2.72653 12.9151
280 2 -0.0357 3.89225 8.92354
77 4 1.22028 1.89313 9.20695
151 4 -3.04404 6.87537 10.3422
141 3 3.83513 4.62332 16.3134
129 1 2.98725 6.4829 9.60589
220 1 4.27616 1.86084 17.2326
97 4 6.35925 1.51245 11.747
118 2 2.19369 6.16745 8.76943
196 2 -1.53194 7.17641 0.494226
233 3 -1.41668 12.9216 7.15638
2 4 -3.59977 7.1869 3.77602
231 1 -6.50367 12.762 7.4468
168 2 1.26677 9.67849 7.659
287 2 -6.16832 11.8566 2.42646
226 2 -7.00258 12.123 6.61215
157 2 -6.59312 12.1345 8.42116
161 2 0.653103 7.6415 0.529557
41 1 -4.43432 11.0092 5.60955
208 4 -5.81016 10.8758 0.97515
200 3 -4.46924 10.0263 1.15084
219 2 -3.95514 11.2551 3.6874
80 2 -5.04597 10.5048 4.71778
225 2 -5.4487 12.9812 7.17858
156 2 1.93378 8.09691 7.46552
199 3 -2.9923 8.56388 2.85249
193 4 -3.26397 9.0406 1.35149
170 2 -3.60497 8.23617 6.27454
22 2 -4.00603 10.1049 6.24023
23 2 -5.21905 11.6579 6.32565
164 2 -3.4832 8.82307 8.06744
24 2 -3.63037 11.7606 5.31188
195 2 -3.46184 7.7013 0.299467
153 4 -1.86219 7.15657 7.62904
230 2 -1.03509 11.9866 4.35632
177 1 -2.87923 8.59012 7.14381
169 2 -2.01268 10.1075 6.59668
158 2 -1.0066 8.67442 7.16503
171 2 -1.41623 11.8535 8.56915
213 2 -1.31945 9.9278 0.654127
229 2 0.0453607 9.04764 5.34844
228 2 -0.644326 8.45205 1.45668
222 4 -1.01672 11.6036 6.09376
174 2 -0.503576 7.62816 3.19797
172 2 1.01044 9.5068 2.82315
178 1 0.0598968 8.13281 2.35596
150 4 1.72843 7.05785 5.7862
155 4 1.285 6.82287 1.92946
175 1 1.72288 8.91191 5.98473
185 3 2.77719 7.34191 2.20544
310 3 -0.21018 11.3981 1.60676
20 2 -6.11964 9.8831 8.34516
204 2 -6.36541 10.4775 4.33608
1 4 -4.6319 12.5856 2.84789
203 2 -7.47582 12.1456 4.15646
224 2 0.603871 11.1301 6.7501
60 3 -4.64956 7.61474 4.9165
259 2 0.668898 9.1679 14.4932
247 4 -5.43333 8.84923 10.9907
254 2 -7.63112 11.6092 13.2549
198 1 -3.22809 9.90427 17.0594
144 2 0.464803 7.45648 14.6722
257 3 -4.23537 7.91166 10.5642
149 3 -4.22769 7.81887 15.0814
309 3 -7.29424 12.8541 16.4789
88 1 -3.82336 11.4242 12.831
300 2 -3.63521 12.1397 12.0072
114 2 -4.97317 11.3495 13.0944
283 2 -5.6769 10.5486 13.9479
250 2 -5.49912 10.3257 9.90631
166 2 -3.49089 10.1883 12.4909
253 2 -5.3381 9.44141 12.6035
142 4 -2.87543 8.13027 15.7309
276 2 -2.84497 12.1548 14.2308
93 2 -4.29207 13.1563 13.7206
181 3 -1.9768 6.9763 9.15409
194 2 -3.65794 10.2815 16.0144
262 2 1.49862 8.0201 16.1052
167 2 -2.45302 7.4116 12.4518
84 2 -5.89227 13.3809 15.4429
119 2 -2.29545 10.5439 9.63288
96 4 -1.6918 11.2748 13.1287
135 3 -0.825035 12.2446 12.0481
38 2 -1.03967 9.2289 9.46293
197 2 -1.98102 9.14514 14.6903
176 1 -1.3469 11.0886 9.46035
143 2 -1.00066 11.6035 10.4927
101 4 0.518444 10.1329 9.24166
122 2 0.000439081 9.59062 12.2305
86 2 -7.95748 12.1229 16.0176
112 2 -0.440618 8.18174 13.5168
121 2 -1.98561 9.14666 12.6179
130 1 -0.81422 9.28699 13.1139
123 2 -0.719363 10.3608 14.4667
284 1 -6.39045 9.62449 14.309
297 2 1.23889 9.06092 11.0676
248 2 -7.22752 11.3746 11.3559
264 1 1.52678 9.06181 15.3051
210 2 -3.58352 13.25 17.1631
4 4 6.24348 2.72518 3.32728
50 3 7.18833 1.29369 3.01075
57 3 7.19149 4.04813 3.87427
116 2 7.01443 3.86376 6.96986
117 2 5.88874 6.30802 8.28052
128 1 7.00517 5.26239 8.22077
9 4 7.15429 5.6024 4.17735
61 3 8.42731 6.07855 5.15643
99 4 5.42408 4.31273 7.79636
7 4 10.1538 0.660514 5.73869
45 1 5.54957 6.06084 5.10455
109 2 7.94584 5.74242 7.84888
33 2 5.93846 6.18432 6.18714
18 2 8.37749 1.07548 5.5885
274 2 9.36346 2.90713 2.59573
58 3 9.18283 5.17627 1.24782
72 2 13.1274 1.21175 2.21552
295 2 9.24551 1.93464 7.96474
34 2 4.54945 5.36545 5.08218
56 3 11.2301 6.05173 2.75313
73 2 10.5916 1.56289 1.68446
31 2 10.0842 3.54108 4.22264
46 1 12.6853 2.91473 6.90847
62 3 10.642 5.03934 6.18943
12 4 9.80675 6.47248 5.88386
29 2 12.2649 3.3344 3.40524
44 1 10.3333 3.3961 3.1127
71 4 11.5564 1.76881 3.0755
8 4 10.575 4.80187 1.95458
11 4 10.9071 3.58919 6.75986
53 3 11.0469 0.886173 4.38537
59 3 9.82807 2.47401 6.56027
214 3 9.60452 1.48533 0.432683
30 2 11.8127 4.22523 0.886947
37 2 12.8372 1.74116 7.26222
36 2 11.5615 3.66473 8.37299
35 2 12.8915 3.05769 5.72399
28 2 13.054 0.619218 8.58968
271 3 13.2716 1.05225 11.8151
104 2 3.95489 5.94475 9.50278
111 2 4.59748 6.37138 12.6256
278 2 11.4633 4.03038 16.5445
291 2 6.64046 1.64007 8.98977
293 1 7.54285 2.18331 10.4971
294 2 8.99881 1.39527 11.0712
107 2 7.54078 3.24462 10.7741
137 3 6.26989 2.45726 13.1313
139 3 5.07591 4.80127 14.1273
190 2 6.40147 6.38588 12.466
102 4 4.92169 5.57081 15.5337
187 4 7.98264 5.86985 12.9677
140 3 6.3055 5.82583 16.1646
221 4 8.43273 1.14793 9.28465
305 2 8.53678 2.82477 12.8038
307 2 7.71388 4.58462 14.2088
266 4 11.8992 0.940041 12.597
189 2 8.23644 5.01081 11.3603
308 1 8.82526 3.98135 12.8142
299 2 8.74741 3.11494 14.5205
5 4 9.20267 1.98387 15.8522
105 2 4.27601 6.74717 11.0907
138 3 4.96357 6.88591 11.8658
10 4 7.29729 6.9026 16.9137
52 3 10.8273 1.89715 16.0864
91 4 12.3685 1.47024 16.5862
192 3 9.0214 6.99705 13.3324
113 2 4.08604 7.14714 15.1988
216 2 11.319 5.44135 16.0575
103 2 9.83594 4.22703 11.3324
306 2 9.91621 4.43589 14.2919
240 4 10.8131 3.84745 12.8184
273 3 11.2519 2.35824 12.8045
55 3 11.6802 4.94267 16.7788
115 2 7.23364 4.74361 9.21856
218 2 6.02957 2.35166 17.1081
106 2 8.413 3.49946 17.1922
239 1 3.25567 10.1788 1.43595
66 3 5.30414 7.8932 1.16217
285 2 7.36989 12.4865 1.1506
232 1 0.789811 11.9283 5.02111
211 4 1.39783 10.1657 4.64441
65 3 7.26224 9.22378 2.44607
68 3 5.84003 9.81037 4.97804
63 3 6.90291 6.58423 2.84968
238 2 2.28631 9.87784 0.926579
54 3 2.86359 12.1044 6.76312
163 2 3.09893 9.78646 5.35355
67 3 9.3141 7.25756 7.25197
302 2 6.28975 11.5944 8.31739
202 2 7.98577 11.0159 5.83027
43 1 5.62123 12.367 7.82491
212 2 0.888563 12.0894 3.75689
32 2 5.34292 7.0828 4.56498
207 1 6.2519 12.4988 1.2815
237 2 3.01701 11.0189 2.21284
209 2 8.24026 9.87243 1.46322
235 2 4.08547 9.67857 3.12864
286 2 5.83325 11.4587 1.06863
205 2 5.71168 11.677 2.97316
234 4 3.92765 8.46224 1.8842
6 4 4.01005 11.3468 7.77369
15 4 5.51705 9.13532 6.41703
40 2 4.84027 7.53626 6.20702
69 3 6.95565 8.81658 7.17192
70 3 4.54329 9.88623 7.34922
201 4 6.64459 10.414 3.77239
13 4 6.85557 7.62205 1.59619
14 4 8.24977 8.40466 7.92089
236 2 4.00584 10.4573 0.636746
206 1 8.14419 11.0297 4.65599
64 3 7.80868 7.52195 0.300512
301 2 5.95299 12.8514 6.87561
217 2 0.674055 11.7244 1.12524
165 2 2.5885 8.11474 4.54599
288 2 3.17282 7.58235 9.5076
186 4 9.49889 7.80814 14.6968
277 2 1.78679 12.2606 14.8687
17 2 0.18149 12.556 15.9946
127 1 0.857831 12.9029 15.1095
292 2 0.563144 11.9155 9.30202
191 3 8.62399 7.25136 15.9333
298 1 1.44441 10.2738 10.8826
263 2 1.8722 10.2195 15.7835
260 2 4.4977 9.71937 15.5112
261 2 3.28619 9.02014 13.1438
269 2 5.86694 10.5785 15.4721
258 4 3.22365 8.68217 14.8728
272 3 3.10414 12.3818 11.9231
265 4 3.15844 11.0896 11.0945
47 1 4.59639 9.76666 11.8939
281 2 8.61398 9.80666 15.3831
296 2 0.974891 10.8979 11.7491
256 1 7.40334 11.5371 12.1884
21 2 7.75927 7.64446 9.60524
251 2 8.40024 8.05148 11.2014
282 2 8.28756 9.47726 13.5251
82 2 6.26509 10.812 12.0055
270 3 3.41717 11.2406 9.57074
39 2 5.2699 10.1685 10.9084
249 2 7.61117 9.95564 9.9395
303 2 5.58149 12.7706 15.451
244 2 6.10299 11.3362 13.7745
246 1 5.42929 11.2084 14.6986
275 2 4.36806 11.0883 14.4992
304 2 4.48705 12.8626 14.1774
255 1 8.45613 9.26657 9.74168
268 2 4.92572 10.3213 12.9873
267 2 4.63881 8.61288 11.9423
188 2 0.288199 13.065 14.0995
ITEM: TIMESTEP
200
ITEM: NUMBER OF ATOMS
310
ITEM: BOX BOUNDS xy xz yz pp pp pp
-9.0443569934275416e+00 1.5435014826195875e+01 -7.7519759760840659e+00
9.8835977962569821e-02 1.3580554735429383e+01 -1.2687661911472270e+00
2.3983829263538503e-01 1.7263561707364509e+01 9.3829071339187675e-01
ITEM: ATOMS id type x y z
74 2 -0.323302 1.43926 2.01533
152 4 -1.12463 5.85535 5.11481
183 3 -1.00723 4.21239 4.31304
27 2 1.8701 3.76544 5.76107
159 2 -1.25546 3.25826 1.71642
154 4 -0.259109 4.11735 2.87727
75 2 0.795447 2.16034 3.52489
76 1 0.345149 2.36125 2.37304
160 2 1.14746 2.56713 1.61564
184 3 0.688746 5.27098 2.42505
182 3 -1.7616 5.80194 6.72494
279 2 1.78025 4.14559 8.36982
227 2 0.618479 1.36494 7.39046
16 2 4.16625 0.164595 1.35585
25 2 2.98943 2.42464 6.42022
19 2 -2.30376 3.85185 7.47518
48 3 3.11774 1.33452 3.71265
42 1 2.94004 4.01667 5.22951
241 2 2.87308 5.60451 6.18431
26 2 2.73426 4.36386 4.04919
180 3 0.40164 6.44875 5.28885
3 4 3.68847 2.41502 4.76701
49 3 5.23575 2.44713 4.82243
51 3 5.38845 3.23619 2.15774
110 2 4.1883 4.51898 6.57295
215 4 7.00245 0.41822 1.5883
98 4 5.04951 2.83399 0.690794
118 2 2.44834 6.03446 8.62505
223 2 6.0946 1.16717 6.48201
125 2 3.72314 1.74606 0.47772
78 4 -0.544372 0.89935 11.9201
134 3 4.95686 1.49449 10.9472
100 4 4.98186 3.08857 13.8439
145 2 -1.66107 6.91486 15.385
108 2 4.91113 2.523 15.6188
146 2 -1.8239 3.30984 16.5584
245 1 -2.37726 6.43259 12.0816
83 2 0.641709 4.07366 10.8896
132 3 2.80936 1.91185 9.30032
173 2 0.649602 5.55042 14.0591
124 2 -0.579222 5.94128 15.2865
131 1 -0.0528114 6.34978 14.3941
126 2 -0.862229 6.50027 13.5072
289 2 2.30463 3.39913 13.7648
94 4 2.30624 4.82745 10.488
81 2 0.0587017 3.18853 15.4071
79 4 1.09611 2.19143 14.3882
162 2 -3.11755 5.04983 11.0247
148 1 -1.6228 2.32775 15.7994
242 2 -1.2792 6.37519 12.0084
120 2 2.31402 6.47448 11.3571
90 3 0.338833 1.62255 13.1861
92 2 -0.701381 1.55781 16.089
290 1 3.13838 1.83811 14.3218
85 2 3.40203 1.88973 15.4261
87 1 1.09289 3.72832 9.13465
89 3 0.226629 1.36845 10.4413
95 4 4.05724 2.51109 10.0476
243 2 -3.16073 5.0592 13.0227
147 2 -1.7142 2.61357 14.7065
136 3 5.12366 3.25393 8.98474
133 3 3.45119 3.949 11.0053
252 2 3.60336 2.74307 12.7761
84 2 1.81039 0.939706 15.4365
77 4 1.18779 1.84832 9.23834
151 4 -2.98437 6.76809 10.4566
141 3 3.92929 4.72489 16.5066
129 1 3.07023 6.60091 9.64308
220 1 4.1998 1.99928 17.2361
280 2 0.0311493 3.8155 8.81767
196 2 -1.61761 7.21032 0.441869
233 3 -1.56292 12.9413 7.2406
2 4 -3.52946 7.20969 3.7283
231 1 -6.4414 12.6246 7.35114
168 2 1.36149 9.82421 7.53847
287 2 -6.20399 12.1644 2.38667
226 2 -6.49584 12.4142 6.24367
157 2 -6.97857 11.8649 7.97835
161 2 0.434858 7.21302 0.406582
41 1 -4.21526 11.1132 5.58971
208 4 -5.89184 10.9035 1.05044
200 3 -4.61389 10.0362 1.18059
219 2 -3.77182 11.262 3.6335
80 2 -4.88311 10.6468 4.76928
225 2 -5.3325 12.7295 7.67663
156 2 1.6994 7.8669 7.49738
199 3 -3.00863 8.6024 2.77064
193 4 -3.39152 8.99512 1.29673
170 2 -3.5366 8.18909 6.24845
22 2 -3.77573 10.1819 6.17995
23 2 -4.95805 11.6652 6.32418
164 2 -3.31842 8.87237 8.1322
24 2 -3.41736 11.8917 5.28673
179 3 -2.09057 6.77793 4.21096
153 4 -1.90584 7.09962 7.64543
230 2 -1.0411 11.7548 4.43031
177 1 -2.81932 8.59879 7.09993
169 2 -1.84011 10.0441 6.51015
158 2 -1.00437 8.59596 7.0443
171 2 -1.35349 11.8012 8.65072
213 2 -1.48371 9.84531 0.536687
229 2 0.0291697 8.95139 5.40078
228 2 -0.734414 8.45753 1.28151
222 4 -0.930308 11.6526 6.21861
174 2 -0.538406 7.51444 3.02885
172 2 1.17303 9.10036 2.70717
178 1 0.0723401 8.04417 2.0981
150 4 1.76214 7.04574 5.83636
155 4 1.26672 6.70988 1.85302
175 1 1.69894 8.91134 5.99399
185 3 2.71744 7.30231 1.9595
310 3 -0.329705 11.4513 1.46989
20 2 -6.05696 9.96229 8.31739
204 2 -6.23174 10.7063 4.21902
1 4 -4.53295 12.5393 2.82334
203 2 -7.66311 12.2708 4.44204
60 3 -4.75231 7.48245 4.85551
211 4 1.32121 9.90765 4.51796
259 2 0.661236 9.20835 14.6208
247 4 -5.55693 8.90991 10.9566
264 1 1.53441 9.00448 15.4794
198 1 -3.36716 9.83402 16.8782
144 2 0.51662 7.35073 14.6769
257 3 -4.42293 7.83562 10.5159
149 3 -4.25502 7.75427 14.9887
309 3 -7.40314 12.8519 16.5101
88 1 -3.88463 11.3997 13.052
300 2 -3.77736 12.3104 12.3584
114 2 -4.98197 11.287 13.4105
283 2 -5.5191 10.3863 14.3654
250 2 -5.5274 10.4394 9.99585
166 2 -3.60588 10.3607 12.4582
253 2 -5.30625 9.38534 12.6306
142 4 -2.90845 8.09579 15.6053
276 2 -3.05968 11.616 14.5761
93 2 -4.32378 13.3247 13.9041
181 3 -1.94914 6.99109 9.23267
194 2 -3.86576 10.2516 15.971
262 2 1.50046 7.83895 16.0794
167 2 -2.69233 7.55309 12.5688
210 2 -3.73825 13.497 16.9591
119 2 -2.11745 10.2707 9.54422
96 4 -1.73014 11.3147 13.2442
135 3 -1.0466 12.4433 12.0971
38 2 -0.820182 9.19604 9.16776
197 2 -1.80864 9.14203 14.7718
176 1 -1.29018 11.0313 9.52613
143 2 -1.17393 11.5398 10.5035
101 4 0.64673 10.1256 9.24943
122 2 0.199937 9.64502 12.3913
86 2 -7.83035 12.0563 15.9949
112 2 -0.525723 8.32148 13.5017
121 2 -2.03876 9.38424 12.4491
130 1 -0.699223 9.3626 13.17
123 2 -0.504962 10.6702 14.4292
284 1 -6.33767 9.58751 14.3315
297 2 1.39277 9.01491 11.0397
195 2 -4.94501 8.64915 17.2404
4 4 6.32479 2.78109 3.42288
50 3 7.00695 1.34626 2.89398
57 3 7.31024 4.1058 3.91946
116 2 6.96961 3.89525 6.73989
117 2 5.88781 6.16375 8.32742
128 1 7.13791 5.16884 7.99322
9 4 7.09139 5.68961 3.94617
61 3 8.41106 6.14593 4.80853
99 4 5.4767 4.30885 7.8429
7 4 10.1384 0.442671 5.62295
45 1 5.37621 6.07887 4.92583
109 2 7.91485 5.88642 7.54047
33 2 5.82252 6.25488 5.93509
18 2 8.36977 0.983926 5.51695
274 2 9.44935 3.44771 3.38825
58 3 9.24382 5.02101 1.20387
72 2 13.1219 1.07102 2.46409
295 2 9.39583 1.63204 7.84761
34 2 4.45341 5.32677 4.97684
56 3 11.2532 6.10779 2.78047
73 2 10.6657 1.69895 1.5281
31 2 11.0663 4.00185 4.12751
46 1 12.5611 3.14137 6.84566
62 3 10.3779 5.07555 6.31619
12 4 9.71475 6.51884 5.68238
29 2 12.4798 3.27428 3.43911
44 1 10.5418 3.51489 3.23093
71 4 11.5855 1.81476 3.08138
8 4 10.6889 4.90437 1.9389
11 4 10.7786 3.59941 6.71417
53 3 11.0786 0.831614 4.3246
59 3 9.8262 2.28187 6.46877
214 3 9.62115 1.4408 0.439493
30 2 11.9604 4.50848 0.849691
37 2 12.8331 2.00389 7.14807
36 2 11.3295 3.57588 8.34706
35 2 12.7396 3.42087 5.64491
28 2 13.4642 0.860298 8.44288
63 3 6.8992 6.44997 2.57973
301 2 13.4284 0.479436 6.51476
271 3 13.3064 1.02253 11.893
104 2 4.2604 6.35997 9.56986
111 2 4.63097 5.92452 12.6454
278 2 11.1554 4.24591 16.3155
291 2 6.87695 1.79117 9.04476
293 1 7.67902 2.20939 10.5691
294 2 9.2538 1.67065 11.1018
107 2 7.66356 3.33657 10.7499
137 3 6.26226 2.31568 13.1821
139 3 4.95079 4.64424 14.024
190 2 6.40478 6.42451 12.3869
102 4 4.84231 5.56504 15.4964
187 4 7.91812 5.85216 12.8726
140 3 6.23495 5.84657 16.0671
221 4 8.63446 1.21973 9.38341
305 2 8.73741 2.93617 12.6378
307 2 7.60651 4.57966 14.1334
266 4 11.9016 0.897621 12.6039
189 2 8.31847 4.99294 11.2978
308 1 8.87484 4.02607 12.8562
299 2 8.79531 2.99259 14.4685
5 4 9.1605 1.89358 15.8396
105 2 4.25863 6.68362 11.206
138 3 4.89559 6.68826 12.0769
10 4 7.26633 6.77225 16.9554
52 3 10.8728 1.6118 16.2957
91 4 12.3957 1.46395 16.8005
192 3 8.97663 6.87495 13.4066
113 2 3.97335 7.04522 15.1094
218 2 5.98498 2.37124 17.0643
103 2 10.0188 4.59332 11.4191
306 2 9.91315 4.25335 14.4251
240 4 10.8423 3.97358 12.8777
273 3 11.3573 2.45123 12.7563
55 3 11.5633 5.06111 16.6382
115 2 7.52636 4.66735 8.9686
106 2 8.2325 3.4079 17.1296
216 2 11.1298 5.58762 15.9522
97 4 6.38998 1.4839 11.7278
239 1 3.34837 10.0971 1.54455
66 3 5.29627 8.15195 1.03022
285 2 7.40899 12.3277 1.48625
232 1 0.804298 11.8258 5.01216
217 2 0.70571 11.7065 1.42377
65 3 7.36338 9.09796 2.59172
68 3 5.77676 9.82423 4.96831
224 2 0.737184 11.3118 6.79354
238 2 2.2641 9.85263 1.31291
54 3 2.97262 12.2616 6.99388
163 2 3.07387 9.74545 5.00459
67 3 9.27826 7.29403 7.08714
302 2 6.38438 11.7049 7.60191
202 2 8.06289 10.7258 5.80315
43 1 5.6115 12.6404 7.57242
212 2 0.710032 11.863 3.67686
32 2 5.07159 7.01705 4.33653
207 1 6.24223 12.4192 1.40004
237 2 3.52467 10.9116 2.26454
209 2 8.15014 9.9497 1.65685
235 2 4.17355 9.53558 3.24677
286 2 5.68252 11.4017 1.28134
205 2 5.70025 11.6083 3.09664
234 4 3.96868 8.36011 1.95964
6 4 4.11384 11.4744 7.92557
15 4 5.53611 9.15982 6.33638
40 2 4.77573 7.68313 5.94341
69 3 6.92229 8.87604 7.06598
70 3 4.50369 9.97987 7.19258
201 4 6.68707 10.379 3.86172
13 4 6.84793 7.62975 1.63367
14 4 8.30744 8.52017 7.91253
236 2 4.04191 10.2558 0.572603
206 1 8.20864 11.0646 4.72072
165 2 2.91612 8.07875 4.86602
64 3 7.67919 7.24737 0.363883
288 2 2.83568 7.70344 9.57191
186 4 9.48798 7.77609 14.7412
277 2 1.69871 11.9111 15.544
17 2 0.0493397 12.535 16.3591
127 1 0.793839 12.6949 15.4888
292 2 0.765002 11.9571 9.32291
191 3 8.6016 7.35411 16.0616
298 1 1.55727 10.2342 10.9256
263 2 1.84897 9.967 16.1586
260 2 4.51775 9.55216 15.3495
261 2 3.14448 9.00788 13.0386
269 2 5.86211 10.2773 15.2939
258 4 3.16282 8.61622 14.7845
272 3 3.02861 12.3754 11.8686
265 4 3.23538 11.0807 11.0301
47 1 4.53769 9.77167 11.9244
281 2 8.38544 9.74034 15.2346
296 2 0.699462 10.8775 11.3972
256 1 7.26451 11.5633 12.1413
21 2 7.95198 7.62452 9.53127
251 2 8.31836 8.09608 11.1469
282 2 8.4638 9.48129 13.3465
82 2 6.21737 10.9268 12.1137
270 3 3.72559 11.3002 9.52799
39 2 5.31935 10.0842 11.1032
249 2 7.44886 9.96127 9.76743
303 2 5.46737 12.4569 15.8422
244 2 6.08431 11.4145 13.8433
246 1 5.38238 11.1847 14.7382
275 2 4.33394 10.9836 14.3269
304 2 4.41617 12.8447 14.1794
255 1 8.41068 9.34312 9.71398
268 2 4.81393 10.3193 13.0279
267 2 4.50723 8.62699 12.0143
188 2 0.300899 12.9439 14.4826
254 2 7.79924 11.4733 13.1448
248 2 7.94365 11.3281 11.2231
ITEM: TIMESTEP
300
ITEM: NUMBER OF ATOMS
310
ITEM: BOX BOUNDS xy xz yz pp pp pp
-9.0443569934275416e+00 1.5435014826195875e+01 -7.7519759760840659e+00
9.8835977962569821e-02 1.3580554735429383e+01 -1.2687661911472270e+00
2.3983829263538503e-01 1.7263561707364509e+01 9.3829071339187675e-01
ITEM: ATOMS id type x y z
74 2 -0.420752 1.39656 1.93397
152 4 -1.16717 5.88238 5.18436
183 3 -0.919054 4.32317 4.29052
27 2 1.85288 3.94639 5.26895
159 2 -1.16746 3.36181 1.6297
154 4 -0.138074 4.04796 2.89145
75 2 0.821486 2.13741 3.50365
76 1 0.342699 2.35254 2.3541
160 2 1.20938 2.54534 1.60853
184 3 0.700699 5.18249 2.2335
182 3 -1.8122 5.9687 6.70932
279 2 1.61459 4.47253 8.27421
227 2 0.451299 1.19165 7.62074
16 2 4.19349 0.41559 1.56138
25 2 3.02118 2.62123 6.40088
19 2 -2.51048 3.92455 7.88079
48 3 3.06873 1.29316 3.88616
42 1 2.94134 4.10786 5.15267
241 2 3.05517 5.57008 6.19637
26 2 3.23491 4.45538 3.97426
180 3 0.350361 6.41538 5.50485
3 4 3.82751 2.38973 4.84793
49 3 5.37447 2.46836 5.02089
51 3 5.29306 3.28243 2.21454
110 2 4.17284 4.34061 6.56211
215 4 7.04433 0.501027 1.57558
98 4 5.06295 3.0206 0.692245
220 1 5.42881 1.27898 0.299066
223 2 5.64104 0.715011 6.61639
125 2 3.62769 1.98159 0.469324
225 2 2.44809 0.559909 7.30328