ITEM: TIMESTEP
0
ITEM: NUMBER OF ATOMS
310
ITEM: BOX BOUNDS xy xz yz pp pp pp
-9.0891599471340836e+00 1.5435014826195875e+01 -7.6265416956433167e+00
9.8835977962569821e-02 1.3580554735429383e+01 -1.4390034252945181e+00
2.3983829263538503e-01 1.7263561707364509e+01 9.3829071339187675e-01
ITEM: ATOMS id type x y z
74 2 -0.462629 1.42541 2.04574
152 4 -1.15113 5.70848 5.10044
183 3 -0.724187 4.25022 4.31979
27 2 1.88265 3.90879 5.11773
159 2 -1.26732 3.18142 1.8202
154 4 -0.180933 4.09475 2.82855
75 2 0.604678 2.02896 3.61132
76 1 0.265072 2.24065 2.52801
160 2 1.15988 2.51099 1.80482
184 3 0.747252 5.24267 2.09956
182 3 -1.73693 5.7511 6.73007
279 2 1.43846 4.03219 8.16046
227 2 0.514881 1.83347 7.21701
16 2 4.26261 0.24179 1.55681
25 2 2.82672 2.77979 6.32528
125 2 3.74825 1.51914 0.262683
48 3 2.82798 1.35491 3.75938
42 1 2.92624 4.19476 5.01412
241 2 3.08535 5.72846 5.85176
26 2 3.24168 4.51611 3.84964
180 3 0.330845 6.63136 5.35202
3 4 3.63061 2.40364 4.77895
49 3 5.2121 2.42877 4.82402
51 3 5.19572 3.10599 2.10346
110 2 4.14099 4.22489 6.4259
215 4 7.06274 0.381652 1.52293
98 4 5.05127 2.67718 0.587186
179 3 -2.16765 6.51436 4.35277
223 2 5.78496 1.01058 6.51028
19 2 -2.20303 3.67516 7.82448
78 4 -0.616963 0.945596 11.8155
134 3 4.77545 1.58796 11.0817
100 4 4.9968 3.09872 14.0216
145 2 -1.629 6.94472 15.5167
108 2 4.98455 2.27015 15.6707
146 2 -1.81685 3.19548 16.9711
245 1 -2.174 6.25028 11.9363
83 2 0.351279 4.26891 10.8009
132 3 2.65987 1.57724 9.27707
173 2 0.723775 5.53691 14.1751
124 2 -0.572894 5.95998 15.371
131 1 -0.111203 6.27215 14.4111
126 2 -0.87103 6.22829 13.4973
289 2 2.33876 3.41069 13.8218
94 4 1.99618 4.74685 10.428
81 2 0.0548706 3.2037 15.2093
79 4 1.12547 2.16556 14.2475
162 2 -3.39635 5.27233 10.8694
148 1 -1.60297 2.53518 15.9891
242 2 -1.12629 5.87398 11.6832
120 2 1.94953 6.39125 11.2677
90 3 0.22038 1.49037 13.0684
92 2 -0.77385 1.70475 16.0658
290 1 3.11298 1.69224 14.2094
85 2 3.45768 1.7817 15.3973
87 1 0.81204 3.70305 9.01691
89 3 0.141074 1.2195 10.3914
95 4 3.95284 2.50022 10.112
243 2 -3.14825 4.97944 12.6772
147 2 -1.71412 3.10317 15.0138
136 3 4.76935 3.21368 8.93997
133 3 3.05193 3.82308 11.0956
252 2 3.62439 2.77051 12.8435
280 2 -0.251329 3.96021 8.91883
77 4 1.11858 1.74759 9.13337
118 2 2.21816 6.28341 8.76139
141 3 3.8066 4.76308 16.5552
129 1 2.9032 6.66846 9.70905
220 1 4.08562 1.84488 17.2509
216 2 -3.81887 5.63574 16.4812
84 2 1.75109 0.960447 15.3921
196 2 -1.34126 7.11011 0.54248
233 3 -1.62246 12.8893 7.21143
2 4 -3.55842 7.08603 3.80112
231 1 -6.61357 12.7937 7.4443
168 2 1.26192 9.64133 7.5841
287 2 -6.15301 12.1684 2.16919
226 2 -6.92387 12.2821 6.47311
157 2 -7.14768 12.2351 8.32448
161 2 0.768928 7.697 0.588599
41 1 -4.42498 11.0779 5.73073
208 4 -5.69531 10.9869 0.992821
200 3 -4.40997 10.1373 1.26837
219 2 -3.88186 11.3804 3.82081
80 2 -5.06673 10.7305 4.83833
225 2 -5.48548 12.6735 7.54987
156 2 1.73856 7.94708 7.44813
199 3 -3.13931 8.44541 2.92476
193 4 -3.28181 9.0156 1.48423
170 2 -3.4107 8.0906 6.10694
22 2 -3.80344 10.1208 6.17947
23 2 -5.19822 11.4815 6.56435
164 2 -3.28075 8.96046 7.84459
24 2 -3.66699 11.956 5.44584
60 3 -4.68023 7.63247 5.14671
153 4 -1.87177 7.12786 7.61639
230 2 -0.873848 12.0476 4.36382
177 1 -2.67742 8.57902 6.9323
169 2 -1.63671 10.0154 6.41652
158 2 -0.831824 8.42657 6.80101
171 2 -1.28691 11.7516 8.62207
213 2 -1.26949 9.66736 0.579123
229 2 0.0942991 9.027 5.2446
228 2 -0.548064 8.49202 1.51459
222 4 -0.866898 11.6199 6.15223
174 2 -0.289679 7.91681 3.32981
172 2 1.32842 9.45212 2.71808
178 1 0.21264 8.25802 2.37491
150 4 1.74826 7.10396 5.83363
155 4 1.33901 6.8897 2.02911
175 1 1.56641 9.00418 5.93328
185 3 2.80794 7.3005 2.36665
310 3 0.107013 11.4449 1.62927
20 2 -6.10321 9.74703 8.26094
204 2 -6.24702 10.4226 4.29104
1 4 -4.56249 12.5937 2.84944
203 2 -7.18515 12.0866 3.85393
195 2 -3.48188 7.74779 0.287667
259 2 0.535195 8.98036 14.2826
247 4 -5.47142 8.98305 11.1178
210 2 -3.6911 13.2496 17.1377
198 1 -3.35434 9.80539 17.0996
144 2 0.380536 7.31352 14.5228
257 3 -4.3094 7.93265 10.8296
149 3 -4.27623 7.75954 15.1609
309 3 -7.42949 12.8679 16.3426
88 1 -3.6406 11.4608 13.0036
300 2 -4.20402 12.343 12.5566
114 2 -4.18502 11.0624 13.9139
283 2 -5.43011 10.3737 14.34
250 2 -5.50298 10.2988 9.84059
166 2 -3.44972 10.4717 12.0691
253 2 -5.36619 9.75971 12.6256
142 4 -2.90187 8.1235 15.7623
276 2 -2.58808 11.9575 14.5631
254 2 -7.46079 11.5066 12.9852
181 3 -1.92168 7.20939 9.22714
194 2 -3.75312 10.3567 16.2227
262 2 1.47022 8.11563 15.9407
167 2 -2.30918 7.2214 12.5727
248 2 -7.31236 11.4902 11.0101
119 2 -2.15462 10.4365 9.49581
96 4 -1.69344 11.2774 13.1566
135 3 -0.905645 12.4151 12.2324
38 2 -1.06464 9.1656 9.3857
197 2 -1.98649 9.11729 14.6427
176 1 -1.20333 11.0605 9.51874
143 2 -1.07269 11.6508 10.5579
101 4 0.551023 9.93877 9.30054
122 2 -0.119523 9.30858 12.1897
151 4 -3.04746 6.98493 10.5027
112 2 -0.754148 7.9682 13.4348
121 2 -1.97185 9.08636 12.4361
130 1 -0.951746 9.05618 12.9593
123 2 -0.57506 10.2318 14.2534
284 1 -6.34531 9.70545 14.3715
297 2 1.56165 8.72679 10.8742
93 2 -4.21826 13.2006 13.8567
86 2 -7.44475 12.0555 15.8022
264 1 1.4833 9.02246 14.9865
4 4 6.19252 2.75195 3.37602
50 3 7.07192 1.36757 2.81502
57 3 7.19416 4.12535 3.63153
116 2 7.08226 3.78305 7.06474
117 2 5.5654 6.03017 8.14679
128 1 6.9246 5.12256 8.142
9 4 7.29934 5.66794 4.04484
61 3 8.57978 6.04283 5.05103
99 4 5.3712 4.09755 7.75156
7 4 10.131 0.578228 5.76177
45 1 5.62243 6.11149 5.02569
109 2 7.77695 5.83837 7.89361
33 2 6.13556 6.34183 6.0098
18 2 8.27568 1.02633 5.8803
274 2 9.1471 2.8956 2.29769
58 3 9.43111 5.2127 0.950825
72 2 12.896 1.07541 2.41886
295 2 9.19745 2.05308 7.93952
34 2 4.69882 5.26919 5.00935
56 3 11.2063 5.98056 2.81718
73 2 10.2644 1.31728 1.62388
31 2 9.6292 3.94744 3.79063
46 1 12.7501 2.92459 7.10511
62 3 10.6467 5.01173 6.27552
12 4 9.85757 6.40169 5.90553
29 2 11.8879 3.32497 3.57372
44 1 10.0691 3.2882 2.88606
71 4 11.2881 1.71297 3.09153
8 4 10.5656 4.90288 1.94183
11 4 10.99 3.56482 6.87793
53 3 10.8106 0.925486 4.38879
59 3 9.9681 2.4088 6.65832
214 3 9.458 1.47897 0.396424
30 2 11.8577 4.24289 0.853793
37 2 12.9031 1.76904 7.43417
36 2 11.5146 3.59747 8.50538
35 2 13.0282 3.17964 5.92687
106 2 9.59943 2.5814 0.300948
271 3 13.1157 0.881104 11.8473
104 2 3.95075 6.18078 9.64755
111 2 4.52921 6.27314 12.7129
278 2 11.3231 4.03609 16.4097
291 2 6.46062 1.63053 9.0457
293 1 7.50818 2.17017 10.4967
294 2 8.92273 1.37996 10.9865
107 2 7.60157 3.23088 10.6828
137 3 6.30945 2.47754 13.2076
139 3 4.97261 4.65127 14.1901
190 2 6.2534 6.50349 12.587
102 4 4.75096 5.61125 15.5901
187 4 7.8704 5.87578 12.8967
140 3 6.07863 6.13398 16.2378
221 4 8.24587 1.19509 9.20204
305 2 8.52619 2.87302 12.5423
307 2 7.66454 4.57038 14.1646
266 4 11.6889 0.864117 12.5212
189 2 8.30488 5.09261 11.3197
308 1 8.74419 3.95955 12.7637
299 2 8.63973 3.16951 14.4502
5 4 9.1232 2.11775 15.9015
105 2 4.07433 6.80931 11.2728
138 3 4.73896 6.96067 12.0465
10 4 7.13209 7.0889 16.8904
52 3 10.8719 1.95841 16.2485
91 4 12.2452 1.39656 16.6272
192 3 9.0014 6.91851 13.3153
97 4 6.25862 1.59404 11.7484
188 2 7.80165 1.0776 14.1951
103 2 9.97753 4.30253 11.2821
306 2 9.78509 4.41288 14.1869
240 4 10.7823 3.86422 12.7597
273 3 11.2109 2.34764 12.7096
55 3 11.5896 4.78009 16.9652
115 2 7.02345 4.75494 9.21915
218 2 5.9611 2.19622 17.0252
239 1 3.52349 9.90208 1.14336
66 3 5.39534 7.77499 1.16395
285 2 7.31716 12.4439 1.47944
232 1 0.83271 11.984 5.11132
224 2 0.699643 11.1608 6.82349
65 3 7.14354 9.55498 2.48559
68 3 5.79163 9.69131 4.89388
63 3 7.15824 6.74928 2.83574
238 2 2.53681 9.27539 0.551955
54 3 3.12565 12.2831 6.89227
163 2 3.02894 9.82636 5.26389
67 3 9.34229 7.08646 7.38493
302 2 6.28833 11.5153 8.32577
202 2 8.07925 11.3217 5.59024
43 1 5.63276 12.3669 8.04888
212 2 0.889611 12.2132 3.71452
32 2 5.42612 7.0786 4.43999
207 1 6.19653 12.4953 1.32796
237 2 3.15447 10.8156 1.61602
209 2 8.37447 10.1573 1.62608
235 2 4.08532 9.68616 2.96238
286 2 5.69405 11.4635 1.26452
205 2 5.79391 11.7873 3.10368
234 4 3.97955 8.2231 1.91312
6 4 4.02605 11.2981 7.81001
15 4 5.53978 9.0584 6.29558
40 2 4.77606 7.53151 6.08552
69 3 6.92226 8.69906 7.13799
70 3 4.50402 9.88733 7.10858
201 4 6.66791 10.4243 3.75381
13 4 6.90817 7.79504 1.7385
14 4 8.34419 8.24648 7.96791
165 2 2.62171 8.13656 4.64803
206 1 8.23248 11.1208 4.47586
64 3 7.9395 7.4756 0.539648
301 2 6.05444 12.7824 7.09444
217 2 0.906116 11.7703 1.16928
236 2 4.36825 10.1978 0.42804
211 4 1.3925 10.2243 4.47933
288 2 3.00691 7.77566 9.67797
186 4 9.4679 7.8517 14.6723
277 2 1.79435 12.5467 14.5332
17 2 0.404911 12.5911 15.7762
127 1 0.91904 13.1853 14.9598
292 2 0.603994 11.915 9.23795
191 3 8.29725 7.53563 15.7918
298 1 1.51577 10.0313 10.8397
263 2 1.56045 10.1418 15.5318
260 2 4.19989 10.0962 15.5895
261 2 3.46753 9.29107 13.112
269 2 5.9071 10.3092 15.1148
258 4 3.27352 8.78543 14.7816
272 3 2.9553 12.3833 11.7086
265 4 3.14729 11.0327 10.9206
47 1 4.67718 9.90074 11.6473
281 2 8.43028 9.80899 15.3457
296 2 0.963364 10.6479 11.6749
256 1 7.44397 11.6103 11.9564
21 2 7.80828 7.55719 9.64765
251 2 8.29102 8.26737 11.3816
282 2 8.52102 9.53694 13.3869
82 2 6.41858 10.9654 11.8607
270 3 3.42953 11.2095 9.38223
39 2 5.3704 10.2785 10.7163
249 2 7.5384 9.84551 9.83481
303 2 5.35961 12.5925 15.5289
244 2 6.21553 11.2951 13.5171
246 1 5.44971 11.1206 14.4614
275 2 4.47016 10.8584 14.085
304 2 4.30354 12.6419 14.0771
255 1 8.44444 9.21783 9.80328
268 2 5.04596 10.3154 12.6484
267 2 4.72302 8.70252 11.7189
28 2 5.37102 13.0787 8.88113
113 2 3.97402 7.19289 15.1582
ITEM: TIMESTEP
100
ITEM: NUMBER OF ATOMS
310
ITEM: BOX BOUNDS xy xz yz pp pp pp
-9.0891599471340836e+00 1.5435014826195875e+01 -7.6265416956433167e+00
9.8835977962569821e-02 1.3580554735429383e+01 -1.4390034252945181e+00
2.3983829263538503e-01 1.7263561707364509e+01 9.3829071339187675e-01
ITEM: ATOMS id type x y z
74 2 -0.25723 1.47944 2.01903
152 4 -1.15663 5.75217 5.13905
183 3 -0.89621 4.28839 4.28635
27 2 1.83355 3.85847 5.43057
159 2 -1.07512 3.14355 1.63875
154 4 -0.176876 4.09045 2.85144
75 2 0.761869 2.10547 3.63805
76 1 0.470704 2.31315 2.48695
160 2 1.37689 2.48688 1.83137
184 3 0.701589 5.24702 2.10079
182 3 -1.78922 5.72359 6.70904
279 2 1.65491 3.92139 8.02688
227 2 0.376547 1.54736 7.45847
16 2 4.25238 0.258433 1.49979
25 2 2.89208 2.66757 6.29424
19 2 -2.21284 3.48021 7.58623
48 3 2.93271 1.33197 3.74565
42 1 2.88448 4.24808 5.15273
241 2 3.01675 5.83926 6.12569
26 2 2.99427 4.47408 3.9243
180 3 0.322 6.52619 5.38804
3 4 3.67927 2.47856 4.69855
49 3 5.21963 2.40667 4.8045
51 3 5.20277 3.04165 2.05076
110 2 4.13839 4.47163 6.51792
215 4 7.06587 0.413963 1.61322
98 4 4.99904 2.70469 0.538314
179 3 -2.31715 6.54577 4.36268
223 2 5.44215 0.825813 6.52608
118 2 2.14524 6.15162 8.74737
125 2 3.75197 1.54334 0.267815
78 4 -0.73434 0.799387 11.817
134 3 4.89497 1.5182 10.9643
100 4 4.948 3.03568 13.9946
145 2 -1.63096 7.0012 15.4887
108 2 4.94774 2.14887 15.5954
146 2 -1.83718 3.15717 16.8857
245 1 -2.34165 6.31538 11.903
83 2 0.520019 4.09279 10.8921
132 3 2.67502 1.72376 9.42695
173 2 0.722411 5.72496 14.0675
124 2 -0.586076 5.97616 15.3704
131 1 -0.128165 6.37996 14.3722
126 2 -0.996134 6.4192 13.4429
289 2 2.20034 3.39593 13.915
94 4 2.07918 4.77504 10.491
81 2 0.158783 3.10905 15.5325
79 4 1.04649 2.12959 14.3893
162 2 -3.4829 5.21228 10.8837
148 1 -1.65611 2.39329 15.9242
242 2 -1.26513 5.97151 11.7101
120 2 2.02115 6.45111 11.2357
90 3 0.118051 1.6965 13.1843
92 2 -0.803417 1.62611 16.0899
290 1 3.05326 1.69783 14.2611
85 2 3.4096 1.66795 15.4174
87 1 1.02962 3.7788 9.07087
89 3 0.145455 1.36223 10.2771
95 4 4.07191 2.57433 10.0895
243 2 -3.26924 5.0271 12.6573
147 2 -1.69551 2.84522 14.9086
136 3 4.92782 3.35048 8.9633
133 3 3.32784 3.88799 10.8532
252 2 3.51033 2.76284 12.907
280 2 -0.121781 3.88161 8.93041
77 4 1.1293 1.89531 9.21855
151 4 -3.08033 6.86392 10.3383
141 3 3.72343 4.63248 16.3179
129 1 2.92399 6.46661 9.58686
220 1 4.12038 1.85955 17.2429
97 4 6.26127 1.50688 11.7614
196 2 -1.41023 7.18777 0.483664
233 3 -1.36246 12.911 7.14242
2 4 -3.58119 7.18389 3.77849
231 1 -6.47989 12.7395 7.45007
168 2 1.33051 9.68054 7.69327
287 2 -6.07508 11.8925 2.4324
226 2 -6.97852 12.0935 6.65453
157 2 -6.53116 12.1585 8.39159
161 2 0.718586 7.65736 0.538364
41 1 -4.37416 11.052 5.61086
208 4 -5.72822 10.8825 0.980931
200 3 -4.40366 10.0102 1.15967
219 2 -3.85957 11.2758 3.69373
80 2 -4.93506 10.5671 4.69843
225 2 -5.44469 12.9893 7.15203
156 2 1.96309 8.08251 7.48053
199 3 -2.94029 8.56254 2.85458
193 4 -3.18953 9.03801 1.35535
170 2 -3.55721 8.26117 6.24396
22 2 -3.93197 10.1042 6.22266
23 2 -5.14176 11.6624 6.32861
164 2 -3.48123 8.90394 8.03502
24 2 -3.57925 11.8079 5.32375
195 2 -3.35681 7.68553 0.272461
153 4 -1.85565 7.15367 7.63864
230 2 -0.97322 12.01 4.35891
177 1 -2.83349 8.6145 7.11606
169 2 -1.93621 10.0906 6.53385
158 2 -0.990187 8.69599 7.19983
171 2 -1.38964 11.8732 8.55714
213 2 -1.22433 9.93332 0.669658
229 2 0.104337 9.00686 5.38671
228 2 -0.58176 8.44895 1.4785
222 4 -0.953247 11.612 6.09815
174 2 -0.434591 7.63595 3.2128
172 2 1.05681 9.44672 2.82269
178 1 0.13181 8.14836 2.36341
150 4 1.73875 7.05692 5.79605
155 4 1.34914 6.82712 1.93462
175 1 1.72312 8.8865 5.98853
185 3 2.8472 7.32431 2.20976
310 3 -0.101025 11.392 1.61322
20 2 -6.13893 9.87987 8.36874
204 2 -6.28271 10.5467 4.3566
1 4 -4.50721 12.6022 2.82529
203 2 -7.4166 12.1864 4.05579
60 3 -4.63743 7.61627 4.90351
259 2 0.609377 9.16562 14.4974
247 4 -5.46773 8.85641 10.9958
86 2 -8.06694 12.0862 16.0167
198 1 -3.31686 9.90413 17.0629
144 2 0.386992 7.45353 14.6831
257 3 -4.27204 7.9281 10.5512
149 3 -4.31506 7.8027 15.091
309 3 -7.34531 12.8409 16.466
88 1 -3.84027 11.4032 12.8218
300 2 -3.69983 12.1479 11.9895
114 2 -4.96339 11.2941 13.0668
283 2 -5.74231 10.535 13.9512
250 2 -5.53281 10.3435 9.91237
166 2 -3.49459 10.1846 12.4112
253 2 -5.34183 9.44578 12.6092
142 4 -2.95478 8.14715 15.7111
276 2 -2.84927 12.1003 14.231
93 2 -4.29497 13.1859 13.7211
181 3 -2.00272 6.96118 9.1691
194 2 -3.68834 10.2939 15.9941
262 2 1.46847 8.00613 16.1447
167 2 -2.48227 7.37895 12.5038
248 2 -7.25736 11.3629 11.3437
119 2 -2.29192 10.5642 9.6268
96 4 -1.72069 11.2609 13.1146
135 3 -0.820057 12.227 12.0594
38 2 -1.02316 9.23859 9.47771
197 2 -2.09282 9.10939 14.6113
176 1 -1.34204 11.0953 9.46245
143 2 -1.00166 11.5986 10.4943
101 4 0.522583 10.1295 9.22622
122 2 0.000899664 9.59858 12.2096
254 2 -7.61008 11.6025 13.2536
112 2 -0.500632 8.17851 13.5246
121 2 -2.00668 9.14944 12.5348
130 1 -0.849557 9.28158 13.0946
123 2 -0.781952 10.3305 14.4806
284 1 -6.42916 9.62705 14.3017
297 2 1.19816 9.07153 11.0482
84 2 -5.89453 13.3695 15.4386
210 2 -3.64993 13.2785 17.1674
4 4 6.24106 2.72966 3.32746
50 3 7.18377 1.28577 3.0104
57 3 7.19751 4.04689 3.88038
116 2 6.93556 3.82352 6.99697
117 2 5.9098 6.32729 8.27678
128 1 6.94137 5.26031 8.25263
9 4 7.16314 5.59718 4.17422
61 3 8.42958 6.07723 5.15837
99 4 5.3918 4.31493 7.8089
7 4 10.0886 0.670789 5.7448
45 1 5.54828 6.05787 5.08041
109 2 7.86807 5.60535 7.74784
33 2 5.92961 6.16455 6.17133
18 2 8.28084 1.08338 5.56581
274 2 9.3449 2.93015 2.59754
58 3 9.22996 5.18249 1.2351
72 2 13.1133 1.14466 2.25238
295 2 9.14722 1.9611 7.95744
34 2 4.5569 5.37437 5.05477
56 3 11.2558 6.06109 2.75975
73 2 10.579 1.58439 1.68324
31 2 10.0793 3.59255 4.19232
46 1 12.6526 2.8873 6.90257
62 3 10.6297 5.02702 6.17987
12 4 9.81343 6.47182 5.88293
29 2 12.2787 3.31747 3.40884
44 1 10.3459 3.39623 3.12379
71 4 11.5296 1.75021 3.08744
8 4 10.616 4.79994 1.96272
11 4 10.8697 3.57951 6.77003
53 3 10.9961 0.883365 4.40347
59 3 9.77024 2.46176 6.58134
214 3 9.60953 1.495 0.426099
30 2 11.859 4.22053 0.90142
37 2 12.801 1.713 7.27935
36 2 11.5577 3.64234 8.34896
35 2 12.8652 2.98997 5.78713
28 2 12.9395 0.590962 8.6304
271 3 13.1537 1.05936 11.7889
104 2 3.90576 5.92854 9.48343
111 2 4.5102 6.33457 12.6154
278 2 11.3481 4.02755 16.5182
291 2 6.54982 1.60833 9.00759
293 1 7.45698 2.16327 10.502
294 2 8.91888 1.37685 11.102
107 2 7.46145 3.22162 10.7848
137 3 6.16438 2.44992 13.1507
139 3 4.96883 4.77319 14.1297
190 2 6.31508 6.42634 12.4605
102 4 4.82192 5.5652 15.5235
187 4 7.89365 5.88847 12.9613
140 3 6.20238 5.82117 16.1572
221 4 8.3424 1.14586 9.2941
305 2 8.42238 2.85055 12.7775
307 2 7.61813 4.59591 14.1904
266 4 11.7862 0.9475 12.5899
189 2 8.1311 5.02671 11.3546
308 1 8.73238 3.99555 12.8003
299 2 8.5967 3.111 14.5002
5 4 9.04642 1.98394 15.8425
105 2 4.18315 6.74806 11.1027
138 3 4.86394 6.88949 11.8758
10 4 7.17833 6.91569 16.911
52 3 10.6813 1.89653 16.0833
91 4 12.2152 1.47076 16.5969
192 3 8.96071 6.99666 13.3253
113 2 4.01122 7.153 15.1882
216 2 11.202 5.4537 16.0541
103 2 9.74413 4.24389 11.3275
306 2 9.80908 4.39983 14.3009
240 4 10.7183 3.84504 12.8154
273 3 11.1433 2.36414 12.7905
55 3 11.5451 4.93808 16.771
115 2 7.19021 4.78518 9.24469
218 2 5.88337 2.34031 17.1345
106 2 8.27305 3.49428 17.1687
239 1 3.32589 10.1854 1.45471
66 3 5.36762 7.90116 1.15804
285 2 7.50287 12.4945 1.20187
232 1 0.841441 11.9395 5.02306
211 4 1.43814 10.1647 4.66745
65 3 7.32237 9.23644 2.46402
68 3 5.90127 9.8072 4.98079
63 3 6.9345 6.58471 2.85029
238 2 2.36399 9.88243 0.894053
54 3 2.91024 12.113 6.75898
163 2 3.16283 9.82602 5.27974
67 3 9.33251 7.27771 7.24349
302 2 6.32302 11.5667 8.35126
202 2 8.02747 11.0931 5.78232
43 1 5.66101 12.343 7.85591
212 2 1.02824 12.1324 3.76174
32 2 5.34134 7.07951 4.55589
207 1 6.40985 12.4943 1.28588
237 2 3.03834 10.9735 2.27454
209 2 8.339 9.93283 1.53025
235 2 4.1677 9.66664 3.14143
286 2 6.02912 11.376 1.03237
205 2 5.77008 11.6735 2.92416
234 4 3.99646 8.46282 1.88217
6 4 4.04433 11.3385 7.78657
15 4 5.56607 9.13618 6.41053
40 2 4.8903 7.54542 6.20103
69 3 6.97703 8.80251 7.15993
70 3 4.58481 9.88391 7.3464
201 4 6.7145 10.3967 3.74384
13 4 6.90342 7.62606 1.60007
14 4 8.2492 8.39347 7.91826
236 2 4.07157 10.525 0.691521
206 1 8.18829 11.0177 4.61642
64 3 7.86365 7.51938 0.293108
301 2 6.01031 12.8478 6.91761
217 2 0.785695 11.6862 1.13804
165 2 2.61549 8.11484 4.57832
224 2 0.685241 11.1538 6.76975
288 2 3.10671 7.57082 9.52047
186 4 9.4315 7.80484 14.7078
277 2 1.75476 12.2279 14.8459
17 2 0.173114 12.5511 16.0062
127 1 0.852946 12.8968 15.1123
292 2 0.59568 11.9235 9.2956
191 3 8.52053 7.26606 15.9327
298 1 1.45017 10.3085 10.9189
263 2 1.84609 10.2169 15.7922
260 2 4.48888 9.64311 15.4785
261 2 3.23613 9.01665 13.1319
269 2 5.78965 10.5766 15.5155
258 4 3.18353 8.71569 14.8692
272 3 3.10727 12.3815 11.9134
265 4 3.1638 11.0875 11.0921
47 1 4.57707 9.78672 11.9003
281 2 8.56252 9.81015 15.3694
296 2 0.818951 10.9782 11.5981
256 1 7.39485 11.5364 12.2049
21 2 7.75258 7.63704 9.59083
251 2 8.37164 8.0477 11.2051
282 2 8.25387 9.48499 13.5138
82 2 6.27143 10.8173 12.0501
270 3 3.41597 11.2269 9.5805
39 2 5.30571 10.1623 10.9683
249 2 7.58189 9.94289 9.95436
303 2 5.50637 12.7314 15.5506
244 2 6.08876 11.2846 13.801
246 1 5.38049 11.1999 14.7053
275 2 4.30933 11.0996 14.4635
304 2 4.45171 12.8666 14.1913
255 1 8.43461 9.26497 9.74473
268 2 4.8798 10.3108 12.989
267 2 4.59106 8.63532 11.9418
264 1 1.48403 9.07072 15.3186
188 2 0.273665 13.1193 14.123
ITEM: TIMESTEP
200
ITEM: NUMBER OF ATOMS
310
ITEM: BOX BOUNDS xy xz yz pp pp pp
-9.0891599471340836e+00 1.5435014826195875e+01 -7.6265416956433167e+00
9.8835977962569821e-02 1.3580554735429383e+01 -1.4390034252945181e+00
2.3983829263538503e-01 1.7263561707364509e+01 9.3829071339187675e-01
ITEM: ATOMS id type x y z
74 2 -0.298733 1.4419 2.0267
152 4 -1.09222 5.83293 5.11196
183 3 -0.980669 4.214 4.3157
27 2 1.8124 3.73471 5.70279
159 2 -1.18883 3.24655 1.72654
154 4 -0.221899 4.12962 2.89026
75 2 0.757358 2.192 3.52969
76 1 0.382388 2.36523 2.38879
160 2 1.21244 2.53161 1.65088
184 3 0.737503 5.26596 2.43819
182 3 -1.72558 5.78222 6.77658
279 2 1.63877 4.15792 8.35587
227 2 0.531126 1.3637 7.44681
125 2 3.72708 1.7508 0.508153
25 2 3.0451 2.41126 6.37537
19 2 -2.30845 3.77718 7.42425
48 3 3.10222 1.36398 3.67051
42 1 2.89552 4.05635 5.21323
241 2 2.97878 5.60205 6.162
26 2 2.7808 4.39601 4.04603
180 3 0.426148 6.43985 5.26863
3 4 3.69581 2.4428 4.73652
49 3 5.23586 2.47532 4.8181
51 3 5.42762 3.25111 2.14485
110 2 4.18189 4.47378 6.5419
215 4 7.01152 0.409161 1.59648
98 4 5.08749 2.84338 0.681384
280 2 -0.113828 3.82825 8.74279
223 2 6.03567 1.18904 6.49312
118 2 2.4933 6.16466 8.6942
16 2 4.1523 0.200437 1.33243
78 4 -0.665318 0.8962 11.8978
134 3 4.84477 1.49362 10.929
100 4 4.84756 3.06276 13.8512
145 2 -1.69517 6.93721 15.4135
108 2 4.7751 2.52759 15.6141
146 2 -1.91559 3.2904 16.4752
245 1 -2.45934 6.44216 12.0836
83 2 0.582506 4.13619 10.8876
132 3 2.72019 1.94755 9.27717
173 2 0.621381 5.5606 14.0907
124 2 -0.623716 5.97397 15.3607
131 1 -0.093612 6.36904 14.4509
126 2 -0.868508 6.6066 13.6088
289 2 2.14032 3.36596 13.7338
94 4 2.19892 4.80138 10.4614
81 2 -0.110819 3.18985 15.402
79 4 0.944562 2.1865 14.3963
162 2 -3.18214 5.07276 11.0146
148 1 -1.78641 2.3146 15.7746
242 2 -1.32734 6.34379 11.9528
120 2 2.22185 6.52146 11.229
90 3 0.194459 1.60881 13.187
92 2 -0.933002 1.56443 16.0711
290 1 2.98049 1.80961 14.3185
85 2 3.27607 1.86474 15.4094
87 1 0.951401 3.71879 9.12917
89 3 0.14305 1.33052 10.4529
95 4 3.964 2.50277 10.0434
243 2 -3.31083 5.16729 13.0143
147 2 -1.82334 2.61352 14.6792
136 3 5.0272 3.2433 8.98226
133 3 3.34119 3.94771 11.0514
252 2 3.44243 2.72467 12.7814
220 1 4.04535 2.00527 17.2278
77 4 1.11982 1.83858 9.23063
151 4 -3.02841 6.77689 10.4667
141 3 3.80916 4.73471 16.4982
129 1 3.02263 6.68379 9.59884
97 4 6.28607 1.46142 11.7293
196 2 -1.5763 7.17006 0.443555
233 3 -1.52802 12.9448 7.23301
2 4 -3.49623 7.20103 3.74327
231 1 -6.43476 12.6414 7.37369
168 2 1.33381 9.75986 7.58738
287 2 -6.09182 12.1257 2.34613
226 2 -6.65847 12.228 6.31902
157 2 -6.82745 11.9189 8.186
161 2 0.540617 7.23962 0.40979
41 1 -4.13063 11.1794 5.60059
208 4 -5.80152 10.8916 1.03854
200 3 -4.52812 10.0206 1.17967
219 2 -3.55743 11.4292 3.69969
80 2 -4.71048 10.714 4.79867
225 2 -5.27966 12.7537 7.55647
156 2 1.67041 7.94744 7.5338
199 3 -2.94156 8.58795 2.76938
193 4 -3.32397 8.97488 1.30159
170 2 -3.51692 8.2674 6.26214
22 2 -3.68996 10.2704 6.17149
23 2 -4.84536 11.7179 6.37241
164 2 -3.33096 8.94095 8.12078
24 2 -3.32872 11.9567 5.28429
60 3 -4.72436 7.4765 4.85144
153 4 -1.9132 7.09374 7.66429
230 2 -0.957452 11.7775 4.41476
177 1 -2.80143 8.61263 7.09154
169 2 -1.72608 10.0776 6.53152
158 2 -0.959966 8.56569 7.07401
171 2 -1.33061 11.7473 8.60631
213 2 -1.45562 9.87392 0.580391
229 2 0.0515888 9.00821 5.46081
228 2 -0.661508 8.42392 1.32342
222 4 -0.872057 11.6551 6.22447
174 2 -0.417554 7.52686 3.1008
172 2 1.17337 9.18107 2.60553
178 1 0.137543 8.04057 2.11099
150 4 1.76172 7.04261 5.8736
155 4 1.33663 6.70097 1.86838
175 1 1.70427 8.89233 6.00027
185 3 2.78776 7.27279 2.01036
310 3 -0.222791 11.4498 1.49583
20 2 -6.04076 9.90918 8.35449
204 2 -6.43404 10.6378 3.98728
1 4 -4.41121 12.5615 2.79727
203 2 -7.4675 12.2783 4.30551
179 3 -2.061 6.76299 4.24809
211 4 1.36691 9.91948 4.52107
259 2 0.569702 9.22712 14.6608
247 4 -5.58182 8.89798 10.969
86 2 -7.97832 12.0274 15.9575
198 1 -3.46248 9.79187 16.9115
144 2 0.470868 7.38485 14.7529
257 3 -4.44929 7.83804 10.4922
149 3 -4.32804 7.74 14.9703
309 3 -7.49295 12.8045 16.5273
88 1 -3.94502 11.3933 13.0017
300 2 -3.80275 12.2858 12.3559
114 2 -5.0465 11.2581 13.3172
283 2 -5.52132 10.426 14.3207
250 2 -5.58845 10.4609 9.98824
166 2 -3.66082 10.3821 12.4322
253 2 -5.32197 9.37691 12.6453
142 4 -3.00205 8.10784 15.613
276 2 -3.16898 11.5912 14.5167
93 2 -4.34068 13.3377 13.8435
181 3 -1.97107 6.99555 9.25315
194 2 -3.9477 10.2053 15.8458
262 2 1.44842 7.90837 16.1549
167 2 -2.67942 7.51925 12.5428
210 2 -3.83124 13.5253 16.9141
119 2 -2.11333 10.2739 9.50531
96 4 -1.73558 11.2886 13.227
135 3 -1.07008 12.4484 12.085
38 2 -0.839491 9.12781 9.25307
197 2 -1.8967 9.16771 14.7024
176 1 -1.26287 11.0153 9.4901
143 2 -1.16604 11.5513 10.4719
101 4 0.628643 10.1357 9.26601
122 2 0.159189 9.68725 12.3422
297 2 1.31204 9.02689 11.1194
112 2 -0.569275 8.30577 13.4773
121 2 -2.05683 9.42694 12.3938
130 1 -0.716568 9.38969 13.1519
123 2 -0.562705 10.6491 14.4656
284 1 -6.37361 9.61521 14.3257
195 2 -5.02833 8.62901 17.2342
264 1 1.50655 9.01287 15.5031
84 2 -5.95998 13.4685 15.423
4 4 6.33915 2.78722 3.40703
50 3 7.01549 1.36056 2.88375
57 3 7.34199 4.11149 3.90912
116 2 7.04751 3.90127 6.98907
117 2 5.60417 6.16025 8.42
128 1 7.00035 5.27614 8.10046
9 4 7.11267 5.6884 3.94448
61 3 8.41303 6.18782 4.82695
99 4 5.43689 4.26733 7.86455
7 4 10.0632 0.435055 5.64002
45 1 5.39622 6.09085 4.92371
109 2 7.80349 5.83524 7.50428
33 2 5.81395 6.22969 5.94174
18 2 8.26711 1.03003 5.59886
274 2 9.48505 3.52919 3.43066
58 3 9.29231 5.03321 1.20437
72 2 13.048 0.971181 2.50918
295 2 9.2283 1.63585 7.82601
34 2 4.41635 5.33095 4.92363
56 3 11.3087 6.10567 2.77826
73 2 10.656 1.68154 1.4992
31 2 11.2012 4.01072 4.15498
46 1 12.5103 3.09991 6.82313
62 3 10.3571 5.06487 6.34954
12 4 9.73449 6.5452 5.69062
29 2 12.5458 3.22588 3.39996
44 1 10.6003 3.51336 3.25584
71 4 11.5622 1.79393 3.08457
8 4 10.7338 4.9059 1.94014
11 4 10.7294 3.58791 6.73378
53 3 10.9977 0.853071 4.34844
59 3 9.75685 2.26304 6.5126
214 3 9.61678 1.4617 0.392486
30 2 12.0057 4.50357 0.853589
37 2 12.7602 1.91029 7.07304
36 2 11.3391 3.5563 8.36015
35 2 12.7105 3.38344 5.65334
28 2 13.3589 0.762014 8.58568
63 3 6.92308 6.45075 2.55909
301 2 13.4381 0.485077 6.65099
271 3 13.1755 1.04766 11.804
104 2 4.13461 6.30475 9.62501
111 2 4.51417 5.9207 12.6042
278 2 11.0106 4.2641 16.2741
291 2 6.79082 1.77791 9.07973
293 1 7.59879 2.20942 10.6162
294 2 9.15955 1.66371 11.092
107 2 7.62131 3.29105 10.784
137 3 6.12969 2.28696 13.1857
139 3 4.83079 4.62815 14.0021
190 2 6.29649 6.43266 12.3422
102 4 4.75234 5.54735 15.4956
187 4 7.80445 5.87896 12.8648
140 3 6.15146 5.82181 16.052
221 4 8.53031 1.21685 9.40321
305 2 8.63698 2.95682 12.6295
307 2 7.50211 4.61014 14.1138
266 4 11.8118 0.946241 12.5775
189 2 8.17078 5.03471 11.2957
308 1 8.75381 4.05999 12.8459
299 2 8.73109 3.00232 14.4617
5 4 9.01778 1.88575 15.8166
105 2 4.18681 6.75116 11.208
138 3 4.79071 6.70268 12.0806
10 4 7.15343 6.76322 16.9379
52 3 10.7079 1.62903 16.3108
91 4 12.2279 1.50145 16.8182
192 3 8.86589 6.90104 13.3914
113 2 3.89525 7.03437 15.0926
106 2 8.01818 3.42044 17.0288
103 2 9.88566 4.64966 11.4229
306 2 9.77906 4.32118 14.4072
240 4 10.7229 4.0025 12.8678
273 3 11.2418 2.47904 12.7419
55 3 11.4386 5.05027 16.6516
115 2 7.38667 4.83476 9.06922
218 2 5.83352 2.31494 17.0457
216 2 11.0194 5.63626 15.983
239 1 3.42538 10.1289 1.57605
66 3 5.3019 8.17967 1.0233
285 2 7.55444 12.3255 1.6109
232 1 0.866754 11.8373 5.0641
217 2 0.779724 11.6771 1.42631
65 3 7.40034 9.06039 2.51304
68 3 5.86572 9.81387 4.97237
224 2 0.791275 11.3086 6.8238
238 2 2.38953 9.75311 1.15083
54 3 3.03522 12.2724 7.00268
163 2 3.08204 9.76013 5.03429
67 3 9.33662 7.40736 7.0916
302 2 6.44311 11.6686 7.69338
202 2 8.30238 11.0042 5.75264
43 1 5.68552 12.5862 7.66752
212 2 0.793415 11.934 3.7242
32 2 5.13033 7.05609 4.37068
207 1 6.40718 12.4329 1.42679
237 2 3.33671 10.8075 2.4313
209 2 8.30138 9.94415 1.63721
235 2 4.22122 9.5151 3.25286
286 2 5.85591 11.3552 1.23433
205 2 5.74182 11.5946 3.04806
234 4 4.01494 8.35884 1.96087
6 4 4.15452 11.4525 7.92531
15 4 5.58058 9.14621 6.32467
40 2 4.78844 7.68605 5.94545
69 3 6.95208 8.78862 7.04704
70 3 4.53652 9.96834 7.1641
201 4 6.74919 10.3664 3.86215
13 4 6.89313 7.64917 1.621
14 4 8.38988 8.42899 7.86656
236 2 4.12204 10.5578 0.841101
206 1 8.19637 11.198 4.64359
165 2 2.90674 7.978 4.8764
64 3 7.7124 7.21863 0.330123
288 2 3.01531 7.80542 9.38201
186 4 9.39211 7.79024 14.7373
277 2 1.65384 11.9248 15.545
17 2 0.0322152 12.5255 16.3466
127 1 0.76876 12.6936 15.4898
292 2 0.769547 11.9831 9.33691
191 3 8.50541 7.37057 16.0578
298 1 1.51181 10.1886 10.8955
263 2 1.91354 9.94979 16.1189
260 2 4.58847 9.50357 15.1857
261 2 3.07254 9.0249 13.0267
269 2 5.80531 10.2396 15.2959
258 4 3.12052 8.60812 14.7623
272 3 3.04778 12.3906 11.8947
265 4 3.24884 11.0918 11.0429
47 1 4.54365 9.74875 11.9685
281 2 8.36803 9.81724 15.2073
296 2 1.10432 10.9202 11.7224
256 1 7.28127 11.5601 12.1512
21 2 8.08988 7.53919 9.50116
251 2 8.28605 8.05155 11.162
282 2 8.42505 9.39455 13.3406
82 2 6.17605 10.8723 12.1395
270 3 3.73638 11.2699 9.51851
39 2 5.26438 10.0387 11.1302
249 2 7.44666 9.87803 9.75514
303 2 5.38803 12.5518 15.8903
244 2 6.11457 11.4154 13.8064
246 1 5.36907 11.1942 14.7568
275 2 4.30554 11.0871 14.3669
304 2 4.43595 12.8434 14.1433
255 1 8.42105 9.28729 9.71743
268 2 4.81228 10.3041 13.0543
267 2 4.55472 8.59873 12.0787
248 2 7.90099 11.344 11.2018
188 2 0.271419 12.9359 14.4452
254 2 7.87909 11.4068 13.0876
ITEM: TIMESTEP
300
ITEM: NUMBER OF ATOMS
310
ITEM: BOX BOUNDS xy xz yz pp pp pp
-9.0891599471340836e+00 1.5435014826195875e+01 -7.6265416956433167e+00
9.8835977962569821e-02 1.3580554735429383e+01 -1.4390034252945181e+00
2.3983829263538503e-01 1.7263561707364509e+01 9.3829071339187675e-01
ITEM: ATOMS id type x y z
74 2 -0.401235 1.37457 1.90514
152 4 -1.14529 5.85206 5.22037
183 3 -0.889915 4.30098 4.30032
27 2 1.86984 3.88471 5.23897
159 2 -1.16289 3.27422 1.67834
154 4 -0.133488 4.03818 2.9228
75 2 0.754753 2.04396 3.53331
76 1 0.345296 2.3451 2.3729
160 2 1.27676 2.56297 1.72039
184 3 0.73247 5.14861 2.27961
182 3 -1.77973 5.92935 6.72278
279 2 1.60665 4.34408 8.30072
227 2 0.355962 1.45683 7.45575
125 2 3.68432 1.94366 0.518069
25 2 2.98228 2.53987 6.3594
19 2 -2.66734 3.94379 7.83254
48 3 3.08328 1.33483 3.80734
42 1 2.91511 4.14504 5.17865
241 2 3.20799 5.59365 6.08359
26 2 3.22633 4.40835 3.90792
180 3 0.364786 6.42535 5.52791
3 4 3.82251 2.44345 4.78669
49 3 5.40227 2.52602 4.94103
51 3 5.38918 3.32125 2.19868
110 2 4.18908 4.25157 6.58352
215 4 7.04903 0.472674 1.57181
98 4 5.11276 3.00878 0.696921
16 2 4.13904 0.390425 1.46763
223 2 5.57092 0.695207 6.58812
280 2 -0.255817 3.76848 8.65239
225 2 2.32179 0.574404 7.1565
220 1 5.42444 1.24047 0.312958
78 4 -0.640517 0.802019 11.8654