ITEM: TIMESTEP
0
ITEM: NUMBER OF ATOMS
310
ITEM: BOX BOUNDS xy xz yz pp pp pp
-9.0078757918546977e+00 1.5589601122719795e+01 -7.7028071125997499e+00
9.8835977962569821e-02 1.3580554735429383e+01 -1.2814538530586992e+00
2.3983829263538503e-01 1.7263561707364509e+01 9.3829071339187675e-01
ITEM: ATOMS id type x y z
74 2 -0.448779 1.42541 2.04574
152 4 -1.11332 5.70848 5.10044
183 3 -0.689985 4.25022 4.31979
27 2 1.95098 3.90879 5.11773
159 2 -1.2638 3.18142 1.8202
154 4 -0.156361 4.09475 2.82855
75 2 0.645012 2.02896 3.61132
76 1 0.291069 2.24065 2.52801
160 2 1.18752 2.51099 1.80482
184 3 0.773744 5.24267 2.09956
182 3 -1.68851 5.7511 6.73007
279 2 1.53308 4.03219 8.16046
227 2 0.590735 1.83347 7.21701
16 2 4.31878 0.24179 1.55681
25 2 2.91669 2.77979 6.32528
125 2 3.7862 1.51914 0.262683
48 3 2.89205 1.35491 3.75938
42 1 3.00396 4.19476 5.01412
241 2 3.17312 5.72846 5.85176
26 2 3.31079 4.51611 3.84964
180 3 0.386023 6.63136 5.35202
3 4 3.713 2.40364 4.77895
49 3 5.31076 2.42877 4.82402
51 3 5.26673 3.10599 2.10346
110 2 4.24511 4.22489 6.4259
215 4 7.14656 0.381652 1.52293
98 4 5.10553 2.67718 0.587186
179 3 -2.14755 6.51436 4.35277
223 2 5.90638 1.01058 6.51028
19 2 -2.14822 3.67516 7.82448
78 4 -0.505983 0.945596 11.8155
134 3 4.93294 1.58796 11.0817
100 4 5.1862 3.09872 14.0216
145 2 -1.49076 6.94472 15.5167
108 2 5.19048 2.27015 15.6707
146 2 -1.66579 3.19548 16.9711
245 1 -2.07737 6.25028 11.9363
83 2 0.461694 4.26891 10.8009
132 3 2.77798 1.57724 9.27707
173 2 0.871995 5.53691 14.1751
124 2 -0.425563 5.95998 15.371
131 1 0.0310514 6.27215 14.4111
126 2 -0.745604 6.22829 13.4973
289 2 2.49956 3.41069 13.8218
94 4 2.11928 4.74685 10.428
81 2 0.206848 3.2037 15.2093
79 4 1.27844 2.16556 14.2475
162 2 -3.32272 5.27233 10.8694
148 1 -1.45969 2.53518 15.9891
242 2 -1.02174 5.87398 11.6832
120 2 2.08064 6.39125 11.2677
90 3 0.352388 1.49037 13.0684
92 2 -0.62151 1.70475 16.0658
290 1 3.28543 1.69224 14.2094
85 2 3.64559 1.7817 15.3973
87 1 0.909045 3.70305 9.01691
89 3 0.245251 1.2195 10.3914
95 4 4.09232 2.50022 10.112
243 2 -3.05388 4.97944 12.6772
147 2 -1.5818 3.10317 15.0138
136 3 4.90515 3.21368 8.93997
133 3 3.19233 3.82308 11.0956
252 2 3.78816 2.77051 12.8435
280 2 -0.165948 3.96021 8.91883
77 4 1.21982 1.74759 9.13337
118 2 2.32665 6.28341 8.76139
141 3 4.00968 4.76308 16.5552
129 1 3.02811 6.66846 9.70905
220 1 4.29852 1.84488 17.2509
216 2 -3.69278 5.63574 16.4812
84 2 1.92188 0.960447 15.3921
196 2 -1.35138 7.11011 0.54248
233 3 -1.56803 12.8893 7.21143
2 4 -3.5578 7.08603 3.80112
231 1 -6.6067 12.7937 7.4443
168 2 1.34895 9.64133 7.5841
287 2 -6.19482 12.1684 2.16919
226 2 -6.92992 12.2821 6.47311
157 2 -7.13726 12.2351 8.32448
161 2 0.780376 7.697 0.588599
41 1 -4.41354 11.0779 5.73073
208 4 -5.74442 10.9869 0.992821
200 3 -4.44345 10.1373 1.26837
219 2 -3.88427 11.3804 3.82081
80 2 -5.07071 10.7305 4.83833
225 2 -5.46627 12.6735 7.54987
156 2 1.82899 7.94708 7.44813
199 3 -3.14335 8.44541 2.92476
193 4 -3.30183 9.0156 1.48423
170 2 -3.38531 8.0906 6.10694
22 2 -3.78125 10.1208 6.17947
23 2 -5.18608 11.4815 6.56435
164 2 -3.23652 8.96046 7.84459
24 2 -3.65084 11.956 5.44584
60 3 -4.67724 7.63247 5.14671
153 4 -1.81575 7.12786 7.61639
230 2 -0.840698 12.0476 4.36382
177 1 -2.63636 8.57902 6.9323
169 2 -1.59046 10.0154 6.41652
158 2 -0.773638 8.42657 6.80101
171 2 -1.21489 11.7516 8.62207
213 2 -1.27852 9.66736 0.579123
229 2 0.146026 9.027 5.2446
228 2 -0.540433 8.49202 1.51459
222 4 -0.815615 11.6199 6.15223
174 2 -0.261131 7.91681 3.32981
172 2 1.36697 9.45212 2.71808
178 1 0.236567 8.25802 2.37491
150 4 1.82247 7.10396 5.83363
155 4 1.3707 6.8897 2.02911
175 1 1.63982 9.00418 5.93328
185 3 2.85773 7.3005 2.36665
310 3 0.122352 11.4449 1.62927
20 2 -6.08299 9.74703 8.26094
204 2 -6.26834 10.4226 4.29104
1 4 -4.58152 12.5937 2.84944
203 2 -7.22027 12.0866 3.85393
195 2 -3.51598 7.74779 0.287667
259 2 0.682615 8.98036 14.2826
247 4 -5.41603 8.98305 11.1178
210 2 -3.5571 13.2496 17.1377
198 1 -3.21736 9.80539 17.0996
144 2 0.528835 7.31352 14.5228
257 3 -4.24531 7.93265 10.8296
149 3 -4.16805 7.75954 15.1609
309 3 -7.34091 12.8679 16.3426
88 1 -3.54785 11.4608 13.0036
300 2 -4.12143 12.343 12.5566
114 2 -4.08853 11.0624 13.9139
283 2 -5.34176 10.3737 14.34
250 2 -5.46081 10.2988 9.84059
166 2 -3.3645 10.4717 12.0691
253 2 -5.29452 9.75971 12.6256
142 4 -2.77388 8.1235 15.7623
276 2 -2.46905 11.9575 14.5631
254 2 -7.40644 11.5066 12.9852
181 3 -1.84989 7.20939 9.22714
194 2 -3.62899 10.3567 16.2227
262 2 1.64374 8.11563 15.9407
167 2 -2.20747 7.2214 12.5727
248 2 -7.27647 11.4902 11.0101
119 2 -2.08244 10.4365 9.49581
96 4 -1.57968 11.2774 13.1566
135 3 -0.793341 12.4151 12.2324
38 2 -0.982678 9.1656 9.3857
197 2 -1.86065 9.11729 14.6427
176 1 -1.12142 11.0605 9.51874
143 2 -0.978967 11.6508 10.5579
101 4 0.648282 9.93877 9.30054
122 2 0.000211967 9.30858 12.1897
151 4 -2.97404 6.98493 10.5027
112 2 -0.628185 7.9682 13.4348
121 2 -1.86815 9.08636 12.4361
130 1 -0.832561 9.05618 12.9593
123 2 -0.439038 10.2318 14.2534
284 1 -6.2658 9.70545 14.3715
297 2 1.68491 8.72679 10.8742
93 2 -4.12267 13.2006 13.8567
86 2 -7.36178 12.0555 15.8022
264 1 1.64731 9.02246 14.9865
4 4 6.28635 2.75195 3.37602
50 3 7.16889 1.36757 2.81502
57 3 7.3006 4.12535 3.63153
116 2 7.22225 3.78305 7.06474
117 2 5.70115 6.03017 8.14679
128 1 7.07389 5.12256 8.142
9 4 7.411 5.66794 4.04484
61 3 8.71441 6.04283 5.05103
99 4 5.50101 4.09755 7.75156
7 4 10.2883 0.578228 5.76177
45 1 5.72723 6.11149 5.02569
109 2 7.93226 5.83837 7.89361
33 2 6.25543 6.34183 6.0098
18 2 8.41564 1.02633 5.8803
274 2 9.25959 2.8956 2.29769
58 3 9.53284 5.2127 0.950825
72 2 13.0472 1.07541 2.41886
295 2 9.36742 2.05308 7.93952
34 2 4.79421 5.26919 5.00935
56 3 11.3446 5.98056 2.81718
73 2 10.3813 1.31728 1.62388
31 2 9.76159 3.94744 3.79063
46 1 12.9472 2.92459 7.10511
62 3 10.8144 5.01173 6.27552
12 4 10.0136 6.40169 5.90553
29 2 12.0407 3.32497 3.57372
44 1 10.1967 3.2882 2.88606
71 4 11.43 1.71297 3.09153
8 4 10.6887 4.90288 1.94183
11 4 11.1672 3.56482 6.87793
53 3 10.9608 0.925486 4.38879
59 3 10.1328 2.4088 6.65832
214 3 9.5544 1.47897 0.396424
30 2 11.9827 4.24289 0.853793
37 2 13.1051 1.76904 7.43417
36 2 11.7135 3.59747 8.50538
35 2 13.2161 3.17964 5.92687
106 2 9.69627 2.5814 0.300948
271 3 13.3643 0.881104 11.8473
104 2 4.08551 6.18078 9.64755
111 2 4.70072 6.27314 12.7129
278 2 11.5998 4.03609 16.4097
291 2 6.6144 1.63053 9.0457
293 1 7.68709 2.17017 10.4967
294 2 9.12074 1.37996 10.9865
107 2 7.7833 3.23088 10.6828
137 3 6.50376 2.47754 13.2076
139 3 5.16347 4.65127 14.1901
190 2 6.44087 6.50349 12.587
102 4 4.95374 5.61125 15.5901
187 4 8.07717 5.87578 12.8967
140 3 6.30123 6.13398 16.2378
221 4 8.41908 1.19509 9.20204
305 2 8.73595 2.87302 12.5423
307 2 7.88207 4.57038 14.1646
266 4 11.9301 0.864117 12.5212
189 2 8.50007 5.09261 11.3197
308 1 8.95836 3.95955 12.7637
299 2 8.86989 3.16951 14.4502
5 4 9.37285 2.11775 15.9015
105 2 4.22674 6.80931 11.2728
138 3 4.90584 6.96067 12.0465
10 4 7.37182 7.0889 16.8904
52 3 11.1426 1.95841 16.2485
91 4 12.5334 1.39656 16.6272
192 3 9.22371 6.91851 13.3153
97 4 6.43768 1.59404 11.7484
188 2 8.02085 1.0776 14.1951
103 2 10.1891 4.30253 11.2821
306 2 10.024 4.41288 14.1869
240 4 11.0168 3.86422 12.7597
273 3 11.4492 2.34764 12.7096
55 3 11.8746 4.78009 16.9652
115 2 7.18461 4.75494 9.21915
218 2 6.19048 2.19622 17.0252
239 1 3.56808 9.90208 1.14336
66 3 5.45886 7.77499 1.16395
285 2 7.40308 12.4439 1.47944
232 1 0.890475 11.984 5.11132
224 2 0.77337 11.1608 6.82349
65 3 7.2379 9.55498 2.48559
68 3 5.89679 9.69131 4.89388
63 3 7.25628 6.74928 2.83574
238 2 2.56557 9.27539 0.551955
54 3 3.22433 12.2831 6.89227
163 2 3.11021 9.82636 5.26389
67 3 9.50811 7.08646 7.38493
302 2 6.43312 11.5153 8.32577
202 2 8.21432 11.3217 5.59024
43 1 5.76819 12.3669 8.04888
212 2 0.933838 12.2132 3.71452
32 2 5.52304 7.0786 4.43999
207 1 6.26972 12.4953 1.32796
237 2 3.20015 10.8156 1.61602
209 2 8.47245 10.1573 1.62608
235 2 4.15391 9.68616 2.96238
286 2 5.76158 11.4635 1.26452
205 2 5.88101 11.7873 3.10368
234 4 4.03649 8.2231 1.91312
6 4 4.14301 11.2981 7.81001
15 4 5.65658 9.0584 6.29558
40 2 4.8831 7.53151 6.08552
69 3 7.06139 8.69906 7.13799
70 3 4.61867 9.88733 7.10858
201 4 6.77032 10.4243 3.75381
13 4 6.99262 7.79504 1.7385
14 4 8.50592 8.24648 7.96791
165 2 2.69268 8.13656 4.64803
206 1 8.35783 11.1208 4.47586
64 3 8.02216 7.4756 0.539648
301 2 6.18446 12.7824 7.09444
217 2 0.924801 11.7703 1.16928
236 2 4.41407 10.1978 0.42804
211 4 1.44948 10.2243 4.47933
288 2 3.13254 7.77566 9.67797
186 4 9.70859 7.8517 14.6723
277 2 1.95689 12.5467 14.5332
17 2 0.566114 12.5911 15.7762
127 1 1.07714 13.1853 14.9598
292 2 0.701151 11.915 9.23795
191 3 8.53753 7.53563 15.7918
298 1 1.63822 10.0313 10.8397
263 2 1.73074 10.1418 15.5318
260 2 4.39715 10.0962 15.5895
261 2 3.63245 9.29107 13.112
269 2 6.11665 10.3092 15.1148
258 4 3.45337 8.78543 14.7816
272 3 3.10093 12.3833 11.7086
265 4 3.28688 11.0327 10.9206
47 1 4.8394 9.90074 11.6473
281 2 8.66739 9.80899 15.3457
296 2 1.08873 10.6479 11.6749
256 1 7.63699 11.6103 11.9564
21 2 7.98162 7.55719 9.64765
251 2 8.4867 8.26737 11.3816
282 2 8.73925 9.53694 13.3869
82 2 6.60037 10.9654 11.8607
270 3 3.5564 11.2095 9.38223
39 2 5.53016 10.2785 10.7163
249 2 7.71093 9.84551 9.83481
303 2 5.56787 12.5925 15.5289
244 2 6.41202 11.2951 13.5171
246 1 5.64808 11.1206 14.4614
275 2 4.65493 10.8584 14.085
304 2 4.48657 12.6419 14.0771
255 1 8.62571 9.21783 9.80328
268 2 5.22198 10.3154 12.6484
267 2 4.88642 8.70252 11.7189
28 2 5.51225 13.0787 8.88113
113 2 4.16467 7.19289 15.1582
ITEM: TIMESTEP
100
ITEM: NUMBER OF ATOMS
310
ITEM: BOX BOUNDS xy xz yz pp pp pp
-9.0078757918546977e+00 1.5589601122719795e+01 -7.7028071125997499e+00
9.8835977962569821e-02 1.3580554735429383e+01 -1.2814538530586992e+00
2.3983829263538503e-01 1.7263561707364509e+01 9.3829071339187675e-01
ITEM: ATOMS id type x y z
74 2 -0.262671 1.48006 1.99006
152 4 -1.13051 5.75281 5.13104
183 3 -0.867531 4.3028 4.28417
27 2 1.92187 3.84285 5.43002
159 2 -1.05233 3.19778 1.65024
154 4 -0.13386 4.09358 2.84766
75 2 0.814097 2.09158 3.58548
76 1 0.479304 2.32077 2.44485
160 2 1.36665 2.49241 1.7522
184 3 0.750643 5.24717 2.10557
182 3 -1.761 5.73321 6.69061
279 2 1.76232 3.93562 8.02621
227 2 0.539515 1.62398 7.46427
16 2 4.28771 0.281485 1.49194
25 2 2.96417 2.64442 6.29429
19 2 -2.20027 3.49955 7.57903
48 3 2.99788 1.3311 3.74821
42 1 2.98752 4.24457 5.16506
241 2 3.1012 5.84035 6.0551
26 2 3.10464 4.47577 3.98815
180 3 0.345053 6.53592 5.36222
3 4 3.76173 2.46727 4.71244
49 3 5.31122 2.37893 4.78752
51 3 5.30388 3.046 2.05272
110 2 4.23184 4.54363 6.57374
215 4 7.13334 0.424523 1.5916
98 4 5.08226 2.70697 0.544909
179 3 -2.29417 6.53011 4.3446
223 2 5.58776 0.820663 6.56941
125 2 3.82451 1.54615 0.276684
78 4 -0.631484 0.788177 11.8292
134 3 5.05756 1.53343 10.9803
100 4 5.13231 3.06354 14.0022
145 2 -1.51434 6.99774 15.4881
108 2 5.16576 2.179 15.5736
146 2 -1.70475 3.14739 16.8523
245 1 -2.27115 6.29962 11.9246
83 2 0.646236 4.06431 10.8842
132 3 2.80701 1.72256 9.44053
173 2 0.832628 5.73407 14.042
124 2 -0.461465 5.99875 15.3691
131 1 -0.0191549 6.37799 14.3579
126 2 -0.904954 6.39888 13.4262
289 2 2.38227 3.34576 13.9008
94 4 2.22126 4.76954 10.5055
81 2 0.265695 3.12531 15.4763
79 4 1.18155 2.12112 14.3856
162 2 -3.40864 5.22696 10.8638
148 1 -1.52764 2.36415 15.9077
242 2 -1.20278 5.9203 11.7552
120 2 2.21343 6.41783 11.2852
90 3 0.284068 1.65561 13.2019
92 2 -0.650744 1.5813 16.1023
290 1 3.2268 1.65419 14.2496
85 2 3.6314 1.61968 15.3925
87 1 1.16882 3.78664 9.08834
89 3 0.260815 1.35526 10.2829
95 4 4.20725 2.55545 10.0852
243 2 -3.18025 5.05133 12.6737
147 2 -1.54526 2.78951 14.8907
136 3 5.05577 3.33266 8.94884
133 3 3.46806 3.87298 10.8707
252 2 3.6607 2.744 12.9843
280 2 0.0345917 3.97165 8.99932
77 4 1.25259 1.88882 9.22851
97 4 6.41201 1.52615 11.7526
141 3 3.96294 4.63151 16.3336
129 1 3.08511 6.47116 9.64028
220 1 4.33707 1.85739 17.2375
151 4 -3.00097 6.88249 10.3506
118 2 2.32656 6.23506 8.80875
196 2 -1.43075 7.16939 0.496926
233 3 -1.2862 12.8961 7.14479
2 4 -3.57397 7.16652 3.77954
231 1 -6.44352 12.7503 7.45746
168 2 1.4134 9.66965 7.69891
287 2 -6.07935 11.8958 2.42444
226 2 -6.89199 12.1705 6.64601
157 2 -6.55691 12.1382 8.46074
161 2 0.709288 7.65989 0.528624
41 1 -4.41304 11.007 5.57538
208 4 -5.75119 10.8869 0.996962
200 3 -4.42758 10.0169 1.17165
219 2 -3.90747 11.2471 3.67354
80 2 -4.99904 10.5032 4.67972
225 2 -5.39191 12.9435 7.23005
156 2 1.99318 8.06641 7.47157
199 3 -2.96992 8.54779 2.86438
193 4 -3.21098 9.03694 1.36259
170 2 -3.50748 8.23682 6.25637
22 2 -3.96425 10.0981 6.21502
23 2 -5.18422 11.6282 6.29972
164 2 -3.44966 8.9372 8.00651
24 2 -3.63292 11.7769 5.29703
60 3 -4.62258 7.60967 4.91895
153 4 -1.82552 7.18239 7.64432
230 2 -0.862375 12.0289 4.34998
177 1 -2.81763 8.61898 7.10868
169 2 -1.92178 10.0931 6.50174
158 2 -0.945093 8.72433 7.18005
171 2 -1.27797 11.859 8.57662
213 2 -1.23685 9.91593 0.71707
229 2 0.143215 9.03953 5.36565
228 2 -0.572918 8.45053 1.4753
222 4 -0.89383 11.6143 6.10642
174 2 -0.388404 7.57641 3.21725
172 2 1.11177 9.44539 2.84297
178 1 0.161248 8.14793 2.36309
150 4 1.78478 7.06205 5.7941
155 4 1.38049 6.83937 1.92318
175 1 1.7965 8.90093 5.98752
185 3 2.88627 7.34977 2.1701
310 3 -0.0870569 11.4065 1.60247
20 2 -6.09125 9.87371 8.33489
204 2 -6.34072 10.5167 4.35892
1 4 -4.53478 12.6013 2.81595
203 2 -7.40569 12.1249 4.13873
195 2 -3.38704 7.7129 0.281824
165 2 2.67256 8.10729 4.5623
259 2 0.751402 9.12972 14.4471
247 4 -5.39002 8.84476 10.9825
264 1 1.62323 9.02612 15.2608
198 1 -3.16582 9.90082 17.0662
144 2 0.500612 7.44069 14.6337
257 3 -4.19378 7.91372 10.5725
149 3 -4.2147 7.78733 15.0956
309 3 -7.27969 12.8309 16.5
88 1 -3.75342 11.4176 12.8257
300 2 -3.53894 12.1222 11.9753
114 2 -4.87486 11.36 13.0601
283 2 -5.6031 10.4552 13.9957
250 2 -5.46626 10.3342 9.90057
166 2 -3.42921 10.2289 12.4789
253 2 -5.30476 9.42056 12.5951
142 4 -2.83768 8.14637 15.7045
276 2 -2.76221 12.1925 14.1985
86 2 -7.95289 12.0787 16.0863
181 3 -1.94455 6.98697 9.16761
194 2 -3.54617 10.2782 16.0284
262 2 1.63066 8.00921 16.0298
167 2 -2.38348 7.38219 12.4767
210 2 -3.50735 13.2551 17.1754
119 2 -2.15089 10.5408 9.62489
96 4 -1.59645 11.2681 13.1351
135 3 -0.742238 12.2556 12.0521
38 2 -0.899616 9.21712 9.47965
197 2 -1.96607 9.13854 14.601
176 1 -1.21326 11.0914 9.46294
143 2 -0.885312 11.6011 10.4771
101 4 0.647407 10.141 9.24509
122 2 0.139533 9.60132 12.1577
93 2 -4.26498 13.1885 13.7388
112 2 -0.412777 8.16908 13.4927
121 2 -1.87379 9.10488 12.5236
130 1 -0.715837 9.25618 13.07
123 2 -0.687119 10.3472 14.4971
284 1 -6.35731 9.62371 14.3121
297 2 1.39945 9.07029 11.065
84 2 -5.88188 13.4079 15.4405
254 2 -7.58282 11.5817 13.2269
248 2 -7.27841 11.3564 11.3126
4 4 6.32865 2.72337 3.31706
50 3 7.26504 1.28273 2.99048
57 3 7.29452 4.0404 3.88427
116 2 7.01826 3.79119 6.98919
117 2 6.0655 6.32302 8.30402
128 1 7.05886 5.25704 8.24775
9 4 7.27938 5.6139 4.17894
61 3 8.58728 6.09873 5.15008
99 4 5.51623 4.31176 7.81602
7 4 10.2515 0.649719 5.74593
45 1 5.65244 6.05652 5.08226
109 2 7.9597 5.55918 7.67233
33 2 6.07925 6.16138 6.1513
18 2 8.40481 1.03884 5.67395
274 2 9.47397 2.8998 2.60689
58 3 9.32304 5.19763 1.26104
72 2 13.2769 1.18269 2.25133
295 2 9.32388 1.97687 7.97696
34 2 4.65642 5.39085 5.06569
56 3 11.3974 6.0529 2.75176
73 2 10.7046 1.53691 1.69108
31 2 10.2352 3.57103 4.18809
46 1 12.809 2.89902 6.89731
62 3 10.7701 5.01657 6.1792
12 4 9.95843 6.4713 5.88764
29 2 12.3831 3.31269 3.40168
44 1 10.4774 3.40756 3.11161
71 4 11.6579 1.75984 3.07379
8 4 10.7245 4.82159 1.95434
11 4 11.0337 3.58319 6.76395
53 3 11.1295 0.895346 4.39223
59 3 9.94875 2.45755 6.5759
214 3 9.69073 1.46655 0.439616
30 2 11.9637 4.24499 0.89202
37 2 12.9567 1.73188 7.26707
36 2 11.7118 3.66077 8.33259
35 2 13.0098 3.02149 5.73378
28 2 13.1291 0.608526 8.60522
271 3 13.4252 1.06598 11.8153
104 2 4.03135 5.9209 9.47563
111 2 4.74867 6.42877 12.6266
278 2 11.5705 4.02828 16.5531
291 2 6.75405 1.62753 9.00316
293 1 7.62996 2.1973 10.506
294 2 9.04591 1.4069 11.1189
107 2 7.62804 3.23397 10.8043
137 3 6.33496 2.4757 13.1377
139 3 5.20282 4.77685 14.1371
190 2 6.55508 6.40252 12.4599
102 4 5.03712 5.5715 15.5345
187 4 8.11639 5.88513 12.9682
140 3 6.41703 5.82199 16.1796
221 4 8.51328 1.15477 9.28788
305 2 8.67383 2.85063 12.8293
307 2 7.79394 4.57615 14.1823
266 4 12.0277 0.949483 12.5908
189 2 8.3516 4.97457 11.3721
308 1 8.93772 3.99266 12.8329
299 2 8.91728 3.16274 14.5615
5 4 9.34222 2.0011 15.8483
105 2 4.42147 6.74223 11.0949
138 3 5.11431 6.89066 11.8442
10 4 7.41026 6.91126 16.9222
52 3 10.9502 1.88904 16.0817
91 4 12.4901 1.47322 16.5869
192 3 9.15603 7.00438 13.34
216 2 11.501 5.45779 16.0589
113 2 4.21731 7.11901 15.1993
103 2 9.94126 4.23957 11.3275
306 2 10.084 4.48049 14.2765
240 4 10.9358 3.85435 12.8002
273 3 11.3768 2.3664 12.7804
55 3 11.814 4.93224 16.7835
115 2 7.34101 4.78146 9.23624
218 2 6.08522 2.32302 17.0917
106 2 8.47324 3.48742 17.2264
239 1 3.42088 10.1785 1.46909
66 3 5.44489 7.88769 1.17131
285 2 7.57954 12.4997 1.17688
232 1 0.907613 11.9405 5.03795
211 4 1.50959 10.1778 4.65844
65 3 7.43125 9.2471 2.47418
68 3 6.03423 9.80489 4.97355
63 3 7.03496 6.59629 2.85741
238 2 2.4815 9.89264 0.861802
54 3 3.01716 12.0981 6.76706
163 2 3.21904 9.7526 5.35234
67 3 9.48973 7.26972 7.22095
302 2 6.44163 11.5667 8.32265
202 2 8.14164 11.0022 5.75437
43 1 5.7755 12.3538 7.83603
212 2 1.11939 12.114 3.75717
32 2 5.4737 7.07437 4.53886
207 1 6.44658 12.5023 1.27595
237 2 3.1259 10.9498 2.30269
209 2 8.46039 9.90469 1.52683
235 2 4.24883 9.66234 3.15847
286 2 6.07179 11.4043 1.05299
205 2 5.85243 11.5845 2.91791
234 4 4.06109 8.45675 1.90021
6 4 4.14887 11.3355 7.77065
15 4 5.67627 9.14711 6.39816
40 2 5.02895 7.53571 6.21982
69 3 7.11757 8.80593 7.16329
70 3 4.70182 9.89261 7.33286
201 4 6.82439 10.3858 3.73779
13 4 6.98691 7.61555 1.61235
14 4 8.41667 8.38184 7.92064
236 2 4.18956 10.513 0.719559
206 1 8.31031 11.019 4.6342
64 3 7.92391 7.50326 0.281191
301 2 6.14359 12.8646 6.87777
217 2 0.82232 11.6667 1.08701
224 2 0.740057 11.1475 6.7285
288 2 3.30194 7.57041 9.58425
186 4 9.6457 7.80583 14.7046
277 2 1.80408 12.1437 14.7612
17 2 0.348398 12.5119 15.9101
127 1 1.06834 12.8806 15.1423
292 2 0.706533 11.9332 9.30272
191 3 8.76337 7.28017 15.921
298 1 1.58615 10.3044 10.9029
263 2 2.00374 10.1947 15.7849
260 2 4.49179 9.7572 15.4567
261 2 3.41619 8.99917 13.0817
269 2 5.92905 10.5645 15.4818
258 4 3.3293 8.67995 14.8609
272 3 3.27355 12.404 11.919
265 4 3.29937 11.1042 11.0964
47 1 4.74653 9.7646 11.9136
281 2 8.77293 9.80033 15.4112
296 2 1.09811 10.9288 11.746
256 1 7.55918 11.5246 12.1879
21 2 7.94307 7.61008 9.60267
251 2 8.6129 8.05506 11.1919
282 2 8.47106 9.53688 13.5004
82 2 6.4262 10.8032 12.044
270 3 3.54661 11.2257 9.5682
39 2 5.44689 10.1622 10.9772
249 2 7.77844 9.92399 9.92949
303 2 5.68051 12.7325 15.5129
244 2 6.23251 11.3184 13.7764
246 1 5.52987 11.217 14.6803
275 2 4.42771 11.1183 14.4292
304 2 4.5729 12.868 14.2036
255 1 8.63228 9.24519 9.72898
268 2 5.04199 10.288 12.9625
267 2 4.82072 8.61988 11.9459
188 2 0.536202 13.3308 14.2073
ITEM: TIMESTEP
200
ITEM: NUMBER OF ATOMS
310
ITEM: BOX BOUNDS xy xz yz pp pp pp
-9.0078757918546977e+00 1.5589601122719795e+01 -7.7028071125997499e+00
9.8835977962569821e-02 1.3580554735429383e+01 -1.2814538530586992e+00
2.3983829263538503e-01 1.7263561707364509e+01 9.3829071339187675e-01
ITEM: ATOMS id type x y z
74 2 -0.308317 1.47117 1.97073
152 4 -1.07045 5.83746 5.09677
183 3 -0.916699 4.22011 4.2986
27 2 1.93773 3.85371 5.68171
159 2 -1.2058 3.32473 1.69025
154 4 -0.149764 4.14045 2.87405
75 2 0.866898 2.19387 3.38396
76 1 0.379779 2.39582 2.28999
160 2 1.13694 2.58889 1.51531
184 3 0.805096 5.28134 2.43361
182 3 -1.73499 5.80907 6.77422
279 2 1.84831 4.11571 8.38865
227 2 0.691306 1.44603 7.39763
118 2 2.51039 6.06849 8.64325
25 2 3.1018 2.44482 6.3912
19 2 -2.31563 3.84374 7.37888
48 3 3.18681 1.33736 3.69179
42 1 3.01315 4.02604 5.22051
241 2 2.9352 5.56529 6.1967
26 2 2.92987 4.37163 4.06437
180 3 0.4101 6.46788 5.28166
3 4 3.78573 2.41183 4.74347
49 3 5.3763 2.42585 4.80344
51 3 5.48786 3.24118 2.15453
110 2 4.30769 4.48616 6.51303
215 4 7.08196 0.401402 1.57791
98 4 5.15947 2.85244 0.691449
16 2 4.22219 0.204163 1.37343
223 2 6.14407 1.16163 6.54631
125 2 3.79341 1.70477 0.466173
78 4 -0.545965 0.872941 11.9152
134 3 5.031 1.4695 10.9439
100 4 5.03722 3.10014 13.8449
145 2 -1.6167 6.90949 15.3996
108 2 5.03819 2.54547 15.548
146 2 -1.79037 3.27942 16.4449
245 1 -2.35271 6.3941 12.0768
83 2 0.702839 4.12047 10.9691
132 3 2.86775 1.84035 9.34087
173 2 0.654611 5.5138 14.1102
124 2 -0.563831 5.95527 15.3192
131 1 -0.0395508 6.35554 14.4095
126 2 -0.891847 6.44904 13.5101
289 2 2.33746 3.33909 13.7983
94 4 2.37379 4.81605 10.509
81 2 0.0452445 3.09835 15.435
79 4 1.11067 2.11622 14.4116
162 2 -3.05515 5.0782 10.9298
148 1 -1.65257 2.26096 15.7478
242 2 -1.25265 6.17078 11.9129
120 2 2.45617 6.52753 11.3394
90 3 0.326611 1.57136 13.2013
92 2 -0.780259 1.49323 16.0599
290 1 3.1386 1.8168 14.3611
85 2 3.38707 1.92377 15.4434
87 1 1.18359 3.69943 9.17983
89 3 0.250177 1.33905 10.4248
95 4 4.10391 2.50462 10.067
243 2 -3.30764 5.21912 13.098
147 2 -1.71679 2.5235 14.6607
136 3 5.10843 3.24512 8.95434
133 3 3.50803 3.91976 11.036
252 2 3.5778 2.82083 12.8289
97 4 6.43367 1.50161 11.723
77 4 1.27059 1.84493 9.25597
151 4 -2.92149 6.77235 10.4471
141 3 4.03853 4.74939 16.5186
129 1 3.13021 6.59139 9.63726
280 2 0.0897477 3.84731 8.94217
220 1 4.26989 2.02127 17.2404
196 2 -1.56831 7.20059 0.441671
233 3 -1.44287 12.9212 7.27235
2 4 -3.50377 7.18981 3.73311
231 1 -6.48274 12.6842 7.36871
168 2 1.42056 9.76026 7.50673
287 2 -6.15227 12.1841 2.38224
226 2 -6.79824 12.1831 6.34913
157 2 -6.82056 12.0834 8.22554
161 2 0.507166 7.23859 0.415553
41 1 -4.14187 11.1519 5.60638
208 4 -5.8446 10.9086 1.05707
200 3 -4.53942 10.0742 1.17757
219 2 -3.6458 11.3183 3.64447
80 2 -4.78919 10.6897 4.75976
225 2 -5.30265 12.7404 7.43591
156 2 1.7235 7.87884 7.477
199 3 -2.97153 8.58211 2.77012
193 4 -3.34116 8.98946 1.30443
170 2 -3.50944 8.32444 6.30706
22 2 -3.69474 10.2498 6.17946
23 2 -4.86937 11.7194 6.31575
164 2 -3.28878 8.8921 8.07721
24 2 -3.32491 11.9037 5.33002
60 3 -4.72113 7.46306 4.87085
153 4 -1.873 7.14035 7.62875
230 2 -0.845193 11.8609 4.44926
177 1 -2.77743 8.66207 7.0808
169 2 -1.70986 10.0589 6.51265
158 2 -0.887175 8.55986 6.96011
171 2 -1.17449 11.7869 8.66164
213 2 -1.4683 9.90951 0.565174
229 2 0.0683979 8.97712 5.31609
228 2 -0.654787 8.43751 1.32063
222 4 -0.835328 11.6686 6.23652
174 2 -0.422942 7.4432 3.03648
172 2 1.16619 9.22769 2.65394
178 1 0.148504 8.04458 2.09654
150 4 1.78283 7.04058 5.85291
155 4 1.3697 6.71509 1.83948
175 1 1.75379 8.93178 5.96413
185 3 2.81348 7.33902 1.93184
310 3 -0.212726 11.4235 1.44558
20 2 -6.02959 9.88478 8.31102
204 2 -6.09578 10.8942 4.2967
1 4 -4.44323 12.5653 2.78879
203 2 -7.66847 12.3003 4.37878
179 3 -2.0664 6.75364 4.21251
211 4 1.44374 9.93838 4.50179
259 2 0.756259 9.18784 14.5942
247 4 -5.55481 8.9143 10.9546
264 1 1.63199 8.9834 15.4524
198 1 -3.3208 9.80323 16.9077
144 2 0.583911 7.39883 14.7404
257 3 -4.4002 7.82935 10.525
149 3 -4.25543 7.76162 14.9908
309 3 -7.41754 12.7923 16.5319
88 1 -3.78795 11.426 13.0706
300 2 -3.74126 12.2988 12.3647
114 2 -4.84866 11.3847 13.5473
283 2 -5.46116 10.4298 14.3037
250 2 -5.61588 10.4372 9.97531
166 2 -3.66863 10.4156 12.4688
253 2 -5.30587 9.41806 12.6041
142 4 -2.89285 8.10958 15.6212
276 2 -2.82902 11.6476 14.5948
86 2 -7.82634 11.9843 15.9781
181 3 -1.88148 7.04314 9.22822
194 2 -3.82535 10.227 15.8874
262 2 1.62312 7.84403 16.0698
167 2 -2.44528 7.5831 12.4608
210 2 -3.59165 13.4752 16.9708
119 2 -1.94495 10.2436 9.5092
96 4 -1.63981 11.2936 13.2104
135 3 -0.890692 12.4167 12.1101
38 2 -0.655319 9.1634 9.13248
197 2 -1.79147 9.03893 14.6863
176 1 -1.10429 11.0047 9.52921
143 2 -1.02156 11.5148 10.5332
101 4 0.771705 10.1654 9.2947
122 2 0.231724 9.64196 12.4394
93 2 -4.17273 13.2594 13.8526
112 2 -0.417029 8.20827 13.509
121 2 -1.84444 9.36227 12.3436
130 1 -0.606193 9.35486 13.121
123 2 -0.525365 10.6715 14.4527
284 1 -6.30392 9.59838 14.339
297 2 1.50358 9.01333 11.0686
84 2 -5.86917 13.418 15.4183
195 2 -4.8911 8.63629 17.1975
4 4 6.43864 2.77325 3.41928
50 3 7.11222 1.33553 2.85889
57 3 7.40207 4.12376 3.92049
116 2 7.04201 3.77141 6.99579
117 2 5.99639 6.1509 8.60733
128 1 7.04411 5.32428 8.10083
9 4 7.21291 5.68727 3.95347
61 3 8.52907 6.16657 4.8332
99 4 5.54729 4.22564 7.83295
7 4 10.2338 0.446266 5.64127
45 1 5.50587 6.08212 4.92542
109 2 7.73054 5.79789 7.30917
33 2 5.86977 6.27486 5.97259
18 2 8.44755 1.02442 5.46355
274 2 9.54641 3.56823 3.3451
58 3 9.38781 5.06355 1.20058
72 2 13.2123 1.07878 2.52454
295 2 9.47792 1.65028 7.8826
34 2 4.54147 5.29442 4.91874
56 3 11.4402 6.09873 2.79129
73 2 10.7418 1.66885 1.45891
31 2 11.2286 4.00078 4.1604
46 1 12.6564 3.11521 6.80461
62 3 10.488 5.06872 6.36364
12 4 9.86879 6.55962 5.70573
29 2 12.6071 3.23067 3.36486
44 1 10.6917 3.50187 3.26362
71 4 11.6816 1.80422 3.07297
8 4 10.8352 4.90088 1.94962
11 4 10.8694 3.59114 6.71961
53 3 11.1485 0.845259 4.34651
59 3 9.91346 2.25621 6.49882
214 3 9.73398 1.4117 0.421071
30 2 12.114 4.49198 0.862523
37 2 12.9452 1.95363 7.12274
36 2 11.5131 3.54579 8.32903
35 2 12.8113 3.35218 5.60142
28 2 13.5109 0.795979 8.55264
63 3 7.00437 6.43875 2.57978
301 2 13.5828 0.490657 6.5954
271 3 13.4586 1.06465 11.8758
104 2 4.31155 6.29074 9.56695
111 2 4.8177 5.91334 12.6694
278 2 11.2599 4.22701 16.3108
291 2 6.95867 1.83424 9.06503
293 1 7.73457 2.26337 10.5738
294 2 9.31397 1.71222 11.1173
107 2 7.68269 3.35316 10.8693
137 3 6.31622 2.3033 13.1376
139 3 5.04922 4.66905 14.0348
190 2 6.49183 6.49431 12.4024
102 4 4.96282 5.56835 15.503
187 4 8.03872 5.89271 12.8971
140 3 6.38166 5.85941 16.0607
221 4 8.69652 1.24561 9.40966
305 2 8.82309 2.96454 12.6478
307 2 7.76635 4.61223 14.1094
266 4 12.0574 0.943609 12.6048
189 2 8.39555 5.05621 11.3355
308 1 8.99009 4.02263 12.8415
299 2 9.02008 2.95508 14.4364
5 4 9.2958 1.85901 15.827
105 2 4.36506 6.63058 11.1872
138 3 5.01262 6.67432 12.0442
10 4 7.40328 6.78207 16.9574
52 3 10.9915 1.66225 16.3244
91 4 12.5136 1.48623 16.7953
192 3 9.12359 6.8951 13.3958
106 2 8.35382 3.35514 17.2059
113 2 4.07349 7.03282 15.0968
103 2 10.0458 4.60678 11.3806
306 2 10.0585 4.33565 14.3794
240 4 10.9423 4.00227 12.8436
273 3 11.5069 2.48543 12.7303
55 3 11.6839 5.04941 16.6591
115 2 7.5988 4.89646 9.0164
218 2 6.04247 2.35614 17.0684
216 2 11.2114 5.60092 15.9827
239 1 3.56287 10.1432 1.61854
66 3 5.41898 8.13952 1.08754
285 2 7.61853 12.333 1.45809
232 1 0.93183 11.8397 5.01798
165 2 2.92368 7.99364 4.8248
65 3 7.52175 9.10017 2.55477
68 3 5.96816 9.79973 4.96428
224 2 0.829792 11.3209 6.8203
238 2 2.44523 9.90139 1.27653
54 3 3.12894 12.248 6.97416
163 2 3.14969 9.72203 4.9979
67 3 9.4606 7.40642 7.07852
302 2 6.55968 11.6999 7.65506
202 2 8.16088 10.734 5.73943
43 1 5.77366 12.6178 7.60849
212 2 0.936198 11.9318 3.70433
32 2 5.26549 7.02633 4.27469
207 1 6.45212 12.4385 1.41942
237 2 3.60594 10.8991 2.42089
209 2 8.42101 9.97716 1.6763
235 2 4.31733 9.50177 3.3052
286 2 5.86446 11.3916 1.2539
205 2 5.9129 11.712 3.12885
234 4 4.08553 8.34678 1.9849
6 4 4.27088 11.4484 7.91609
15 4 5.7102 9.12229 6.33542
40 2 4.90576 7.68185 5.91678
69 3 7.1002 8.79156 7.02643
70 3 4.68676 9.98051 7.18428
201 4 6.86008 10.3861 3.87633
13 4 6.96827 7.65152 1.6488
14 4 8.53572 8.39805 7.83829
236 2 4.26248 10.4385 0.82514
206 1 8.37301 11.1201 4.67076
217 2 0.803537 11.7013 1.36524
64 3 7.79293 7.26283 0.354716
288 2 3.00957 7.7226 9.5389
186 4 9.64076 7.79746 14.7506
277 2 1.88157 11.8705 15.7729
17 2 0.203622 12.6437 16.3004
127 1 1.04598 12.6646 15.5088
292 2 0.873899 12.0206 9.36298
191 3 8.72701 7.39226 16.0686
298 1 1.66621 10.1924 10.9088
263 2 1.99811 9.98305 16.0706
260 2 4.6563 9.51885 15.2804
261 2 3.29007 8.97542 13.0288
269 2 5.97374 10.1975 15.2338
258 4 3.25247 8.58007 14.7365
272 3 3.24304 12.4279 11.8759
265 4 3.37983 11.093 11.0229
47 1 4.703 9.76236 11.934
281 2 8.62134 9.80521 15.2711
296 2 1.15976 10.794 11.7722
256 1 7.43156 11.5382 12.115
21 2 8.2777 7.52986 9.54005
251 2 8.4612 8.09295 11.1478
282 2 8.63488 9.4513 13.3967
82 2 6.37305 10.8886 12.0957
270 3 3.85253 11.2892 9.49104
39 2 5.4088 10.0537 11.0792
249 2 7.58346 9.83965 9.67662
303 2 5.51875 12.3788 15.8807
244 2 6.27091 11.3977 13.7964
246 1 5.50602 11.1732 14.7287
275 2 4.44446 11.0216 14.292
304 2 4.57739 12.8319 14.1625
255 1 8.57662 9.27609 9.6935
268 2 4.97051 10.2852 12.9875
267 2 4.69663 8.61858 12.015
188 2 0.651251 12.6892 14.4481
248 2 8.10778 11.3072 11.2027
254 2 7.97644 11.4105 13.0965
ITEM: TIMESTEP
300
ITEM: NUMBER OF ATOMS
310
ITEM: BOX BOUNDS xy xz yz pp pp pp
-9.0078757918546977e+00 1.5589601122719795e+01 -7.7028071125997499e+00
9.8835977962569821e-02 1.3580554735429383e+01 -1.2814538530586992e+00
2.3983829263538503e-01 1.7263561707364509e+01 9.3829071339187675e-01
ITEM: ATOMS id type x y z
74 2 -0.361036 1.44209 1.90081
152 4 -1.15299 5.84564 5.20178
183 3 -0.851133 4.34486 4.33128
27 2 1.90395 3.87598 5.11148
159 2 -1.0906 3.42372 1.62077
154 4 -0.0512014 4.08128 2.88134
75 2 0.928667 2.08632 3.31893
76 1 0.402569 2.37161 2.25837
160 2 1.22909 2.52301 1.47131
184 3 0.818939 5.20807 2.24039
182 3 -1.8144 5.94139 6.69297
279 2 1.40632 4.09884 8.04483
227 2 0.526605 1.35674 7.48088
125 2 3.75073 1.97451 0.506932
25 2 2.99385 2.55867 6.33619
19 2 -2.57548 3.93162 7.81095
48 3 3.19874 1.27364 3.84856
42 1 3.04582 4.10057 5.09063
241 2 3.10466 5.55817 6.17487
26 2 3.41327 4.41799 3.93198
180 3 0.360902 6.41942 5.5115
3 4 3.88986 2.4044 4.81207
49 3 5.53215 2.49275 4.99687
51 3 5.44097 3.29998 2.22029
110 2 4.16925 4.2586 6.56764
215 4 7.1721 0.472876 1.53384
98 4 5.19883 3.01047 0.72353
16 2 4.24429 0.467283 1.55702
223 2 5.76247 0.721975 6.70091
220 1 5.49644 1.2492 0.28777
225 2 2.35142 0.489263 7.30603
78 4 -0.481155 0.783312 11.9053