ITEM: TIMESTEP
0
ITEM: NUMBER OF ATOMS
373
ITEM: BOX BOUNDS xy xz yz pp pp pp
-1.0794400000000000e+01 2.0438599999999997e+01 -1.0794400000000000e+01
-3.3405999999999998e+00 1.4057499999999999e+01 1.3894000000000000e+00
0.0000000000000000e+00 1.7550000000000001e+01 -3.3405999999999998e+00
ITEM: ATOMS id type x y z q
179 4 -0.184066 1.86091 8.70248 1.16818
183 3 0.984519 1.04673 7.95069 -0.767421
189 2 -0.0436677 3.41444 8.11145 -0.0285316
192 2 0.837838 2.13398 5.25863 0.155068
199 4 -0.638447 4.76602 1.23627 0.798794
200 4 -2.05969 5.29376 4.06654 1.0098
202 2 0.846484 5.57466 1.51378 -0.0418069
203 1 -0.139329 2.88061 1.37296 -0.648923
205 3 -1.7082 5.07587 2.39898 -0.719224
210 2 -1.11051 2.31091 1.46732 0.159798
211 2 0.4981 2.81592 2.30565 0.145707
212 2 0.430798 2.63032 0.43209 0.157443
322 2 -3.98503 4.78532 5.59263 0.144109
325 1 -0.566951 4.53809 4.99928 -0.661056
326 2 -0.624959 4.92136 6.06248 0.138824
327 2 0.352452 4.90544 4.44302 0.152203
328 2 -0.714581 3.41614 4.91959 0.137827
337 2 0.923168 -1.14134 6.40998 -0.0324565
359 2 -0.372616 5.50357 8.26065 0.133902
3 4 5.0663 1.37932 2.58108 1.20082
4 4 6.94603 -0.705922 6.68537 0.700409
5 4 6.7465 1.9161 5.0537 1.23439
7 4 4.02088 4.25871 2.38371 1.03879
9 4 5.58875 3.42272 7.47184 1.28415
10 4 3.42503 5.35789 6.43703 1.06821
15 4 5.61036 6.13101 4.30183 1.57092
33 3 6.3038 0.815076 1.71086 -0.792127
34 2 3.84413 0.218784 2.58051 -0.0412441
35 2 5.71388 -0.389497 7.82378 -0.0576388
36 3 5.53347 1.51614 4.09439 -0.824901
37 3 7.33178 0.587383 5.83385 -0.775848
41 3 4.42708 2.74483 1.98023 -0.801414
42 1 3.50098 5.2374 0.829703 -0.668397
43 2 2.60812 4.23688 3.3486 -0.0504666
45 2 5.22082 2.03647 8.34968 -0.0483691
46 3 6.28988 2.92551 6.16314 -0.811276
47 2 1.99461 4.77937 5.69402 -0.0355807
48 3 4.1686 4.13019 7.15966 -0.816559
62 3 5.16974 5.09227 3.09314 -0.809131
63 3 4.33315 6.1275 5.38553 -0.804373
64 2 6.74615 5.34735 0.615108 0.000868021
68 3 6.54782 4.30895 8.40579 -0.820875
71 3 7.02071 5.65746 4.96071 -0.824477
117 2 2.8874 4.5371 0.1899 0.154729
118 2 4.46444 5.56258 0.333688 0.204161
119 2 2.90734 6.11462 1.23626 0.176486
124 2 2.18206 5.98521 8.50591 0.170299
178 4 1.73939 0.315596 6.75837 0.698709
181 1 1.7299 1.43749 5.26556 -0.669654
190 2 1.72138 0.64175 4.43167 0.112262
191 2 2.74485 1.96199 5.40606 0.159634
320 2 3.29933 -0.281784 7.13394 -0.058895
17 4 10.2766 3.7849 7.22244 0.933287
19 4 8.39303 5.95303 5.73158 1.36821
61 2 8.0047 2.60763 4.16923 -0.00682159
65 1 9.56093 2.54519 8.57564 -0.65263
66 1 11.2541 2.80182 5.8248 -0.647538
67 1 11.4331 5.16705 8.04953 -0.650222
72 3 9.13303 4.59301 6.48359 -0.750151
138 2 11.1293 -0.997778 8.37708 0.143797
139 2 12.9542 -1.31839 8.05998 0.186829
147 2 9.82684 1.52265 8.17149 0.154347
148 2 8.44769 2.73584 8.61133 0.207401
150 2 10.7751 1.77709 5.82463 0.159213
151 2 12.3343 2.79186 6.14985 0.146799
152 2 11.0839 3.37046 4.86241 0.157191
153 2 11.4778 6.00809 7.29547 0.172182
154 2 12.4309 4.67677 8.22618 0.134053
157 2 9.98712 5.44922 3.87846 0.14654
223 1 12.7592 5.89947 1.05801 -0.615282
225 2 12.0668 5.45866 1.93181 0.127911
227 2 12.9513 5.22478 0.153635 0.175931
259 4 12.2104 1.73636 0.747538 0.793183
262 2 10.8002 2.14879 1.63266 -0.0298612
319 2 13.2958 1.49265 8.0971 0.159571
329 1 8.86277 -0.378151 2.53557 -0.657695
330 2 8.54029 -0.0731347 3.57204 0.17827
331 2 9.52556 0.39162 2.03829 0.16063
342 2 13.5479 2.73585 2.58684 0.153876
344 1 12.3002 -0.156254 1.02027 -0.654029
365 2 8.23192 -1.21737 7.68584 -0.0463038
182 3 17.3104 1.37562 8.46895 -0.753587
321 1 15.334 4.39512 4.5671 -0.651264
177 4 15.7091 1.43724 7.78745 0.952922
184 2 15.7521 2.89653 6.92352 -0.0370799
304 4 15.2942 -0.479334 5.31353 1.00986
305 1 14.9693 0.863697 4.00959 -0.65562
306 3 15.4143 0.296077 6.72069 -0.783594
307 2 13.8322 0.914961 4.02315 0.168367
308 2 15.3795 0.396629 3.0624 0.12448
309 2 15.4728 1.88116 4.26772 0.144874
323 2 15.4895 3.24343 4.56308 0.143882
324 2 14.5983 4.72654 3.77507 0.174036
340 1 13.7429 2.70254 1.47571 -0.64453
341 2 14.6656 2.11349 1.20906 0.162236
343 2 13.736 3.72773 1.00406 0.185704
109 2 -5.26204 11.896 0.914969 0.152486
110 2 -5.04649 12.1491 2.7658 0.14809
219 2 -5.2477 9.03717 4.016 0.139527
221 2 -5.00842 7.21669 4.48292 0.172259
243 1 -5.66916 10.5645 8.56239 -0.653847
247 2 -5.33225 9.50626 8.21926 0.137077
248 2 -4.80894 11.2907 8.71958 0.138661
249 2 -6.53852 10.996 7.97677 0.149861
257 2 -9.41028 13.6695 0.408488 0.15064
353 2 -5.3805 12.3759 5.14049 0.139356
226 2 -5.15169 6.9967 1.39953 0.0697387
1 4 -3.52058 13.6312 1.39767 1.08327
14 4 0.781541 11.0661 6.96265 0.951828
31 1 -4.53247 11.9968 1.77317 -0.66862
55 1 1.31375 7.58021 3.93497 -0.678083
57 2 0.119942 9.86274 2.76887 -0.0417042
58 1 1.16115 12.2907 8.34961 -0.657979
59 1 -0.0654248 11.9665 5.51804 -0.664694
60 1 -0.327141 9.65402 7.54988 -0.655026
108 2 -3.77466 11.1613 1.79981 0.1413
135 2 0.935698 6.81139 3.19526 0.151116
136 2 0.537476 7.86654 4.71328 0.164049
141 2 -1.01889 12.4179 5.92221 0.144642
142 2 -0.267348 11.1917 4.72428 0.147342
143 2 0.662704 12.7541 5.16724 0.185939
144 2 -1.23187 9.63101 6.87495 0.147068
145 2 -0.596001 9.87328 8.6231 0.149028
146 2 0.30916 8.72587 7.44616 0.173222
201 4 -2.79926 8.39687 4.12293 0.787845
206 1 -2.59018 8.53839 2.17683 -0.65243
207 3 -2.13608 6.97934 4.46373 -0.732452
208 1 -4.64926 8.28386 4.60534 -0.635237
209 2 -1.99199 9.69664 4.89265 -0.0415743
216 2 -1.93731 7.65919 1.8864 0.190942
217 2 -2.09876 9.53395 1.98787 0.12752
218 2 -3.63163 8.46693 1.7528 0.146511
220 2 -4.48383 8.58929 5.71679 0.14691
234 2 -0.73462 11.7612 0.394317 0.158449
236 2 -2.14771 10.5736 0.014697 0.143397
290 1 -3.01671 7.14703 7.65132 -0.645171
295 2 -4.11377 6.70945 7.68448 0.124004
296 2 -2.38781 6.73029 6.80958 0.181107
297 2 -2.97374 8.27343 7.73769 0.170985
332 2 -1.48545 12.6417 2.50785 0.144545
345 2 0.970029 13.367 0.182541 0.165988
346 2 1.12058 13.6317 2.04905 0.152818
352 1 -4.33734 12.0336 5.46001 -0.660088
354 2 -4.33301 11.1205 6.16568 0.126449
355 2 -3.57774 11.9857 4.61701 0.156322
8 4 2.64701 8.77304 0.00469248 1.14503
13 4 1.66887 9.18876 3.01677 1.05643
23 4 6.85911 8.5458 2.83464 1.5521
24 4 3.25169 10.8254 5.20024 1.46079
25 4 6.02988 11.2806 1.84322 0.981883
26 4 7.50972 8.08221 7.796 1.53019
28 4 6.06394 10.3425 6.36749 1.26484
49 1 2.73082 6.58571 7.71935 -0.655514
56 3 2.27034 8.85738 1.56683 -0.778413
83 3 5.85189 7.59619 3.69997 -0.801715
86 3 2.54636 10.1682 3.90297 -0.790364
87 3 3.34442 12.4813 5.12911 -0.802376
88 3 2.1725 10.4549 6.52836 -0.753712
89 3 5.99901 9.79376 2.23753 -0.790111
90 2 6.3018 12.2546 3.16893 -0.0566841
97 3 7.4231 10.905 5.60981 -0.842015
98 3 4.76134 10.32 5.45145 -0.815877
99 3 6.34549 8.95671 7.08038 -0.82033
100 2 5.76566 11.452 7.61109 -0.0373056
123 2 3.66297 7.09697 8.11815 0.216158
125 2 2.05495 7.28647 7.13891 0.166616
137 2 2.32742 7.31756 4.38153 0.200319
347 2 2.66807 13.8498 0.937285 0.142188
371 3 7.07161 11.6121 0.720478 -0.809139
372 2 6.03942 12.9837 4.87313 -0.025683
373 2 4.48047 11.7877 1.4512 -0.0267499
91 3 6.74445 7.03406 8.77109 -0.821287
255 2 10.1649 11.2523 0.878014 0.138165
16 4 7.60559 6.82513 0.301726 1.31466
84 3 7.54458 7.65411 1.66086 -0.818225
70 1 9.69405 6.41503 4.38473 -0.670793
85 3 8.16815 9.17188 3.75574 -0.826641
92 3 8.37709 7.2355 6.71021 -0.827117
93 3 8.58845 9.12464 8.66484 -0.803211
156 2 9.17408 7.13632 3.68952 0.227205
158 2 10.5469 6.89249 4.95661 0.159158
222 4 12.0332 7.37349 0.676149 0.774309
224 2 11.5659 8.63514 1.70501 -0.0400818
228 4 8.57982 10.2854 4.74186 0.956993
229 2 9.3833 11.5198 3.94635 -0.0733498
230 2 9.86006 9.76253 5.68778 -0.0303141
180 4 -0.161284 1.40149 11.7472 0.822396
185 2 1.1701 0.473207 12.3017 -0.00988311
186 3 0.0662278 1.94833 10.2753 -0.760444
188 1 -0.570444 2.89355 12.9319 -0.649459
196 2 0.198758 3.68802 12.7039 0.159049
197 2 -0.499229 2.49956 13.9882 0.148038
198 2 -1.62199 3.2055 12.6502 0.157818
204 1 0.135405 1.98105 17.0605 -0.647491
213 2 1.01014 2.26685 16.4025 0.155302
214 2 -0.629319 2.80427 17.181 0.167172
215 2 -0.333358 0.948921 16.7847 0.155556
2 4 4.41832 -0.934539 11.17 0.994071
6 4 4.64611 0.33225 14.0045 1.23897
11 4 6.60186 2.82644 13.5999 1.31159
12 4 4.71508 4.41051 11.6115 1.13112
32 1 6.10063 -0.185571 10.7302 -0.668265
38 3 4.03784 -0.383411 12.6344 -0.768834
39 3 5.35046 -0.836944 15.171 -0.722857
40 1 3.22936 1.28455 14.829 -0.671915
44 1 2.558 4.38792 16.8225 -0.660084
50 3 5.87183 1.35789 13.6284 -0.788859
52 1 3.62143 2.96078 10.8382 -0.66273
53 3 6.00984 3.70349 12.2986 -0.785314
76 3 6.34704 3.63169 14.9607 -0.819821
77 3 8.11815 4.24877 16.752 -0.808223
111 2 5.87757 0.911652 10.5417 0.151039
112 2 6.44854 -0.741416 9.80656 0.128227
113 2 6.76801 -0.351128 11.6327 0.185184
114 2 2.85289 2.04024 14.0722 0.14535
115 2 3.65487 1.76854 15.7613 0.168613
116 2 2.46417 0.47474 15.0603 0.158586
122 2 2.85903 4.05802 15.7886 0.158899
129 2 4.32346 2.39015 10.1653 0.149546
130 2 2.789 3.46199 10.2666 0.176203
131 2 3.24615 2.33354 11.6958 0.157142
279 4 6.65281 -1.66394 15.4547 0.973879
281 1 7.86845 -0.625317 16.485 -0.659077
283 2 6.15888 -2.87291 17.5136 0.199388
285 2 8.14898 0.284103 15.8734 0.164862
287 2 7.30272 -0.353571 17.4266 0.211864
339 2 3.29869 -0.329239 10.04 -0.0229398
348 1 7.45538 -2.16008 13.7974 -0.663064
350 2 7.92238 -1.22391 13.3697 0.158802
121 2 2.44692 3.52649 17.5445 0.149751
51 1 8.516 2.63474 13.4365 -0.665677
73 1 13.791 4.13934 13.7883 -0.656368
75 3 13.2658 4.34443 16.6753 -0.735357
126 2 8.68613 2.35737 12.3552 0.158792
127 2 8.82765 1.82251 14.1575 0.173059
128 2 8.94061 3.65157 13.7089 0.220999
149 2 10.0906 2.79462 9.54119 0.147101
160 2 13.0174 3.28525 13.8155 0.165818
169 2 8.44573 4.31817 10.443 0.172122
260 4 13.0938 -0.30798 15.3741 1.04407
261 4 12.4168 -1.57217 12.5022 0.677511
263 3 13.4565 -1.16554 16.7511 -0.744685
265 1 11.3141 0.419034 15.6454 -0.640391
266 3 13.0056 -1.1456 13.9243 -0.74359
268 2 13.6258 -1.69361 11.311 -0.0534468
269 1 11.2149 -0.270143 11.9778 -0.646429
270 2 14.3002 1.43246 14.0207 0.163838
272 2 14.096 1.93409 15.8203 0.186091
273 2 10.6113 -0.382292 15.26 0.163551
274 2 11.2757 1.36651 15.0312 0.182962
275 2 11.1897 0.614751 16.7505 0.189981
276 2 10.9374 -0.387291 10.8869 0.151135
277 2 11.7764 0.697493 12.2245 0.167426
278 2 10.3561 -0.527241 12.7241 0.144957
286 2 8.75558 -1.29335 16.6999 0.189876
316 1 14.1645 1.48327 8.85279 -0.662441
317 2 14.2087 2.41312 9.49209 0.130944
318 2 14.2185 0.510966 9.44477 0.154723
370 3 10.3344 3.09915 17.4439 -0.654479
264 1 14.3881 1.1124 15.1021 -0.65876
161 2 14.8357 3.80415 14.0589 0.157944
187 1 17.3195 0.271545 11.703 -0.649435
193 2 16.5631 0.798964 11.044 0.184457
194 2 16.9808 0.163999 12.7751 0.135813
195 2 17.7064 -0.693179 11.2519 0.158108
258 2 20.0516 -3.19596 17.502 0.155945
271 2 15.3948 0.654089 15.3403 0.155217
311 2 15.3925 -2.02697 13.277 -0.0209361
312 1 17.9219 -1.73028 14.9883 -0.64386
313 2 18.9753 -1.97674 14.6499 0.18543
314 2 17.7568 -1.83911 16.1018 0.148123
315 2 17.4991 -0.734945 14.535 0.122555
244 2 -9.1259 11.7617 10.9746 0.182278
280 1 -4.72515 10.881 16.4271 -0.646272
74 1 -4.95729 6.81499 15.5853 -0.641759
162 2 -4.00233 6.46666 16.0758 0.14449
163 2 -5.60717 7.5052 16.2766 0.153825
164 2 -4.78942 7.25743 14.5636 0.133525
166 2 -7.08193 8.58552 13.1269 0.15057
238 4 -6.42062 10.0487 10.1895 0.972281
240 3 -7.93111 9.45119 10.1278 -0.73933
241 2 -5.32586 8.89912 10.8083 -0.0286146
242 3 -6.26618 11.4964 10.9846 -0.754323
246 2 -9.4523 11.8551 9.10501 0.161341
252 1 -8.83359 10.333 17.1651 -0.657773
253 2 -6.89075 7.97883 16.6292 0.157732
256 2 -8.46072 10.6773 16.1561 0.168354
282 2 -5.80123 10.7274 16.1074 0.174567
284 2 -4.05875 10.0089 16.1606 0.155209
351 2 -4.17875 11.5085 13.1478 0.177597
120 2 1.65769 5.07379 16.8222 0.153451
140 2 1.22106 11.6771 9.29669 0.131628
174 2 1.97462 8.97084 9.95388 0.150969
231 4 -0.917261 9.30242 16.1776 0.781538
232 1 0.0456715 7.90694 17.141 -0.65183
233 3 -1.59753 10.1534 17.3505 -0.739668
235 2 0.681354 7.40175 16.358 0.143363
267 2 0.97693 10.9118 12.5094 -0.0385865
288 4 -2.51017 6.32469 9.29055 0.763775
289 4 -2.49286 8.1835 11.9329 0.763956
291 1 -1.62775 9.84262 11.5676 -0.646759
292 3 -2.71484 7.35395 10.5477 -0.722808
293 1 -1.27403 6.99464 12.9027 -0.641196
294 2 -3.94282 8.37112 12.8207 -0.0531316
298 2 -0.944209 9.72556 10.6743 0.163918
299 2 -1.10798 10.235 12.4889 0.138724
300 2 -2.62928 10.4063 11.3219 0.13758
301 2 -0.465682 6.7232 12.1598 0.177316
302 2 -1.90082 6.10407 13.2038 0.145442
303 2 -0.88032 7.5738 13.7805 0.132776
333 1 0.286422 10.4126 15.1672 -0.654885
334 2 0.705884 9.73524 14.3612 0.134473
335 2 1.07879 10.8266 15.8596 0.195862
336 2 -0.411893 11.2128 14.7638 0.14604
338 2 -2.09519 8.62332 15.1369 -0.0499566
349 2 -2.57043 11.103 14.0255 0.134155
356 1 -0.576438 5.98103 9.25874 -0.640554
357 2 -0.378984 5.29126 10.1306 0.158739
358 2 -0.0747451 6.98613 9.37557 0.177862
360 2 -3.2592 4.81392 9.59148 -0.0563364
18 4 6.58228 5.59009 9.40253 1.33825
21 4 6.72488 4.74295 16.0926 1.53754
27 4 4.32444 9.38557 10.677 0.738959
29 4 7.87379 7.11823 14.5961 1.485
30 4 6.9808 8.92889 12.2718 1.47125
54 1 3.71269 5.43014 12.9459 -0.65403
69 3 5.10109 5.4239 10.4693 -0.741837
78 3 5.43979 4.75462 17.1779 -0.777687
80 1 8.14245 5.40346 10.521 -0.664194
94 2 4.2555 11.037 11.0838 -0.0596394
95 1 2.60493 8.67471 10.8522 -0.664805
96 2 4.6465 9.47471 9.00748 -0.000478872
101 3 6.85 6.25269 15.4762 -0.827449
105 3 5.49068 8.6794 11.4633 -0.753093
106 3 7.12124 7.8232 13.3954 -0.830887
107 3 6.74739 10.3802 13.0266 -0.779417
132 2 2.96865 6.04327 12.3563 0.165502
133 2 4.49047 6.06912 13.4652 0.2106
134 2 3.22141 4.68558 13.6347 0.145887
170 2 7.84839 5.70717 11.5712 0.231732
175 2 2.30654 9.21988 11.8362 0.128007
176 2 2.74524 7.55629 10.9665 0.186288
310 4 5.88372 11.2109 14.0639 0.820723
361 1 3.90021 7.25024 16.8265 -0.651214
362 2 3.99275 7.16064 15.7065 0.177548
363 2 4.7694 7.80056 17.2865 0.181422
364 2 2.90328 7.67213 17.1474 0.161623
366 1 5.02862 9.96623 15.3586 -0.65571
367 2 4.35512 9.3022 14.7473 0.168671
368 2 4.46129 10.6175 16.0815 0.166612
369 2 5.87037 9.39632 15.8454 0.190167
245 2 8.13321 11.6922 10.317 0.159152
254 2 11.0248 6.57823 17.2228 0.213627
251 1 11.3098 7.65708 17.3563 -0.650454
104 3 8.35713 9.04333 11.3073 -0.806955
20 4 13.0726 5.14991 15.2352 1.09509
22 4 10.6364 6.48552 13.5848 1.12814
79 1 10.9145 8.45022 13.5013 -0.655543
81 1 11.0326 5.90264 11.8106 -0.671437
82 3 11.689 5.7913 14.6694 -0.756895
102 3 9.07309 6.1222 13.8527 -0.773951
103 3 8.86343 8.24352 15.6263 -0.767184
155 2 10.9069 5.46416 9.0022 0.168187
159 2 13.7435 4.7464 12.8323 0.141301
165 2 10.1475 8.83926 12.7692 0.222435
167 2 10.7745 8.87909 14.527 0.201766
168 2 8.89907 6.10933 10.0553 0.180871
171 2 12.1423 5.70321 11.7432 0.143212
172 2 10.6951 6.74785 11.1321 0.173871
173 2 10.4047 4.96562 11.6953 0.174542
237 4 9.2545 9.60209 10.0451 1.24811
239 1 9.23405 11.4704 10.1121 -0.65497
250 4 9.5305 8.55071 17.0561 1.12174
ITEM: TIMESTEP
100
ITEM: NUMBER OF ATOMS
373
ITEM: BOX BOUNDS xy xz yz pp pp pp
5.5764249512003694e-01 2.6699458002959197e+01 7.0975591607108219e+00
-3.4355245383413071e+00 1.4110227941611107e+01 1.1103413373684385e+00
-3.3409540407573424e-01 1.7884095404075687e+01 -3.3827965967301838e+00
ITEM: ATOMS id type x y z q
222 4 11.377 7.38513 0.205833 0.77574
183 3 18.9824 0.965504 7.78357 -0.7583
189 2 18.4547 3.51761 8.34453 -0.0244928
192 2 18.9231 2.16232 5.29828 0.170811
199 4 17.7943 4.69791 0.951663 0.805304
200 4 16.2797 5.28758 3.81832 0.96657
202 2 19.5045 5.04683 1.33366 -0.0169687
203 1 17.8709 2.81244 1.01868 -0.661674
205 3 16.8465 5.2103 2.17174 -0.716592
210 2 16.8326 2.45535 0.846562 0.160167
211 2 18.2647 2.51394 2.00877 0.152569
212 2 18.5864 2.46356 0.194801 0.144379
322 2 14.112 4.91145 4.82535 0.155347
325 1 17.8314 4.67445 4.80975 -0.643666
326 2 18.1863 5.64018 5.3199 0.154823
327 2 18.6183 4.12113 4.18022 0.15123
328 2 17.2025 3.97489 5.49077 0.136288
337 2 2.03504 -1.25032 6.58576 -0.0513489
359 2 18.2774 6.0636 8.40542 0.146951
3 4 5.07448 1.42849 2.44985 1.20965
4 4 7.15983 -0.763885 6.53883 0.690711
5 4 6.68992 1.96468 5.00491 1.23519
7 4 3.92855 4.21302 2.12093 1.0252
9 4 5.50222 3.42565 7.49178 1.26778
10 4 21.2624 5.34302 6.4892 1.06558
15 4 5.38542 6.10617 4.08928 1.54973
33 3 6.32828 0.762672 1.59559 -0.76221
34 2 3.82775 0.38255 2.51106 -0.0368468
35 2 6.08876 -0.662545 7.81477 -0.0650829
36 3 5.52216 1.58725 3.92259 -0.819457
37 3 7.28036 0.611874 5.68031 -0.775555
41 3 4.5053 2.72826 1.72579 -0.804618
42 1 21.2529 5.29891 0.592954 -0.6816
43 2 20.3556 4.11018 2.89856 -0.0487319
45 2 5.12925 2.18915 8.49603 -0.0496841
46 3 6.10064 2.86199 6.16106 -0.80184
47 2 19.7153 4.86701 5.8097 -0.0246737
48 3 4.13341 4.13818 7.1374 -0.82221
62 3 4.92613 5.05475 2.97763 -0.829478
63 3 22.1466 6.05437 5.33972 -0.769404
64 2 6.38503 5.27539 0.181953 -0.0146309
68 3 6.55827 4.36398 8.38627 -0.791862
71 3 6.81339 5.62092 4.76718 -0.80817
117 2 20.7049 4.62069 -0.0675959 0.147682
118 2 4.43344 5.42455 0.237142 0.171678
119 2 20.7618 6.27194 0.716231 0.188456
91 3 6.53975 7.03538 8.68904 -0.829545
178 4 2.14343 0.395359 6.80134 0.70525
181 1 19.7033 1.3157 5.2321 -0.646667
190 2 19.3652 0.361319 4.64482 0.122041
191 2 2.89271 1.65779 5.05618 0.144203
320 2 3.69635 0.571115 7.4487 -0.0615275
17 4 10.0101 3.7792 7.04316 0.935073
19 4 8.12962 5.99038 5.54993 1.34466
61 2 7.90798 2.81213 4.29408 0.00397692
65 1 9.43707 2.68526 8.54887 -0.635015
66 1 10.9557 2.75811 5.67365 -0.659045
67 1 11.1102 5.27883 7.88268 -0.638155
72 3 8.85751 4.57508 6.34496 -0.738816
138 2 10.773 -1.05714 8.02782 0.144655
139 2 12.6112 -1.27376 8.15739 0.165922
147 2 9.9987 1.684 8.63125 0.146639
148 2 8.32664 2.54951 8.51911 0.200512
150 2 10.9178 1.70932 5.99653 0.160718
151 2 11.9898 3.14918 5.70485 0.149694
152 2 10.4842 2.89802 4.64798 0.15899
153 2 11.6105 5.68198 6.95069 0.14725
154 2 11.8139 4.69317 8.53805 0.138085
157 2 9.36512 5.46534 3.52837 0.169667
223 1 12.2795 6.00637 0.581313 -0.604442
225 2 11.5595 5.36487 1.30088 0.140397
258 2 18.5137 0.0249512 0.0809132 0.164494
259 4 11.8718 1.66974 0.506688 0.744911
262 2 10.4972 2.08839 1.4666 -0.0186644
370 3 8.67916 6.19104 -0.265417 -0.673788
329 1 15.8319 13.5523 2.40466 -0.654956
330 2 8.51577 0.073917 3.27051 0.185442
331 2 9.67049 -0.331706 1.84368 0.162112
342 2 12.4958 3.44536 2.05716 0.147608
344 1 12.0877 -0.251464 0.810725 -0.656736
365 2 8.51416 -1.02851 7.5098 -0.0484181
182 3 16.5584 1.72009 8.39823 -0.801869
321 1 14.6557 4.30272 4.08512 -0.664293
177 4 15.1071 1.33433 7.90852 1.00271
184 2 14.295 2.83171 7.69528 0.0110082
304 4 14.9476 -0.367508 5.06688 0.986025
305 1 14.4582 0.88693 3.8057 -0.646906
306 3 14.9303 0.633646 6.45136 -0.764412
307 2 13.5352 0.30949 3.37261 0.155469
308 2 15.3936 0.895735 3.13295 0.124172
309 2 14.18 1.95206 4.22853 0.170577
323 2 14.7755 3.20167 4.43294 0.155653
324 2 14.2214 4.37894 3.02614 0.18577
340 1 13.16 2.82551 1.3454 -0.643794
341 2 13.8073 2.02156 1.82772 0.164166
343 2 13.7034 3.43147 0.512684 0.172894
109 2 12.797 11.9899 0.449259 0.162209
110 2 12.9078 12.2525 2.26119 0.152057
219 2 12.9239 8.96927 3.58787 0.141629
221 2 13.1948 7.34352 4.39955 0.170126
243 1 12.3827 10.2306 8.65007 -0.644655
247 2 12.3451 9.19298 8.17166 0.150112
228 4 7.99014 10.2793 4.65579 0.95961
249 2 11.692 10.948 8.07077 0.143411
155 2 10.3847 5.9796 8.44549 0.182495
353 2 12.7691 11.8768 5.61496 0.127822
226 2 13.1301 7.30131 1.17177 0.057954
1 4 14.4391 13.703 1.12226 1.04199
14 4 18.4711 11.0418 7.00182 0.936893
31 1 13.4422 12.0399 1.33125 -0.670342
55 1 18.9758 7.56144 3.59468 -0.659698
57 2 18.0339 9.3553 3.07066 -0.00083638
58 1 18.7085 12.4183 8.30804 -0.670872
59 1 17.6117 11.9534 5.63294 -0.654605
60 1 17.6166 9.4805 7.67725 -0.64904
108 2 14.2493 11.1921 1.4285 0.134603
135 2 18.4072 6.88392 2.86685 0.196959
136 2 18.4939 7.69318 4.57702 0.190356
141 2 16.7884 12.532 6.14639 0.136466
142 2 17.2377 11.2272 4.85373 0.148751
143 2 18.4637 12.6394 5.23388 0.17975
144 2 16.5602 9.72347 7.37119 0.137862
158 2 10.2947 6.74249 4.58951 0.141195
146 2 18.0717 8.60358 7.11592 0.170442
201 4 15.3853 8.48653 4.01786 0.78592
206 1 15.7069 8.81262 2.1348 -0.651801
207 3 16.1075 7.062 4.32893 -0.702278
208 1 13.5061 8.40184 4.32874 -0.656188
209 2 16.3068 9.71746 4.86441 -0.0284588
216 2 15.9987 7.88473 1.636 0.196098
217 2 16.4257 9.66403 1.92232 0.138469
218 2 14.5888 9.09849 1.98808 0.129329
220 2 13.6031 8.92474 5.34659 0.138835
156 2 8.77153 7.23466 3.53458 0.225204
224 2 9.94353 7.49967 1.12327 0.0440582
290 1 15.4658 6.88262 7.66126 -0.634951
295 2 14.4959 6.32113 7.47959 0.137406
296 2 16.2857 6.626 6.89812 0.171498
297 2 15.3232 8.00877 7.74732 0.173495
332 2 15.8172 12.4279 2.70996 0.138525
345 2 18.6203 13.4312 -0.0253517 0.162629
346 2 18.8431 13.5898 1.85073 0.146239
352 1 13.8603 11.9973 5.38165 -0.654575
354 2 14.589 11.216 5.86563 0.115555
355 2 14.134 12.3157 4.29323 0.167714
230 2 8.97007 9.40301 5.74205 -0.00985113
13 4 19.6789 9.13851 2.72739 1.06542
23 4 6.53417 8.4898 2.55754 1.49589
24 4 20.9014 10.8322 5.09055 1.4748
25 4 23.599 11.2024 1.45227 0.979452
26 4 7.16984 8.14012 7.7545 1.55672
28 4 23.5776 10.4511 6.43954 1.21551
49 1 20.796 6.57452 7.81867 -0.659784
56 3 19.9961 9.0323 1.19062 -0.804098
83 3 5.4927 7.60081 3.46554 -0.808824
86 3 20.5191 10.1727 3.59103 -0.790569
87 3 21.1425 12.4278 4.96446 -0.817559
88 3 19.8034 10.5602 6.29735 -0.774052
89 3 23.6102 9.61273 1.58316 -0.751404
90 2 23.407 11.835 3.01705 -0.0156506
97 3 24.8328 11.1111 5.41614 -0.822355
98 3 22.2341 10.1657 5.6468 -0.785901
99 3 23.9512 9.12749 7.20468 -0.835212
100 2 23.2571 11.6617 7.62615 -0.0488801
123 2 21.7254 7.27686 7.83779 0.219718
125 2 19.8556 7.07127 7.52514 0.152465
137 2 20.336 7.2599 3.69912 0.144752
347 2 13.2637 -0.192219 0.638127 0.132812
371 3 6.82899 11.8315 0.65212 -0.818146
372 2 16.5743 -0.694312 4.58736 -0.0163677
373 2 22.1665 11.6417 0.789775 -0.0126801
229 2 9.12761 11.2905 3.96536 -0.0616659
255 2 9.29142 10.4457 0.396106 0.159832
16 4 7.41793 6.65108 0.0923294 1.15865
84 3 7.47782 7.49296 1.58751 -0.778345
70 1 9.32486 6.41085 4.06414 -0.678056
85 3 7.52187 9.33951 3.51686 -0.84621
92 3 7.97632 7.30008 6.46443 -0.818737
93 3 8.08802 9.08168 8.67073 -0.84029
248 2 13.4492 10.641 8.69515 0.137755
319 2 12.7081 1.63306 8.74178 0.152982
180 4 18.3008 1.33753 11.8188 0.829805
185 2 19.8307 0.875182 12.3749 0.0019703
186 3 18.4348 1.81778 10.3592 -0.788346
188 1 17.7987 2.77549 12.9678 -0.669586
196 2 18.357 3.64768 12.5929 0.159989
197 2 17.9621 2.57508 14.0475 0.153211
198 2 16.6977 2.86861 12.7373 0.156798
204 1 18.4187 1.9654 17.5024 -0.643601
213 2 19.2689 2.02054 16.7681 0.158412
214 2 17.738 2.90025 17.4757 0.160063
215 2 17.7324 0.955281 17.2869 0.135863
2 4 4.33181 -1.0411 11.1373 0.956629
6 4 4.63878 0.208524 14.1229 1.2413
11 4 6.37824 2.8705 13.8545 1.29229
12 4 22.4788 4.38376 11.6792 1.05299
32 1 6.0545 -0.397744 10.7979 -0.668508
38 3 4.04898 -0.52417 12.6051 -0.743086
39 3 5.24761 -0.902626 15.2228 -0.736783
40 1 21.027 1.07431 14.8237 -0.670288
44 1 20.1136 4.40214 16.9424 -0.66477
50 3 5.7564 1.34881 13.8152 -0.779694
52 1 21.2646 3.07689 10.9157 -0.662612
53 3 5.80099 3.6573 12.4433 -0.782581
76 3 5.99461 3.58226 15.2499 -0.835257
77 3 7.68861 4.49279 16.9995 -0.727689
111 2 6.14528 0.688858 11.1554 0.174969
112 2 6.10077 -0.475837 9.6942 0.123643
113 2 6.78563 -1.05802 11.3074 0.169893
114 2 20.407 1.46163 13.9601 0.150317
115 2 21.3959 1.8438 15.4995 0.172378
116 2 20.558 0.143422 15.3287 0.159975
122 2 20.5399 3.66036 16.243 0.166
129 2 3.93223 2.11507 10.7332 0.154496
130 2 20.7844 3.54455 9.99844 0.171851
131 2 20.5672 3.04081 11.8164 0.14413
279 4 6.53489 -1.79498 15.7915 0.898626
281 1 7.94975 -0.79855 16.8817 -0.651949
283 2 5.63404 -3.12857 17.7099 0.17485
285 2 8.31383 0.0646038 16.2515 0.174548
287 2 7.32073 -0.517176 17.7574 0.199298
339 2 3.208 -0.37689 10.0916 -0.0361764
348 1 7.68388 -2.251 14.2895 -0.652961
350 2 8.69411 -1.79457 14.5533 0.152994
121 2 19.3433 3.96649 17.6932 0.166282
51 1 8.29995 2.77758 13.7858 -0.66367
73 1 13.3656 4.02622 14.1555 -0.644462
75 3 12.4152 4.46631 16.9151 -0.742645
126 2 8.49446 2.13266 12.9172 0.16946
127 2 8.7545 2.41316 14.7435 0.198447
128 2 8.54988 3.89484 13.5792 0.20884
149 2 9.73826 3.45361 9.43033 0.142459
160 2 13.0268 2.8995 14.2972 0.166382
169 2 8.10526 4.3154 10.5858 0.177988
260 4 12.6343 -0.430775 15.6363 0.996812
261 4 12.0236 -1.77817 12.656 0.674378
263 3 12.8175 -1.21249 17.0333 -0.725594
265 1 10.9065 0.354133 15.7827 -0.646672
266 3 12.6128 -1.49651 14.0844 -0.716248
268 2 12.9823 -1.13453 11.3031 -0.0122336
269 1 11.1741 -0.355258 11.7641 -0.618471
270 2 14.201 1.15817 14.3041 0.156417
272 2 13.4105 1.96084 15.7777 0.173767
273 2 10.2169 0.24343 14.9037 0.16669
274 2 11.2828 1.4392 15.8809 0.183488
275 2 10.4786 -0.025613 16.713 0.19831
276 2 11.1072 -0.554046 10.6778 0.157087
277 2 11.4544 0.711158 12.0645 0.174282
278 2 10.0713 -0.911223 12.5831 0.0903127
286 2 8.73505 -1.57999 17.0782 0.212633
316 1 13.7298 1.6042 9.20728 -0.653665
317 2 13.9708 2.43312 9.95992 0.150198
318 2 14.042 0.384246 9.61265 0.100459
257 2 10.5685 10.5192 17.7304 0.158454
264 1 13.9118 1.05597 15.4004 -0.667641
161 2 14.459 4.2149 14.4612 0.147486
187 1 16.9549 -0.132713 11.946 -0.651432
193 2 16.0707 0.389503 11.4402 0.155058
194 2 16.8311 -0.224395 13.066 0.135546
195 2 17.3052 -1.06112 11.4327 0.171769
8 4 21.4875 5.35382 17.8629 1.13795
271 2 14.7799 0.729135 16.0503 0.152861
311 2 14.9308 -1.85896 13.9327 0.000821136
312 1 17.544 -2.07985 15.4798 -0.637651
313 2 18.5817 -2.48823 15.213 0.182078
314 2 17.2948 -2.07344 16.5893 0.14318
315 2 17.2693 -1.03883 14.9158 0.117655
244 2 8.73511 11.9926 11.0135 0.167775
280 1 12.8742 10.6832 16.6412 -0.641551
74 1 13.3669 6.75097 16.0209 -0.647185
162 2 14.094 6.38609 16.768 0.159019
163 2 12.5367 7.4918 16.431 0.151475
164 2 13.8582 7.09579 15.1061 0.130157
166 2 11.409 8.50246 13.4727 0.152199
238 4 11.6901 9.8902 10.3505 1.0235
240 3 10.2786 9.25552 10.2018 -0.775769
241 2 12.6948 8.88629 11.2484 -0.0443481
242 3 11.5939 11.3696 10.8881 -0.741397
246 2 8.96918 11.8497 9.16292 0.152159
252 1 9.46876 10.3927 17.4657 -0.660289
253 2 11.1802 7.68042 16.9484 0.151588
256 2 9.18444 10.8419 16.4453 0.165965
282 2 11.9273 10.6077 16.0199 0.170534
284 2 13.6193 9.83193 16.4827 0.151653
351 2 7.20296 -1.75625 13.3625 0.174885
120 2 19.6455 5.3211 16.3654 0.14662
140 2 18.5712 12.0062 9.33188 0.130613
174 2 19.697 8.66685 10.024 0.142222
231 4 16.7677 9.51378 16.4636 0.783112
232 1 17.599 7.83378 17.1705 -0.634157
233 3 16.2036 10.3652 17.6777 -0.737625
235 2 17.9576 7.39518 16.1614 0.14156
267 2 18.9256 10.7646 12.274 -0.0475686
288 4 15.8824 6.10418 9.36758 0.751021
289 4 15.2772 8.10347 11.9899 0.760017
291 1 15.995 9.88937 11.6885 -0.652301
292 3 15.3895 7.15857 10.6596 -0.703325
293 1 16.3544 7.12995 13.2333 -0.630898
294 2 13.7179 8.04969 12.7866 -0.0484223
298 2 16.77 9.79616 10.8248 0.157676
299 2 16.4354 10.2634 12.6625 0.135049
300 2 14.978 10.3227 11.3929 0.136438
301 2 16.9587 6.34405 12.7367 0.180319
302 2 15.7393 6.76351 14.1793 0.125433
303 2 17.0086 8.12481 13.456 0.123072
333 1 18.0514 10.4316 15.4296 -0.650188
334 2 18.6809 9.61945 14.8811 0.136582
335 2 11.5615 -3.0923 16.1118 0.217713
336 2 17.3065 11.0031 14.7382 0.138366
338 2 15.4525 8.94166 15.524 -0.0442792
349 2 14.7575 10.8131 14.2629 0.140244
356 1 17.765 5.89795 9.42856 -0.643597
357 2 17.6924 4.75316 9.69707 0.126053
358 2 18.2377 6.47797 10.2293 0.186215
360 2 15.0241 4.56218 9.36603 -0.0422729
18 4 6.35254 5.63054 9.4051 1.365
21 4 6.24333 4.74278 16.3235 1.5108
27 4 21.9333 9.31312 10.5923 0.754756
29 4 7.25118 7.1729 14.8758 1.46351
30 4 24.4178 9.00876 12.4704 1.49635
54 1 21.5835 5.43075 13.0788 -0.65868
69 3 4.9623 5.45135 10.3291 -0.754832
78 3 22.9298 4.75654 17.462 -0.770518
80 1 7.67007 5.3118 10.7611 -0.6619
94 2 21.7089 10.9902 10.7451 -0.0611219
95 1 20.3171 8.45661 10.9453 -0.657311
96 2 22.2727 8.98903 8.95847 0.0172615
101 3 24.0812 6.23107 15.618 -0.809958
105 3 22.9904 8.77039 11.5781 -0.75459
106 3 24.5452 7.91711 13.5582 -0.833834
107 3 24.0742 10.4935 13.1543 -0.767649
132 2 20.4933 5.2217 12.9223 0.143803
133 2 21.8886 6.54594 12.9292 0.211754
134 2 21.9919 5.01785 14.041 0.203481
170 2 7.18908 5.41351 11.7844 0.237298
175 2 19.8005 8.78613 11.9076 0.154765
176 2 20.7505 7.35519 10.9664 0.186258
310 4 23.3257 11.2205 14.3778 0.824105
361 1 21.4221 7.19842 17.0806 -0.645905
362 2 20.7493 7.08355 16.1999 0.157553
363 2 22.4315 7.58302 16.7806 0.215834
227 2 13.7323 2.14392 17.8083 0.182588
366 1 22.459 9.79531 15.3113 -0.655944
367 2 22.6934 8.77855 14.8826 0.219171
368 2 21.3704 9.93851 15.4709 0.163521
369 2 23.0575 10.0085 16.2878 0.153342
245 2 25.1959 11.8545 9.87537 0.152595
254 2 9.80127 6.37077 16.9476 0.23425
251 1 10.2532 7.26367 17.4923 -0.653451
104 3 7.69856 9.12331 11.3802 -0.791975
20 4 12.4166 5.1735 15.422 1.11712
22 4 9.9962 6.46671 13.6952 1.1076
79 1 10.3288 8.39789 13.5919 -0.671844
81 1 10.4231 5.64934 12.0061 -0.660402
82 3 11.2078 5.74057 14.6433 -0.777432
102 3 8.4683 6.17092 14.114 -0.782404
103 3 7.84545 8.26129 16.0378 -0.748463
236 2 16.7524 7.31399 17.6934 0.152368
159 2 13.0988 4.43887 13.1643 0.157842
165 2 9.76175 8.73317 12.6694 0.212635
167 2 9.95295 8.94981 14.5471 0.176296
168 2 8.4654 6.11918 10.6437 0.178286
171 2 11.4816 5.2953 12.0768 0.161809
172 2 10.3259 6.4977 11.2381 0.157034
173 2 9.69528 4.81004 11.7693 0.171064
237 4 8.60918 9.67352 10.0286 1.30116
239 1 8.34665 11.5376 10.0112 -0.672177
250 4 8.82999 8.58588 17.5283 1.06501
179 4 18.0865 1.91021 8.775 1.17707
124 2 20.666 5.93548 8.82937 0.176855
364 2 20.963 7.79162 17.8644 0.177311
145 2 17.8017 9.48948 8.79388 0.149523
234 2 18.4491 8.24696 17.8643 0.154892
ITEM: TIMESTEP
200
ITEM: NUMBER OF ATOMS
373
ITEM: BOX BOUNDS xy xz yz pp pp pp