ITEM: TIMESTEP
0
ITEM: NUMBER OF ATOMS
386
ITEM: BOX BOUNDS xy xz yz pp pp pp
-1.0522200000000000e+01 1.6607800000000001e+01 -9.4504999999999999e+00
0.0000000000000000e+00 1.3453600000000000e+01 -1.0717000000000001e+00
0.0000000000000000e+00 1.7350200000000001e+01 3.3999999999999998e-03
ITEM: ATOMS id type x y z
8 4 0.645735 1.21954 0.702981
12 4 -0.14838 4.23955 1.73943
236 3 -4.47045 6.71685 5.15069
15 4 -1.21796 4.48514 7.16969
25 4 4.36644 1.85554 3.64183
29 4 5.81515 1.49813 6.26397
245 3 7.10494 1.64396 0.659536
34 4 0.928481 6.39512 3.67751
36 4 3.96804 3.71875 7.83235
38 4 2.6742 5.94187 6.38512
70 1 -0.221917 3.37632 6.02661
85 1 3.36977 4.17775 1.37263
104 2 -0.503595 2.5119 4.26508
340 2 1.69561 0.775982 6.1797
257 3 -0.367737 5.05406 8.40949
111 2 3.09871 2.62499 4.45332
107 2 -1.79484 2.89484 7.22996
132 2 -0.283666 4.05826 5.09764
133 2 -0.692781 2.30883 5.87532
134 2 0.943633 3.33492 6.51201
339 2 1.22214 1.85344 7.57743
176 2 3.34487 3.15002 0.89775
177 2 2.97655 5.01567 0.706895
178 2 2.84147 4.21773 2.38845
171 2 -1.66891 6.17573 3.48668
233 3 -1.68895 3.82296 2.4775
234 3 0.43579 2.79409 1.15587
235 3 -0.202381 5.31842 0.483228
248 3 6.6149 0.348488 7.04336
237 3 -2.13621 5.56703 6.49589
374 2 0.00927247 0.598746 6.96015
244 3 3.74412 0.825317 2.60262
247 3 5.14724 1.12457 4.88792
252 3 5.29521 2.94638 2.87357
254 3 0.766537 4.87106 2.90364
256 3 4.89831 2.61599 7.03758
258 3 1.73288 6.18766 5.07337
259 3 2.79748 4.46617 7.01281
338 1 1.07873 0.87568 7.0915
24 4 7.64161 0.638452 1.82997
7 4 -2.04936 2.61341 3.54163
230 3 1.39044 0.0157902 1.72225
10 4 1.27317 0.886963 13.2724
11 4 -0.475555 2.87549 11.6519
14 4 -2.33212 6.30291 17.1096
17 4 -1.2394 4.83286 13.9022
28 4 3.7977 1.67943 10.0479
265 3 1.94818 6.6025 9.84147
31 4 3.38179 2.81775 14.6951
37 4 0.439503 6.57766 9.17233
357 2 1.23395 2.30563 16.2967
71 1 -1.1013 3.29089 15.0326
72 1 -3.73859 5.04431 16.1834
355 2 -0.0672015 0.854621 15.8135
78 1 0.878076 3.24886 10.2963
79 1 2.12041 3.93496 15.4826
80 1 5.66985 0.761804 13.0093
262 3 -0.227669 5.88003 14.5014
74 1 -4.48079 6.51483 10.4457
108 2 -2.9679 5.01257 14.357
112 2 3.19863 1.96124 11.5811
135 2 -0.31803 2.57585 14.6692
136 2 -2.1723 2.89383 14.9207
137 2 -0.89752 3.66912 16.0888
138 2 -2.93944 4.22918 16.0649
370 2 -5.03605 6.51213 16.6672
162 2 5.9563 0.207775 11.9738
144 2 -3.43898 6.1622 10.8185
155 2 0.38867 3.94257 9.57462
156 2 1.16456 2.26189 9.91982
157 2 1.687 3.77132 10.8986
158 2 2.29834 3.97868 16.7045
159 2 0.934002 3.75133 15.2903
160 2 2.43749 4.98411 15.0061
161 2 4.67234 0.341358 13.4679
140 2 -4.24708 5.01624 17.2403
356 2 1.4789 0.504087 16.9783
182 2 -0.835245 5.96927 11.3714
163 2 5.67845 1.95208 12.9935
231 3 -1.78287 2.41219 10.8176
232 3 0.243936 1.78157 12.5352
238 3 -0.962246 4.40864 12.3489
246 3 2.84061 0.617201 9.39568
249 3 2.50351 1.55578 13.9669
250 3 4.48595 2.34504 15.9602
251 3 5.61294 1.61736 10.1947
255 3 3.41527 3.01917 9.11922
354 1 0.699771 1.26498 16.5868
260 3 4.06731 3.77736 13.4405
30 4 7.29938 0.117114 13.8087
266 3 3.66603 5.22098 11.3253
139 2 -4.42342 5.05729 15.2914
369 2 -3.26324 3.90422 9.22377
1 4 -6.7949 13.0503 2.59756
2 1 -5.93225 11.625 1.56809
3 2 -6.91478 11.2005 1.15382
4 2 -5.52806 10.9117 2.39135
5 2 -5.12044 11.8176 0.740506
6 3 -7.14623 12.6474 4.13083
20 4 -8.29793 11.4572 4.64895
19 4 -2.88488 8.42702 1.71003
27 4 -1.61592 12.613 7.59422
73 1 -3.90292 9.38198 0.494124
75 1 -6.03154 8.75717 8.3494
83 1 -0.84798 6.89515 3.91408
84 1 -2.3361 8.45814 6.41467
86 1 0.494813 7.92157 7.81063
88 1 -0.662464 10.4017 3.96629
109 2 -1.81599 9.41436 2.72777
382 2 -3.50395 12.3717 0.403855
114 2 0.619834 10.1549 2.41275
113 2 2.30232 7.11883 7.55291
142 2 -3.6557 10.4533 0.963348
143 2 -5.00709 9.17193 0.479245
343 2 -7.30279 10.2994 6.84246
349 2 -0.496288 12.3654 0.564992
172 2 -0.91482 7.94919 3.48889
173 2 -2.31273 8.6057 5.2209
174 2 -1.30168 8.46438 6.96188
175 2 -3.03766 9.18196 6.90222
179 2 0.113899 7.18568 7.00678
181 2 -0.441143 8.50913 8.58018
185 2 -0.721353 11.0497 2.91338
186 2 -1.71846 10.3383 4.44937
187 2 -0.21117 9.33223 3.74684
381 2 -1.53991 10.8107 0.497062
239 3 -3.88616 7.73212 2.70896
240 3 -1.97029 7.32361 0.798526
272 3 -0.6659 12.2165 6.17575
267 3 1.66281 7.93944 2.87522
270 3 -2.18119 11.314 8.39622
180 2 1.27507 8.67309 7.36465
318 4 -7.23895 13.1552 8.19852
319 1 -5.76825 12.311 7.42445
321 2 -5.94418 12.555 6.32487
322 2 -5.72024 11.1447 7.66171
323 2 -4.81198 12.7794 7.73463
341 1 -7.13189 10.3551 5.75743
342 2 -6.19068 11.0188 5.45014
148 2 -6.06438 9.86167 7.99418
344 1 -2.95385 12.6443 2.30099
345 2 -2.13764 11.8161 1.94888
346 2 -4.05614 12.3315 2.0558
347 2 -2.96314 12.8674 3.46166
13 4 -4.98843 6.82244 3.65756
241 3 -4.08328 6.92492 7.93936
16 4 -3.25128 6.81534 6.40554
170 2 -0.821445 6.98869 5.08471
376 2 -6.23452 8.67398 3.16385
21 4 -4.35238 7.95689 9.10168
22 4 -4.5263 8.89934 13.8485
23 4 -5.1651 10.6211 11.163
40 4 -0.196739 7.31625 15.2388
43 4 -2.52388 10.4271 9.83102
46 4 -3.24156 11.2744 15.6937
76 1 -3.24447 7.63659 13.2975
77 1 -5.99315 12.0518 12.0537
89 1 -1.94464 10.6378 16.9157
90 1 -4.84181 12.2721 16.6282
110 2 -6.02917 10.1084 9.7768
146 2 -5.05182 7.29506 11.1857
141 2 -4.51505 9.13712 16.8401
149 2 -3.45768 7.30826 12.2224
150 2 -3.43495 6.78804 14.0562
151 2 -2.26117 8.13583 13.4362
152 2 -5.16799 12.8647 12.5428
153 2 -6.72949 11.6824 12.8363
154 2 -6.50304 12.521 11.1054
191 2 -4.86317 13.1851 15.9934
183 2 -1.7163 7.39042 10.2656
188 2 -0.871759 11.2064 16.9556
189 2 -1.94491 9.53826 16.5179
190 2 -5.726 11.5743 16.3505
106 2 -7.64583 13.1295 12.1298
242 3 -5.62112 8.26067 14.7003
243 3 -5.35061 9.39515 12.2451
263 3 1.10227 7.465 16.2065
264 3 -1.76138 7.36487 16.0419
269 3 -3.09866 8.82959 9.30694
271 3 -3.67442 11.0849 10.8062
273 3 -0.127449 8.51663 13.9727
274 3 -3.82337 9.92989 14.8311
275 3 -2.60504 12.401 14.8458
276 3 -1.16507 10.0241 10.6553
87 1 -0.751257 6.99991 10.7101
364 2 -1.05483 11.641 12.6278
184 2 -0.0647292 7.71082 11.1298
371 2 -8.91151 13.0429 14.1746
332 2 -9.31173 12.3831 11.0082
320 2 -8.4887 11.9856 8.75783
196 2 7.27087 5.20384 4.83239
359 2 4.25475 6.10413 0.232279
48 4 9.57693 2.41358 3.87215
368 2 8.29697 6.39999 1.46831
51 4 12.0968 2.28841 5.52489
55 4 10.5494 4.43457 1.75318
352 2 8.89251 1.0509 8.59341
58 4 10.2134 4.15786 7.41722
91 1 7.28848 2.7817 5.69934
92 1 7.04051 6.298 5.3435
94 1 9.84547 5.92345 6.8847
118 2 8.95728 3.55025 4.98649
197 2 6.51139 6.35427 6.29223
123 2 9.46254 5.30916 0.711441
124 2 8.71834 3.59742 6.81296
125 2 5.0029 4.95598 8.33571
366 1 7.7469 6.33121 0.412877
167 2 6.40908 3.78635 8.02093
50 4 13.1918 0.305389 7.69473
192 2 7.11003 2.76666 4.56724
193 2 8.10284 2.0302 6.10842
194 2 6.94725 3.67544 6.27472
367 2 6.64739 6.60084 0.389916
126 2 6.61961 5.4642 8.05207
201 2 8.83537 6.08128 6.33401
202 2 10.7775 6.27922 6.26074
203 2 9.85416 6.31216 7.9728
379 2 9.69533 0.637253 0.301614
253 3 5.99898 4.1182 0.498144
278 3 8.47423 1.35335 3.57646
280 3 13.431 2.84301 4.65237
281 3 10.9143 1.76013 4.47873
282 3 12.5251 1.04906 6.50209
288 3 9.77617 3.36689 2.6159
289 3 11.6236 3.70723 0.873948
290 3 11.1142 5.5358 2.69564
291 3 5.51753 5.66441 2.88652
293 3 11.4703 3.50467 6.51518
324 4 13.3719 0.514102 1.81207
325 3 14.3447 1.24907 2.73456
326 3 12.8012 1.34475 0.512219
122 2 4.21238 6.61901 6.0514
168 2 7.94605 2.85435 8.42925
33 4 5.25553 4.25524 1.87043
372 2 9.22226 0.0374726 3.99657
105 2 15.745 0.780188 0.0330527
9 4 13.3823 2.40723 10.0736
26 4 5.57747 2.84202 16.9239
32 4 6.4855 2.97514 10.4889
39 4 4.69879 4.63758 12.3365
279 3 13.2466 1.2368 8.94216
52 4 12.8593 0.931603 14.4064
53 4 8.37322 2.66715 15.4417
54 4 11.3507 2.67737 12.3871
60 4 9.6354 4.82387 13.5735
301 3 8.69773 5.5258 12.374
81 1 8.07408 2.31109 11.3281
82 1 7.24397 3.69849 8.72562
95 1 10.5727 3.96449 9.28627
96 1 4.74059 6.1078 15.1524
119 2 12.0694 3.22733 16.2566
120 2 13.4769 1.52703 15.8332
121 2 9.83395 1.90595 12.1633
127 2 5.33418 5.99159 13.2808
41 4 3.39897 6.58675 10.4653
145 2 11.4738 5.61021 10.0159
164 2 8.91217 2.63359 10.6935
165 2 8.18995 1.15732 11.6484
166 2 7.9712 2.97251 12.2824
169 2 7.81287 4.64214 8.91717
204 2 9.95051 4.46412 10.0331
205 2 11.6565 4.17196 9.47002
206 2 10.3362 2.82467 9.1932
207 2 4.36465 6.0133 16.2438
208 2 5.6249 5.43649 14.9356
209 2 3.82427 6.06714 14.4765
261 3 5.87521 4.11068 11.5165
317 3 14.2226 0.302902 13.4729
283 3 7.89145 1.38679 14.4725
284 3 9.56684 2.01512 16.3579
285 3 7.00494 3.32175 16.1896
286 3 12.1903 2.36224 11.0651
287 3 12.0688 2.08507 13.7279
49 4 10.8692 2.5146 17.2769
295 3 9.03548 3.63664 14.3602
296 3 11.0447 4.22506 12.5591
297 3 10.1299 5.88946 14.6706
383 2 6.81033 5.34486 17.2323
294 3 4.62152 6.69013 9.40233
385 2 15.5383 0.362754 10.6434
361 2 5.24729 7.47871 1.12046
42 4 2.08516 9.3234 2.33626
44 4 0.0902322 11.9873 4.82205
63 4 7.40204 9.37049 2.19527
64 4 2.96669 11.725 3.7866
65 4 6.82888 9.49111 7.60651
131 2 9.51897 8.02494 4.73082
67 4 5.5683 11.9655 6.17463
69 1 9.91759 7.68881 3.68563
93 1 4.59531 7.93929 4.6161
99 1 5.8932 10.2412 1.49759
66 4 2.50569 10.8206 8.50829
101 1 2.60784 10.0644 6.68877
129 2 7.94237 9.27582 6.269
360 2 3.52146 6.90121 1.85312
198 2 4.81216 8.20262 5.71892
199 2 3.57003 7.45171 4.48133
200 2 4.63217 8.89926 4.01016
216 2 5.09979 9.70626 2.05628
217 2 5.80192 10.2162 0.392365
218 2 6.1581 11.2874 1.8982
224 2 1.58024 9.97338 6.30181
222 2 3.05804 9.07953 6.83004
223 2 3.29233 10.8668 6.04441
268 3 2.61933 9.21028 0.753065
302 3 6.95329 7.94793 3.05614
303 3 8.52008 9.09813 0.920235
304 3 8.0125 10.4036 3.39867
305 3 3.14347 10.2206 3.1286
306 3 2.99926 12.8492 2.5719
307 3 1.58848 11.7684 4.67765
309 3 2.79831 12.3613 8.33188
311 3 7.0812 12.0559 5.4556
312 3 4.2786 11.8853 5.06436
313 3 5.70955 10.5307 7.20055
308 3 6.28845 8.05665 8.14222
348 1 -0.249966 13.3961 1.11719
373 2 5.14932 13.0034 1.13563
350 2 0.420781 13.2855 2.0677
195 2 7.93863 7.01545 5.28104
56 4 6.09473 6.89079 3.816
375 2 9.23375 7.09742 3.03126
228 2 4.08669 9.21536 8.59572
358 1 4.21806 6.99349 0.945232
377 2 9.58998 9.28809 5.3139
380 2 0.554851 12.9938 8.47562
225 2 1.30843 11.7646 0.461554
314 3 5.35252 13.245 7.14727
147 2 10.4361 8.10186 7.46175
18 4 10.3739 7.13755 15.599
35 4 2.32293 8.22698 17.0916
328 1 6.21267 12.7012 10.8492
128 2 9.63331 7.60196 10.6973
57 4 7.5127 7.88047 16.9964
221 2 7.08962 11.1133 9.74665
61 4 4.91318 8.00496 15.2106
68 4 1.53567 11.9747 15.0644
97 1 4.60144 8.34572 13.1336
98 1 8.46353 8.5178 12.0496
102 1 0.833811 12.1395 16.9345
103 1 3.98529 10.0541 9.53661
115 2 3.61286 7.92258 11.462
116 2 2.65508 8.34006 13.5365
117 2 0.547547 11.8818 11.331
130 2 2.07252 11.2269 16.913
210 2 4.0987 7.3314 12.9498
211 2 5.74664 8.47218 12.8273
212 2 4.06319 9.22246 12.7575
47 4 0.421577 10.3091 10.6709
214 2 7.92139 8.21241 13.1215
215 2 7.86481 9.32817 11.3821
362 1 -0.904119 12.7239 12.441
220 2 7.66344 9.21158 10.0244
386 2 6.55431 11.9588 14.9112
226 2 -0.240609 12.4676 15.5245
227 2 4.95896 10.6601 9.72741
213 2 9.59766 8.85372 12.1834
229 2 3.5409 9.6827 10.465
292 3 8.96344 7.54001 16.4701
298 3 6.40829 8.26902 15.8519
299 3 3.7015 8.59587 16.0868
353 2 -0.676139 13.149 9.93218
310 3 1.18644 10.3354 9.23873
315 3 1.38946 10.7201 14.1595
316 3 2.46395 13.2012 14.815
327 4 5.29255 12.4509 12.6608
100 1 7.60193 10.179 9.2598
329 1 3.63069 11.648 12.2256
330 1 6.52285 11.4488 13.902
331 2 5.64618 12.0401 10.1085
45 4 1.20518 9.27232 13.3395
333 2 3.7423 11.0337 11.2679
334 2 2.97241 12.5835 12.2178
335 2 3.53224 10.9415 13.1246
336 2 7.51181 11.1742 13.4812
337 2 5.86126 10.5134 13.9935
365 2 0.0336278 13.1407 12.9708
59 4 6.18569 6.7912 9.02175
277 3 1.17516 9.32206 11.7355
300 3 7.18444 6.7338 10.2514
378 2 9.72816 8.56968 9.05667
351 1 -0.45163 13.4039 8.80775
363 2 -0.884566 12.9345 11.2912
384 2 1.20174 13.1698 17.2151
62 4 8.30612 6.76292 11.3797
219 2 8.64726 10.2862 8.72624
ITEM: TIMESTEP
100
ITEM: NUMBER OF ATOMS
386
ITEM: BOX BOUNDS xy xz yz pp pp pp
-1.0522200000000000e+01 1.6607800000000001e+01 -9.4504999999999999e+00
0.0000000000000000e+00 1.3446873200000001e+01 -1.0717000000000001e+00
0.0000000000000000e+00 1.7350200000000001e+01 3.3982999999999999e-03
ITEM: ATOMS id type x y z
8 4 0.5908 1.24815 0.718887
12 4 -0.149892 4.21218 1.84251
236 3 -4.59195 6.6172 5.14993
15 4 -1.14642 4.66085 7.22493
25 4 4.2822 1.84073 3.69875
29 4 5.75018 1.5508 6.31363
230 3 1.33757 0.21075 1.76688
34 4 0.995349 6.33267 3.71144
36 4 3.89293 3.69006 7.92192
38 4 2.65131 5.89196 6.29682
70 1 -0.369677 3.35526 6.06757
85 1 3.3744 4.18772 1.4408
104 2 -0.497077 2.45542 4.29178
340 2 1.62715 0.756922 6.23345
257 3 -0.176799 5.07319 8.3154
111 2 2.83204 2.55813 4.09063
107 2 -1.85491 3.03827 7.30287
132 2 -0.335818 4.2847 5.13425
133 2 -0.971249 2.3754 5.96541
134 2 0.715691 3.1975 6.51102
339 2 1.09905 1.83178 7.76282
176 2 2.99347 3.16044 1.19391
177 2 3.14003 5.04176 0.688892
178 2 2.91456 4.46798 2.41654
171 2 -1.4594 5.90438 3.92873
233 3 -1.72593 3.94506 2.62343
234 3 0.349521 2.63679 1.37208
235 3 -0.237189 5.1033 0.493835
248 3 6.71562 0.363213 7.04187
237 3 -2.15264 5.62404 6.55738
374 2 -0.0711361 0.405732 7.21767
244 3 3.87703 0.898277 2.46395
247 3 5.06365 1.04798 4.93789
252 3 5.33676 3.03451 3.04087
254 3 0.790164 4.89416 2.92607
256 3 4.76727 2.63501 7.1946
258 3 1.61615 6.12735 5.14825
259 3 2.79017 4.43281 6.95336
338 1 1.02184 0.851262 7.20413
245 3 6.99397 1.69192 0.696175
7 4 -2.04412 2.63917 3.55768
33 4 5.22258 4.1447 1.91109
24 4 7.69564 0.686916 1.78026
10 4 1.21021 0.95381 13.291
11 4 -0.48117 2.89499 11.5542
14 4 -2.28668 6.25595 17.2189
17 4 -1.10631 4.85007 13.8918
28 4 3.76542 1.68771 10.0434
265 3 1.9205 6.66028 9.8977
31 4 3.3585 2.75807 14.7
37 4 0.420906 6.61672 9.26843
357 2 1.25424 2.35506 16.3024
71 1 -0.925946 3.33151 14.9441
72 1 -3.74931 5.07398 16.3281
355 2 -0.0731683 0.998836 15.7876
78 1 0.880724 3.39618 10.392
79 1 2.20669 3.93506 15.5624
80 1 5.57975 0.896042 13.0215
262 3 -0.0315725 5.80189 14.5533
74 1 -4.64197 6.64434 10.6319
108 2 -2.63909 5.07694 14.6656
112 2 3.29848 2.02543 11.6354
135 2 -0.206578 2.46138 14.5316
136 2 -2.00649 2.93817 14.9366
137 2 -0.757951 3.56052 16.0445
138 2 -3.09683 4.11622 16.4326
370 2 -4.97852 6.64127 16.6048
162 2 5.78504 0.312783 11.9439
144 2 -3.54152 6.37771 10.8816
155 2 0.472118 4.02021 9.5047
156 2 1.16437 2.30357 9.95732
157 2 1.73724 3.87101 10.9005
158 2 2.23501 4.01289 16.7725
159 2 1.04432 3.73145 15.2753
160 2 2.51538 4.97668 15.1217
161 2 4.64492 0.538256 13.5885
369 2 -3.1695 4.00038 9.32454
356 2 1.38452 0.434717 16.9404
182 2 -1.01233 5.95311 11.3285
163 2 5.79837 2.0448 12.9568
231 3 -1.6596 2.32994 10.6903
232 3 0.358896 1.89961 12.3986
238 3 -1.19158 4.62429 12.3497
246 3 2.86577 0.386276 9.58439
249 3 2.2839 1.54885 14.2665
250 3 4.51382 2.35248 15.7398
251 3 5.50397 1.73431 10.0486
255 3 3.17655 2.95744 9.22565
354 1 0.709304 1.3337 16.6077
260 3 4.03704 3.7399 13.4426
30 4 7.22244 0.152134 13.7014
266 3 3.52014 5.3463 11.5897
139 2 -4.4313 5.16347 15.3578
140 2 -4.44077 5.29111 17.2969
1 4 -6.76387 13.1271 2.53862
2 1 -5.93239 11.6183 1.60776
3 2 -6.91302 11.2523 1.16033
4 2 -5.56321 10.9711 2.45266
5 2 -5.12526 11.8156 0.734009
6 3 -7.35012 12.6206 4.06025
272 3 -0.61366 12.0586 6.20381
19 4 -2.95102 8.29048 1.72193
27 4 -1.56008 12.5645 7.548
73 1 -3.91792 9.13727 0.387455
75 1 -6.01511 8.82757 8.40814
83 1 -0.796598 6.80927 4.07512
84 1 -2.30666 8.34854 6.33483
86 1 0.584782 7.80732 7.65906
88 1 -0.793427 10.4383 3.86967
109 2 -1.94081 9.31548 2.70508
382 2 -3.50385 12.4179 0.397974
114 2 0.401577 10.1487 2.36485
113 2 2.44329 7.09911 7.52296
142 2 -3.66024 10.277 0.673476
143 2 -5.04838 8.94841 0.440225
343 2 -6.8563 9.784 6.679
241 3 -4.08235 6.91625 7.95238
172 2 -1.0203 7.71434 3.42415
173 2 -2.24819 8.63453 5.21913
174 2 -1.20999 8.10802 6.80766
175 2 -2.8634 9.06403 7.01162
179 2 0.128781 7.19983 6.77396
181 2 -0.337103 8.48242 8.33881
185 2 -0.950133 11.065 2.9108
186 2 -1.77013 10.2358 4.47389
187 2 -0.0885054 9.47816 3.94209
381 2 -1.52143 10.8925 0.515437
239 3 -4.02913 7.74573 2.74745
240 3 -1.99269 7.23794 0.927733
376 2 -6.17662 8.8211 3.23999
267 3 1.67263 7.81667 2.80633
270 3 -2.15668 11.4544 8.49456
180 2 1.44487 8.55715 7.27442
318 4 -7.29592 13.1143 8.36152
319 1 -5.88562 12.2104 7.41788
321 2 -6.08101 12.7768 6.41874
322 2 -5.8279 11.0519 7.30204
323 2 -4.90442 12.5974 7.89814
341 1 -7.16141 10.3127 5.65718
342 2 -6.28013 11.1056 5.52641
148 2 -5.65004 9.82644 7.98646
344 1 -2.93753 12.7637 2.3013
345 2 -2.16142 11.8824 1.93361
346 2 -4.09779 12.36 2.04286
347 2 -2.89335 12.9651 3.42471
170 2 -0.787455 7.03189 5.1864
20 4 -8.30907 11.4906 4.52154
16 4 -3.29775 6.76939 6.51283
21 4 -4.44485 7.89788 9.08644
22 4 -4.54655 8.89645 13.9358
23 4 -5.09138 10.6234 11.1918
40 4 -0.260013 7.34329 15.2142
43 4 -2.52248 10.3158 9.70161
46 4 -3.28993 11.3357 15.7312
76 1 -3.27705 7.60634 13.4438
77 1 -5.94096 12.0477 12.1452
89 1 -1.94627 10.6139 16.8417
90 1 -4.87823 12.2925 16.5624
110 2 -6.06115 10.3268 9.73376
146 2 -5.22647 7.1695 11.466
141 2 -4.53187 8.87388 16.7253
149 2 -3.74201 7.15145 12.4099
150 2 -3.30393 6.82232 14.2991
151 2 -2.24291 8.18046 13.4283
152 2 -5.15043 12.9351 12.4606
153 2 -6.50818 11.6169 13.035
154 2 -6.61012 12.3403 11.2313
191 2 -4.78985 13.2163 15.994
183 2 -1.88541 7.18643 10.2019
188 2 -0.831293 11.1617 16.7979
189 2 -1.96882 9.46561 16.5472
190 2 -5.91181 11.6923 16.4908
106 2 -7.46937 13.3216 12.2829
242 3 -5.74481 8.20052 14.7218
243 3 -5.19293 9.42099 12.2724
263 3 1.23118 7.36763 16.3327
264 3 -1.72697 7.23817 15.9751
269 3 -3.37205 9.03818 9.25182
271 3 -3.6295 11.0807 10.7656
273 3 -0.155359 8.46786 14.0445
274 3 -3.9186 10.0967 14.8356
275 3 -2.64299 12.4102 14.8001
276 3 -1.15742 9.95359 10.5157
87 1 -0.864401 6.87315 10.5743
364 2 -1.01148 11.6935 12.592
184 2 -0.327167 7.72031 11.1343
371 2 -9.20742 13.2669 14.1308
213 2 -6.96175 9.07403 12.2032
363 2 -1.51202 12.9056 11.2241
378 2 -6.85949 8.96466 9.11127
320 2 -8.70923 12.2187 8.87325
196 2 6.82655 5.28999 5.32662
359 2 4.11007 6.10133 0.507472
48 4 9.62541 2.49524 3.93195
368 2 8.08858 6.48373 1.44453
51 4 12.2687 2.31365 5.43094
55 4 10.6265 4.46182 1.7978
352 2 8.84043 1.01187 8.47249
58 4 10.3263 4.08298 7.39813
91 1 7.21594 2.7975 5.86227
92 1 7.03688 6.41805 5.36669
94 1 9.81823 5.77262 6.818
118 2 8.82359 3.5627 4.94243
105 2 15.7605 0.548048 0.0609821
123 2 9.48803 5.28132 0.776971
124 2 8.7889 3.27711 7.00163
125 2 4.9719 4.98711 8.41456
366 1 7.79541 6.29281 0.329991
167 2 6.47666 3.70595 8.06489
50 4 13.3191 0.334783 7.71013
192 2 6.83062 2.88601 4.70883
193 2 8.14618 2.04177 5.93621
194 2 7.19942 3.81824 6.43707
367 2 6.66479 6.41928 0.289742
126 2 6.63368 5.46394 8.1053
201 2 8.75404 5.98751 6.3744
202 2 10.661 6.12695 6.06935
203 2 9.95618 6.23189 7.93554
379 2 9.64603 0.826317 0.375986
253 3 5.98208 4.09953 0.49529
278 3 8.52189 1.33116 3.52566
280 3 13.6039 2.78295 4.73749
281 3 10.948 1.90993 4.54681
282 3 12.6348 1.18919 6.47386
288 3 9.83249 3.26424 2.58065
289 3 11.7426 3.91747 0.825923
290 3 11.0365 5.39191 2.91515
291 3 5.49994 5.66011 3.00009
293 3 11.5945 3.61912 6.48346
324 4 13.4304 0.382852 1.78574
325 3 14.3135 1.35129 2.58399
326 3 12.5697 1.26833 0.718481
122 2 4.24931 6.3805 5.87022
168 2 8.02571 2.88103 8.5634
9 4 13.4778 2.43376 10.0072
26 4 5.63961 2.931 16.9601
32 4 6.53394 2.9461 10.4853
39 4 4.71309 4.65271 12.3849
279 3 13.4677 1.38603 8.91327
52 4 13.0408 1.0163 14.3327
53 4 8.29409 2.72391 15.4032
54 4 11.4433 2.69772 12.3275
60 4 9.70992 4.86126 13.5647
301 3 8.86972 5.77323 12.3992
81 1 8.2667 2.30712 11.1217
82 1 7.35399 3.74101 8.77148
95 1 10.6028 4.14826 9.28564
96 1 4.69612 6.09833 15.2082
119 2 11.8253 3.40418 15.9944
120 2 13.4849 1.72032 15.8448
121 2 9.91235 1.89955 12.136
127 2 5.42922 5.89895 13.2764
41 4 3.40385 6.63498 10.5677
145 2 11.3914 5.74036 10.1682
164 2 8.83233 2.60695 10.2118
165 2 8.34141 1.15849 11.5104
166 2 8.47306 3.02423 12.0542
169 2 7.94043 4.69371 8.72098
204 2 9.76925 4.64217 9.95069
205 2 11.692 4.49262 9.49627
206 2 10.5383 2.94436 9.33317
207 2 4.21943 5.96431 16.2568
208 2 5.64041 5.52265 15.1734
209 2 3.95908 5.87503 14.3681
261 3 5.9213 3.96453 11.4991
317 3 14.3174 0.53431 13.5577
283 3 7.94358 1.33035 14.4869
284 3 9.36659 2.17182 16.4967
285 3 6.97025 3.44235 16.2501
286 3 12.2136 2.44027 10.9672
287 3 12.2118 2.05037 13.5073
49 4 10.717 2.68766 17.1683
295 3 8.99024 3.65015 14.2971
296 3 11.1318 4.24012 12.8362
297 3 10.0764 5.8437 14.7312
383 2 6.94928 5.27311 17.2657
294 3 4.52798 6.67376 9.49029
385 2 15.3884 0.449716 10.6829
361 2 5.35781 7.61859 0.642291
42 4 1.98237 9.35292 2.29477
44 4 0.0426016 11.9499 4.7821
63 4 7.47176 9.38273 2.16091
64 4 2.9859 11.6677 3.74982
65 4 6.77428 9.639 7.64556
131 2 9.48945 7.77647 4.63874
67 4 5.62343 11.8607 6.08669
69 1 9.97269 7.81395 3.58258
93 1 4.54951 8.00366 4.81537
99 1 6.01322 10.1824 1.30997
66 4 2.46564 10.8768 8.37935
101 1 2.72693 9.97993 6.67695
129 2 7.99031 9.43688 6.36793
360 2 3.91406 7.42652 2.03287
198 2 4.84547 8.1234 5.88303
199 2 3.50408 7.58525 4.72045
200 2 4.70211 8.8769 4.15104
216 2 5.20412 9.4211 1.39467
217 2 6.19562 10.506 0.218051
218 2 5.72519 11.0629 2.02192
224 2 1.78861 9.64156 6.07693
222 2 3.37309 9.11169 7.05554
223 2 3.40452 10.7051 5.96878
268 3 2.49757 9.46601 0.7915
302 3 6.97424 7.83493 3.05088
303 3 8.4529 9.06813 0.858444
304 3 7.83781 10.5094 3.2173
305 3 3.02026 10.2016 3.17165
306 3 3.02393 12.8775 2.62217
307 3 1.56392 11.8252 4.54167
309 3 2.86515 12.4458 8.05001
311 3 7.12693 11.9682 5.48952
312 3 4.40567 11.7563 4.99652
313 3 5.54257 10.4757 7.01031
308 3 6.43103 8.14373 8.14741
348 1 -0.150942 13.4146 1.02229
373 2 4.95763 12.8373 0.895581
350 2 0.486071 13.1692 1.91952
147 2 10.3009 8.10601 7.57396
56 4 6.01952 6.90124 3.86241
375 2 9.25301 7.52864 2.83004
13 4 11.5317 6.7481 3.66114
358 1 4.27546 7.19991 0.877127
197 2 6.51862 6.96058 6.29538
195 2 8.09833 6.76662 5.01054
225 2 1.45856 11.425 0.251958
314 3 5.40562 13.3775 7.24913
377 2 9.63311 9.45918 4.79506
372 2 -0.406695 13.4103 3.98299
349 2 -0.406184 12.3643 0.383427
18 4 10.2846 7.06294 15.669
35 4 2.24561 8.31725 17.088
328 1 6.02594 12.7906 10.9828
128 2 9.64381 7.61028 10.8931
57 4 7.45611 7.87102 16.9769
221 2 6.88553 11.283 9.92028
61 4 4.83673 8.02327 15.2071
68 4 1.60509 11.9735 14.9926
97 1 4.5085 8.26076 13.2008
98 1 8.53118 8.68311 12.1101
102 1 0.937084 12.0703 16.8409
103 1 3.90879 10.0547 9.36056
115 2 3.53463 8.13203 11.4928
116 2 2.56286 8.35375 13.6055
117 2 0.385452 11.965 11.2706
130 2 2.42289 11.1639 16.5218
210 2 3.95797 7.25395 12.9726
211 2 5.5772 8.17954 12.9698
212 2 3.93691 9.29596 12.8939
219 2 8.56502 10.5118 8.74273
214 2 8.05493 8.45241 13.2322
215 2 7.87276 9.35765 11.4646
362 1 -1.13579 12.7487 12.2921
220 2 7.59704 9.46963 10.0634
386 2 6.30635 12 14.8976
226 2 -0.141167 12.5445 15.7945
227 2 4.72642 10.7792 9.74422
47 4 0.40161 10.3934 10.6696
229 2 3.25734 9.5536 10.2507
292 3 9.03449 7.46576 16.6381
298 3 6.41972 8.26534 15.513
299 3 3.65768 8.87802 16.0723
353 2 -1.02709 13.3798 9.90085
310 3 1.16174 10.3543 9.23651
315 3 1.34444 10.6701 14.1393
316 3 2.53307 13.1878 14.5924
327 4 5.14907 12.4944 12.7091
100 1 7.44525 10.3336 9.3029
329 1 3.53236 11.4525 12.2623
330 1 6.39443 11.5969 13.9082
331 2 5.53932 12.1351 10.1283
45 4 1.11833 9.31587 13.4078
333 2 3.70071 10.9222 11.1929
334 2 2.69163 12.1689 12.2887
335 2 3.37741 10.7306 13.0739
336 2 7.47699 11.669 13.4775
337 2 6.11447 10.5144 13.8728
365 2 -0.153753 13.3901 12.555
59 4 6.12946 6.81645 9.095
277 3 1.04058 9.44785 11.7972
300 3 7.13173 6.78231 10.3893
380 2 0.504495 13.043 8.74872
351 1 -0.519764 13.4321 8.84994
332 2 7.09029 12.494 11.4085
384 2 1.3308 13.0077 17.3335
62 4 8.22694 6.88391 11.5718
228 2 4.29535 9.30598 8.7233
ITEM: TIMESTEP
200
ITEM: NUMBER OF ATOMS
386
ITEM: BOX BOUNDS xy xz yz pp pp pp
-1.0717000000000001e+00 2.3765100000000004e+01 7.1573000000000011e+00
0.0000000000000000e+00 1.3440146400000001e+01 -1.0717000000000001e+00
0.0000000000000000e+00 1.7350200000000001e+01 3.3966000000003049e-03
ITEM: ATOMS id type x y z
24 4 7.71123 0.736775 1.79157
33 4 5.21219 4.20023 2.01501
245 3 7.15995 1.75223 0.62792
338 1 1.23009 0.78199 7.11785
25 4 4.31383 1.85818 3.75184
29 4 5.92076 1.56973 6.34124
230 3 1.28878 -0.000666315 1.59946
259 3 2.94088 4.25557 6.81347
36 4 3.94882 3.71454 7.86474
256 3 5.02998 2.71025 7.14929
252 3 5.29579 2.93288 3.02317
85 1 3.39608 4.09305 1.50441
247 3 5.12881 1.27212 5.03949
340 2 1.67891 0.818901 6.06243
244 3 3.68414 0.838491 2.71643
111 2 3.11144 2.73181 4.50246
374 2 0.0317734 0.510711 7.06272
248 3 6.60563 0.369938 7.05881
178 2 2.89115 3.88286 2.53344
177 2 2.86824 5.03888 1.093
339 2 1.39231 1.75317 7.67272
176 2 3.22939 3.2771 0.74035
196 2 6.81559 5.11587 5.66801
195 2 8.04841 6.16295 4.71117
122 2 4.25958 6.3941 5.8408
359 2 3.73479 6.1921 0.989709
368 2 8.17259 6.54319 1.46849
91 1 7.43595 2.8219 5.73105
92 1 7.08115 6.11452 5.33451
291 3 5.40635 5.7867 2.98639
94 1 9.88298 5.83787 6.94192
118 2 9.01099 3.61773 4.97763
288 3 9.84222 3.38973 2.53369
123 2 9.3917 5.3731 0.8449
124 2 8.82276 3.13495 7.15824
125 2 4.8533 5.12359 8.46661
278 3 8.5142 1.36582 3.53424
253 3 5.98813 4.20112 0.609301
366 1 7.78582 6.42858 0.468996
203 2 9.92296 6.20118 8.05806
202 2 10.7022 6.32761 6.23994
201 2 8.8407 5.95932 6.39142
126 2 6.46295 5.50874 8.269
55 4 10.5484 4.48564 1.70417
194 2 7.31402 3.66429 6.51133
193 2 8.1652 1.87651 6.04017
192 2 6.98027 2.98653 4.6954
167 2 6.78187 4.03128 7.73759
168 2 7.96855 2.83887 8.63819
383 2 7.87139 5.39648 0.0236755
10 4 1.33093 0.966428 13.4
266 3 3.50188 5.33692 11.628
30 4 7.12762 0.133864 13.7842
260 3 3.91632 3.5156 13.4046
28 4 3.7857 1.82021 10.1958
354 1 0.565798 1.24753 16.5567
31 4 3.36984 2.74556 14.7658
255 3 3.28482 3.05615 9.17923
357 2 1.13987 2.29438 16.2108
251 3 5.39384 1.68002 10.1364
250 3 4.51998 2.3951 15.8996
355 2 -0.278028 0.981075 15.8099
249 3 2.41521 1.56985 14.3588
79 1 2.07774 3.94182 15.634
80 1 5.58413 0.862044 12.9517
246 3 2.9212 0.433661 9.69459
232 3 0.346309 1.8627 12.6339
163 2 5.90095 1.90788 12.7203
112 2 3.3941 2.01689 11.769
356 2 1.28136 0.392656 16.7966
161 2 4.70435 0.736319 13.5293
160 2 2.40913 4.87519 15.0337
158 2 2.2866 4.09802 16.7895
157 2 1.65806 3.84992 10.8272
162 2 5.70165 0.126461 11.9432
156 2 1.08243 2.29966 9.78497
26 4 5.73502 2.90409 16.9508
32 4 6.51895 2.89085 10.3774
41 4 3.25847 6.63023 10.6901
164 2 9.0085 2.90436 10.7755
297 3 10.0539 5.74527 14.6912
39 4 4.56829 4.58432 12.5235
295 3 8.6184 3.76864 14.1609
53 4 8.21352 2.71096 15.3065
60 4 9.54872 4.88282 13.4757
301 3 8.62107 5.83308 12.4742
285 3 7.01522 3.47737 16.2473
81 1 8.13119 2.41499 11.3547
283 3 7.74937 1.423 14.5068
82 1 7.22798 3.77228 8.75618
261 3 5.75945 3.9147 11.4262
209 2 3.82159 5.78559 14.7329
208 2 5.53837 5.71757 15.2781
207 2 4.13803 5.98372 16.4746
96 1 4.50175 6.13237 15.4577
127 2 5.24571 5.7263 13.636
204 2 10.0179 4.81379 9.92819
169 2 7.76994 4.68486 9.16175
166 2 8.00025 2.98365 12.3342
1 4 9.81307 13.1291 2.4947
2 1 10.6349 11.7019 1.44284
3 2 9.72983 11.1857 1.0064
4 2 11.0321 11.0754 2.23661
5 2 11.3804 11.9372 0.62186
6 3 9.36277 12.6397 4.06384
20 4 8.38784 11.4483 4.49552
347 2 13.53 13.0639 3.48749
346 2 12.4592 12.4528 2.05682
73 1 12.5481 9.17783 0.427813
75 1 10.4185 8.72878 8.51456
345 2 14.3296 11.9864 2.14548
344 1 13.5186 12.869 2.34213
148 2 10.7344 9.69316 7.86499
342 2 10.4967 10.9385 5.34173
341 1 9.53651 10.2333 5.50047
382 2 13.144 12.4137 0.414501
323 2 11.7971 12.7449 8.14875
322 2 10.9181 11.0713 7.45778
142 2 12.5924 10.2988 0.603707
143 2 11.4331 8.82468 0.318855
343 2 9.59412 9.92045 6.57213
321 2 10.7111 12.7229 6.46375
319 1 10.9213 12.2833 7.52724
318 4 9.40567 13.115 8.34155
376 2 9.96589 8.7545 3.23843
361 2 5.34815 7.24783 0.645187
63 4 7.41655 9.33056 2.14047
65 4 6.88366 9.59037 7.62828
377 2 9.65146 9.3187 4.81941
131 2 9.55568 7.63185 4.7309
69 1 9.8374 7.66585 3.64641
302 3 6.80363 7.96411 2.89499
197 2 6.92317 7.0209 6.02598
358 1 4.1736 7.24693 0.938302
13 4 11.5683 6.90718 3.54619
375 2 9.09777 7.00124 3.00705
56 4 6.0253 6.90527 3.91748
147 2 10.0426 7.87829 7.76612
93 1 4.67967 8.04025 4.84411
99 1 5.86618 9.96537 1.3199
129 2 8.06952 9.35885 6.36676
308 3 6.2318 8.03171 8.05178
313 3 5.68057 10.6158 7.21565
303 3 8.68493 8.93722 0.787596
311 3 7.23159 11.9597 5.54931
198 2 4.93873 8.14894 5.91571
200 2 4.87963 9.08742 4.38906
216 2 5.06088 9.17386 1.45476
217 2 6.3031 10.0674 0.260611
304 3 7.85065 10.5658 3.22408
360 2 4.02731 7.76571 1.93455
367 2 6.59495 6.62431 0.4956
320 2 8.08735 11.975 8.72015
22 4 11.9556 8.90241 13.9514
23 4 11.5975 10.7235 11.1908
378 2 9.64995 8.94696 9.37197
213 2 9.69303 9.12088 12.2007
46 4 13.3328 11.2782 15.7504
371 2 7.65742 13.1098 14.2296
77 1 10.6473 11.9709 12.302
275 3 13.9399 12.3716 14.7656
90 1 11.8437 12.1994 16.5999
110 2 10.8717 10.2623 9.64373
298 3 6.34085 8.33237 15.7317
146 2 11.4074 7.30648 11.3788
271 3 13.0427 11.3042 10.8862
243 3 11.3909 9.5615 12.3386
242 3 10.6731 8.36255 14.8452
152 2 11.5172 12.7997 12.5664
153 2 10.2066 11.3879 13.1255
154 2 9.92387 12.2259 11.2961
191 2 11.9149 13.0893 15.9034
106 2 9.3102 13.4351 12.2481
190 2 10.8933 11.5955 16.4527
18 4 10.2352 7.02752 15.5824
128 2 9.70035 7.67194 10.8942
62 4 8.25827 7.00005 11.5522
57 4 7.53411 7.90114 16.9102
332 2 7.29364 12.643 11.2488
221 2 6.93265 11.1007 9.90906
61 4 4.75435 8.10298 15.2594
300 3 7.09312 6.94927 10.3746
97 1 4.47031 8.34133 13.3377
59 4 5.99676 6.89742 9.22525
98 1 8.56095 8.77754 12.0867
337 2 5.865 10.5951 13.9581
336 2 7.56861 11.321 13.4689
210 2 3.8058 7.41308 13.2274
211 2 5.49705 8.0727 12.8844
219 2 8.49126 10.3213 9.12091
214 2 8.09472 8.48732 13.2385
215 2 7.9124 9.56199 11.6222
330 1 6.57983 11.5212 13.9623
220 2 7.09237 9.23176 9.95081
100 1 7.34875 10.2531 9.37865
386 2 6.72129 12.0302 14.9914
292 3 9.00418 7.38941 16.4883
294 3 4.49153 6.90832 9.7884