ITEM: TIMESTEP
0
ITEM: NUMBER OF ATOMS
386
ITEM: BOX BOUNDS xy xz yz pp pp pp
-1.0522200000000000e+01 1.6607800000000001e+01 -9.4504999999999999e+00
0.0000000000000000e+00 1.3453600000000000e+01 -1.0717000000000001e+00
0.0000000000000000e+00 1.7350200000000001e+01 3.3999999999999998e-03
ITEM: ATOMS id type q x y z
8 4 1.04889 0.768761 1.38367 0.592713
12 4 1.47978 -0.378521 4.13188 1.92087
15 4 0.9516 -0.992079 4.63353 7.72377
70 1 -0.671093 0.534516 3.83972 7.01739
104 2 0.00145002 -0.698039 1.52246 4.26032
107 2 0.000223008 -2.17753 3.47241 7.84925
132 2 0.179063 0.52382 4.45441 5.99737
133 2 0.12615 -0.0414676 2.72921 6.8857
34 4 1.31366 1.10687 6.45842 3.40904
233 3 -0.779851 -1.45686 3.81218 3.13088
234 3 -0.81384 0.290623 2.71965 1.37363
235 3 -0.821676 -1.2864 4.73739 0.611652
237 3 -0.775481 -1.51816 5.8218 6.8034
254 3 -0.823463 0.776648 5.21463 2.46704
374 2 0.154574 0.831235 0.821558 6.77007
13 4 1.35746 -4.61135 6.64768 3.82576
230 3 -0.799499 1.04653 0.182086 1.49945
236 3 -0.776615 -4.12404 6.33432 5.31848
170 2 0.249663 -0.615932 6.36419 5.2334
171 2 0.225777 -1.24621 6.52933 3.44098
340 2 0.209814 2.07473 0.196681 5.29814
85 1 -0.676664 3.31789 4.70215 1.20003
355 2 0.210285 3.24817 0.956073 0.219827
111 2 0.0321939 3.28734 1.57157 4.94424
113 2 0.0129463 1.7165 5.47233 7.12231
134 2 0.22475 1.58451 3.70478 7.39739
177 2 0.171269 3.26192 4.84177 0.0272868
176 2 0.237682 2.51982 4.05551 1.60242
354 1 -0.640848 2.4818 1.7807 0.0212152
178 2 0.220331 3.29084 5.66025 1.76484
252 3 -0.821136 4.50657 2.74475 2.75597
356 2 0.183999 2.81533 2.88534 0.387503
256 3 -0.841244 4.93796 1.86858 6.52553
255 3 -0.797903 3.41774 3.19713 8.39727
244 3 -0.826967 3.78282 0.412398 2.6069
258 3 -0.806635 2.02263 6.0016 4.69306
247 3 -0.758514 5.91567 0.968898 4.20376
338 1 -0.668762 1.93993 0.917194 6.25026
339 2 0.191851 2.10871 2.01363 6.04129
259 3 -0.850801 3.75734 4.21533 5.90819
25 4 1.28595 4.39583 1.44032 3.60806
29 4 1.25912 6.24627 1.0337 5.89255
33 4 1.3356 4.97803 3.95955 1.81558
36 4 1.1528 4.5351 3.33501 6.99312
38 4 0.949655 2.95328 5.52731 5.91801
11 4 1.33908 -0.534917 2.28796 11.9484
17 4 1.09854 -1.10651 4.34335 14.2133
71 1 -0.707463 -1.09742 2.93931 15.6324
72 1 -0.660987 -4.0107 5.27036 15.8656
14 4 1.31883 -2.5209 6.07716 17.1988
108 2 0.000699551 -2.61449 4.94807 14.4279
135 2 0.159973 -0.840715 2.03532 14.9983
136 2 0.166799 -2.03239 2.94621 16.2781
137 2 0.168102 -0.179987 3.45001 16.1222
139 2 0.113806 -3.74468 6.37913 15.3365
231 3 -0.822016 -1.7766 1.7688 10.9723
155 2 0.262024 0.329096 4.09816 10.3998
182 2 0.175411 -1.54904 6.35681 11.6191
37 4 1.16547 0.301882 6.64648 9.96236
232 3 -0.844282 0.434603 1.21698 12.6367
238 3 -0.828278 -1.01413 3.45466 12.9524
262 3 -0.788665 -0.0110082 5.44145 14.3707
105 2 -0.0449844 -1.39642 1.23203 16.6158
257 3 -0.781139 -0.394945 5.37544 9.42989
78 1 -0.652165 0.866296 3.26471 10.9466
264 3 -0.867066 -1.35076 6.65239 16.2255
369 2 -0.0269713 -2.74819 3.797 9.78434
144 2 0.16897 -3.64028 6.51519 10.891
74 1 -0.679142 -4.73769 6.70785 10.6631
31 4 1.20581 3.57753 2.41179 14.5093
156 2 0.149508 1.11821 2.33936 10.2324
79 1 -0.653061 2.52577 3.80875 15.2206
112 2 0.0470842 2.74452 2.47523 10.9638
251 3 -0.797014 5.45646 2.2395 9.84013
162 2 0.185473 6.40606 0.638421 12.0779
28 4 1.22384 3.7059 2.15097 9.52384
80 1 -0.66743 6.38923 1.13286 13.0792
157 2 0.218182 1.65402 3.67244 11.6873
249 3 -0.790705 2.47377 1.06085 14.3085
160 2 0.191468 1.48233 3.48794 14.9834
158 2 0.175431 2.88566 4.62775 14.477
161 2 0.211654 5.44331 0.967952 13.6521
357 2 0.133501 1.10857 1.7988 16.2029
246 3 -0.806286 3.06573 0.761475 9.07458
260 3 -0.791607 4.10223 3.11262 13.0582
159 2 0.169295 2.71214 4.02353 16.3888
250 3 -0.784115 4.93142 2.15253 15.6248
10 4 0.95914 1.28149 0.33944 13.5647
266 3 -0.864163 3.68672 5.38946 11.5632
152 2 0.198714 4.76893 0.0234991 12.4553
1 4 1.26348 -6.95514 12.9311 2.44736
2 1 -0.651261 -6.28233 11.5645 1.25173
148 2 0.157264 -5.67089 10.2018 8.10002
4 2 0.214861 -6.26946 10.5934 1.80069
5 2 0.166724 -5.22564 11.8467 0.816955
6 3 -0.812169 -7.21679 12.3071 3.87422
73 1 -0.695657 -4.03942 9.24673 0.642391
241 3 -0.811328 -3.82561 7.21268 7.98726
143 2 0.197681 -5.06257 8.85088 0.909854
376 2 0.16273 -5.71521 8.84188 3.77252
319 1 -0.653939 -5.19496 11.9357 7.17285
321 2 0.170539 -5.27341 12.5448 6.16179
322 2 0.178134 -4.64075 11.0328 6.92518
3 2 0.181359 -7.05738 11.5992 0.442051
342 2 0.181113 -6.26766 10.4413 5.56846
346 2 0.238848 -3.86429 12.9921 1.95868
382 2 0.174774 -3.34055 12.5196 0.301675
239 3 -0.800449 -3.47295 7.6056 2.99737
341 1 -0.661745 -7.32209 10.0624 5.66012
142 2 0.130695 -3.9223 10.3297 1.02389
320 2 0.0190314 -6.79527 11.5616 7.90837
323 2 0.211256 -4.56123 12.5301 7.94044
318 4 0.817106 -6.73208 13.405 7.66411
75 1 -0.658368 -5.9834 9.08913 8.57272
83 1 -0.679025 -0.492979 6.94154 4.23121
349 2 0.145403 -0.484475 11.8912 0.264731
179 2 0.234064 -0.727895 7.23805 7.85028
272 3 -0.812708 -0.426966 11.6773 6.16101
224 2 0.199827 0.905563 9.67113 6.61508
172 2 0.167336 -0.497284 8.03117 4.38195
16 4 1.17128 -3.01433 6.97149 6.57147
185 2 0.137533 -0.295734 11.5242 2.3205
186 2 0.146964 -1.60597 10.7813 3.68495
174 2 0.186843 -2.725 8.59163 4.90742
240 3 -0.800142 -2.15282 7.25286 0.825061
187 2 0.143526 0.247032 9.90197 3.59486
173 2 0.188161 -3.13741 9.34694 6.64506
347 2 0.207955 -2.75434 12.3242 3.34072
248 3 -0.767238 -2.72871 13.1181 6.56016
267 3 -0.80499 1.80094 7.91313 2.68141
345 2 0.108116 -2.39848 11.8047 1.56035
175 2 0.17234 -1.29208 8.76219 6.25259
344 1 -0.675197 -2.85378 12.6132 2.26942
180 2 0.183379 0.733202 8.39556 8.01914
381 2 0.118392 -1.27027 10.5194 0.510442
19 4 1.01714 -2.85749 8.38273 1.75792
27 4 1.26712 -1.34047 12.194 7.42525
270 3 -0.779614 -1.93421 11.1803 8.51206
84 1 -0.66563 -2.44143 8.67891 6.01109
86 1 -0.664615 -0.109401 7.78377 8.58323
88 1 -0.680551 -0.516027 10.7832 3.27036
109 2 0.00850449 -1.50731 9.29871 2.4625
114 2 -0.0075204 0.991742 10.2208 2.03117
21 4 1.1301 -4.3387 8.03042 9.21747
22 4 1.26451 -4.97682 9.0738 13.772
23 4 1.01716 -5.14749 11.1341 11.1786
77 1 -0.639235 -5.57464 12.719 12.2351
90 1 -0.663242 -4.74414 12.2741 16.5589
110 2 -0.0306759 -5.89697 10.764 9.70405
370 2 -0.00373301 -5.01924 6.86797 16.4331
153 2 0.186877 -5.84622 12.2365 13.1862
154 2 0.146846 -6.4024 13.1141 11.5628
190 2 0.159946 -5.63842 11.5595 16.3949
150 2 0.170848 -4.15476 6.88485 13.1254
242 3 -0.825607 -6.1589 8.16578 14.4087
243 3 -0.790958 -5.52409 10.0066 12.1652
274 3 -0.8138 -4.28597 10.1209 14.6919
141 2 0.18363 -4.91736 9.18485 16.8851
371 2 -0.0186284 -9.18129 12.8515 14.6562
146 2 0.159634 -5.21226 7.35431 11.4588
378 2 0.116102 -6.37337 9.09478 9.67309
106 2 -0.0205792 -7.51198 12.4828 12.6811
336 2 0.119712 -8.85062 11.5485 13.5677
213 2 0.237696 -7.04827 9.20261 12.0278
191 2 0.221975 -4.76 13.1652 15.7456
184 2 0.220096 0.082964 6.81958 12.5239
87 1 -0.657922 -0.634696 7.02051 11.6449
189 2 0.204979 -2.29956 9.08284 16.5944
269 3 -0.855118 -3.19294 8.98959 9.75961
188 2 0.172159 -1.14208 10.6034 16.3699
181 2 0.204508 -0.773398 8.48624 9.31866
273 3 -0.841501 -0.117857 8.31824 14.4726
46 4 1.15484 -3.52819 11.251 15.6093
275 3 -0.777085 -2.71288 12.3203 14.7523
271 3 -0.761875 -3.53518 11.3785 10.9558
43 4 1.43569 -2.47169 10.3801 10.0507
76 1 -0.695128 -3.68147 7.91168 13.0867
89 1 -0.657363 -2.19475 10.2209 16.7487
149 2 0.204547 -3.4348 8.28187 11.9798
276 3 -0.842606 -1.12275 10.2187 10.9266
151 2 0.198776 -2.79937 8.05597 13.7544
183 2 0.228139 -0.909017 8.1032 11.6303
40 4 1.47406 -0.0754866 6.97594 15.3813
265 3 -0.765599 1.90936 6.77707 10.3219
263 3 -0.840222 1.25026 7.05277 16.3265
91 1 -0.688874 7.61376 2.40651 6.13423
92 1 -0.692939 7.9732 5.74236 4.38458
118 2 0.0101964 9.17583 3.20523 5.20017
124 2 0.021541 8.9799 4.36513 6.89668
125 2 -0.0279935 6.06431 4.13237 7.37829
192 2 0.148306 7.31594 3.08369 5.20672
193 2 0.158426 8.53249 1.77431 6.07937
194 2 0.150345 7.51226 3.02081 7.12577
195 2 0.195237 8.01674 4.78591 3.7348
367 2 0.219651 6.83786 6.46021 0.553135
202 2 0.1541 9.03878 5.96157 6.09194
278 3 -0.749248 8.79239 1.1864 3.34976
291 3 -0.797692 5.65775 5.15682 2.68698
366 1 -0.644434 8.00571 6.1946 0.563017
368 2 0.170547 8.5299 6.28876 1.62552
123 2 0.0171214 9.80211 5.45047 0.673777
169 2 0.125698 7.38087 4.72427 7.71345
253 3 -0.806487 5.93781 3.7544 0.378883
245 3 -0.792335 7.37435 1.44019 0.668825
48 4 1.26845 9.82258 2.5031 3.72615
56 4 1.12278 6.3576 6.31161 3.55347
359 2 0.175987 5.01326 6.07969 0.263356
288 3 -0.84645 9.69229 3.67058 2.64031
352 2 0.149064 8.48835 1.0464 8.37931
24 4 1.1076 7.89504 0.435322 1.73905
351 1 -0.672871 9.06387 0.0537246 8.31734
196 2 0.117467 7.68567 5.62288 5.44417
198 2 0.113304 5.42221 6.48499 5.60315
197 2 0.17822 8.92918 6.48169 4.2282
379 2 0.233689 9.56859 0.420967 0.215014
167 2 0.10572 8.18352 3.35153 8.67266
94 1 -0.682025 9.86326 6.08069 6.97346
289 3 -0.827654 11.9391 3.79899 1.13172
290 3 -0.831917 11.3945 5.51086 2.93484
281 3 -0.850506 11.1829 1.9218 4.28995
282 3 -0.854997 12.2843 0.704409 6.28985
324 4 1.27986 13.2882 0.420013 1.75879
49 4 1.30908 12.2562 2.71123 0.0103788
51 4 1.50096 12.1433 2.01486 5.54997
293 3 -0.782339 11.374 3.25938 6.69937
58 4 0.866167 10.6298 4.2967 7.58004
55 4 1.32648 10.7578 4.57034 1.87187
203 2 0.226256 10.9005 6.38279 6.58156
325 3 -0.854033 13.9174 1.49476 2.7737
280 3 -0.801235 13.7851 2.64647 5.1659
326 3 -0.848042 12.5562 1.21184 0.542521
7 4 1.33676 14.5643 2.40697 3.83378
380 2 0.206067 10.1279 0.163427 7.81679
50 4 1.46766 13.1023 0.034637 7.55665
32 4 1.1281 6.64807 3.03557 10.4001
39 4 1.18492 4.82062 4.4868 12.3804
53 4 1.42264 8.55313 2.73652 15.6121
81 1 -0.686395 8.05327 1.94378 11.276
96 1 -0.673742 4.90658 6.09203 15.3005
127 2 -0.0074997 5.61212 5.45054 13.5835
166 2 0.222873 8.16459 2.55024 12.2332
207 2 0.177792 4.34632 5.83445 16.307
208 2 0.184141 5.8605 5.50613 15.3172
209 2 0.108211 4.13546 5.8996 14.4385
261 3 -0.803577 6.05135 4.05799 11.4353
283 3 -0.826255 8.23852 1.06328 15.3952
285 3 -0.824688 7.21576 3.48516 16.6406
168 2 0.186767 7.86349 4.99852 9.45657
295 3 -0.83803 8.4242 3.43027 14.0271
301 3 -0.76473 8.62274 5.66135 12.2168
164 2 0.122215 8.837 2.17499 10.4465
26 4 1.49784 5.83641 2.7205 16.9505
165 2 0.16554 7.7218 0.843067 11.3364
30 4 1.18356 7.67325 0.178366 14.2722
126 2 -0.00614409 5.76799 5.23321 8.78534
82 1 -0.68668 7.4476 4.25562 8.736
163 2 0.23804 6.59106 2.24885 13.0006
383 2 0.261789 7.09219 5.20359 17.3468
54 4 1.29121 11.3008 2.49905 12.4119
279 3 -0.771032 13.3444 1.30097 8.90713
140 2 0.166123 11.8116 5.28508 16.7255
317 3 -0.7882 14.1874 0.147794 13.5191
60 4 1.40685 9.51373 4.63071 13.4618
95 1 -0.664174 10.6939 4.01279 9.39781
365 2 0.19302 10.1957 0.132453 13.5865
121 2 0.0100836 9.88449 1.62161 11.8825
120 2 -0.0263108 13.8412 1.92054 15.47
145 2 0.18487 11.2699 5.76605 10.4495
204 2 0.16431 9.89679 4.46632 10.0568
206 2 0.155529 10.5894 2.73583 9.20915
119 2 0.0179045 12.5424 3.44042 16.5564
205 2 0.158904 11.8117 4.36217 9.53127
284 3 -0.867583 10.0231 2.81718 16.3175
287 3 -0.866482 12.0806 1.86356 13.5674
296 3 -0.832899 10.8765 3.97327 12.7599
297 3 -0.824442 10.0121 5.54712 14.6934
286 3 -0.822797 12.222 2.31386 11.0774
9 4 1.29167 13.5495 2.21955 10.2395
138 2 0.199262 12.2398 4.57555 15.0194
52 4 1.26557 13.0003 0.849683 14.3239
42 4 1.24482 2.41963 9.2734 2.02824
44 4 1.04529 0.308931 11.8502 4.76655
64 4 1.43074 3.29648 11.612 3.75528
93 1 -0.668987 5.00479 7.22228 4.80604
101 1 -0.653829 1.98052 9.58821 6.95734
66 4 1.19282 2.39829 10.7083 8.6246
223 2 0.240057 2.70434 10.0944 6.25948
268 3 -0.834286 2.89236 9.06779 0.520289
305 3 -0.823313 3.55632 9.96989 2.85939
306 3 -0.856639 3.00367 12.6906 2.52195
307 3 -0.796844 1.92072 11.5587 4.73283
312 3 -0.849113 4.56181 11.979 4.61326
348 1 -0.664495 -0.139906 12.9576 0.939648
358 1 -0.668857 4.83503 7.18952 0.653695
350 2 0.184803 0.748365 12.6621 1.61065
199 2 0.206305 4.04244 6.98483 4.24111
384 2 0.219537 2.25954 12.1031 0.76756
216 2 0.270299 5.00888 10.1413 1.87232
360 2 0.210149 4.30595 7.37999 1.65036
372 2 0.103958 -0.00815824 13.378 4.10135
200 2 0.221919 5.0738 8.29184 5.02255
309 3 -0.809576 2.74905 12.153 8.16682
314 3 -0.804931 5.07405 12.9338 7.1302
222 2 0.136082 2.30678 8.48784 7.24153
122 2 -0.00561562 3.88146 6.88674 6.40358
343 2 0.150686 8.85328 10.0686 6.71043
100 1 -0.676404 7.54253 10.1947 8.50237
304 3 -0.813344 7.82328 10.161 3.31777
20 4 1.28938 8.19379 11.1998 4.51714
217 2 0.163505 6.08668 9.76155 0.250234
303 3 -0.765937 8.74375 8.97963 0.894407
311 3 -0.81489 7.15685 11.9178 5.48876
373 2 -0.0460925 5.16863 13.0432 1.01107
377 2 0.166135 9.18034 8.97732 5.16935
131 2 0.148143 10.2155 7.59535 5.0811
308 3 -0.814854 6.18894 7.91826 8.01943
375 2 0.181146 9.59985 7.62484 3.16235
63 4 1.20907 7.43401 9.20134 2.06039
65 4 1.04088 6.51768 9.19142 7.2194
67 4 1.43259 5.44516 11.697 5.9573
69 1 -0.66379 10.4438 7.78791 3.92081
99 1 -0.678208 6.05983 10.2426 1.31627
129 2 -0.0144545 7.7478 8.83908 6.01726
361 2 0.185984 5.69535 7.86984 0.507159
313 3 -0.819435 5.29459 10.1494 6.55695
218 2 0.175739 6.51669 11.259 1.33547
302 3 -0.751411 6.80498 7.56191 2.67044
221 2 0.167206 7.42346 11.2681 8.30042
219 2 0.154391 8.70015 9.874 8.57111
201 2 0.145676 9.53665 6.85292 7.70466
147 2 0.148152 10.0486 8.34125 7.87189
35 4 1.26381 2.41463 7.98084 16.8673
68 4 1.10438 1.96502 11.8516 15.4347
102 1 -0.655791 0.920444 11.9447 17.0404
103 1 -0.646348 3.87787 10.0179 9.60421
116 2 0.0648815 2.59977 8.57765 14.0465
117 2 0.000731815 0.677591 11.9969 11.8814
130 2 0.0440089 2.7073 11.2236 16.9538
226 2 0.19758 0.422 12.9881 16.561
229 2 0.196596 3.33867 9.40526 10.4001
299 3 -0.806441 3.56126 8.49779 15.4289
310 3 -0.813853 1.30237 10.4541 9.78437
315 3 -0.821451 1.34195 10.6858 14.6726
316 3 -0.880643 2.70517 13.14 14.968
329 1 -0.654323 3.60487 11.1212 12.6339
334 2 0.198059 2.64149 11.6868 12.8317
335 2 0.146611 3.90955 10.3823 13.5326
362 1 -0.688233 -0.248763 13.1385 13.1821
333 2 0.170273 3.69206 10.6434 11.5175
225 2 0.165094 0.141413 11.0193 16.9458
45 4 1.22114 1.07996 9.16476 13.7555
364 2 0.180806 -0.323514 12.0014 13.488
115 2 -0.0152285 3.7841 7.86892 12.2844
47 4 1.26252 0.42798 10.4491 11.1559
353 2 0.166227 -0.301833 12.982 9.34275
41 4 1.2119 3.5431 6.744 10.9392
277 3 -0.871676 1.07988 9.4934 12.2729
228 2 0.237651 4.29606 9.30131 8.81761
363 2 0.147942 -0.466331 13.3372 12.0939
332 2 0.212206 6.47206 13.1459 11.1
294 3 -0.845937 4.61383 7.34882 9.92032
128 2 -0.0164432 10.086 7.41423 10.3886
298 3 -0.788779 6.51752 8.25251 15.9555
62 4 1.04841 8.54249 6.96414 11.2655
327 4 0.898141 5.20697 12.1444 12.8546
328 1 -0.663992 5.78435 12.2464 10.9243
18 4 1.25506 10.1781 6.98725 15.4805
330 1 -0.661873 6.71028 11.1696 13.8666
386 2 0.163195 6.50824 11.2895 14.9682
59 4 1.1964 5.97439 6.87004 9.32358
300 3 -0.812888 7.3035 6.95778 10.3042
331 2 0.140036 6.42281 11.3848 10.4647
337 2 0.183204 6.49637 10.0854 13.4959
210 2 0.10407 5.19625 7.18507 12.8457
227 2 0.170929 4.7002 10.7718 10.0662
385 2 0.219981 4.93172 12.4802 10.3333
57 4 1.31755 7.61434 7.81921 17.0009
61 4 1.03639 5.0743 7.94988 14.9789
97 1 -0.670311 5.48422 8.33625 13.1144
98 1 -0.665919 8.5049 8.6455 12.0956
211 2 0.184615 6.60199 8.46721 12.7937
212 2 0.150562 4.8327 9.08992 12.5556
214 2 0.201605 8.26142 8.17378 13.1638
215 2 0.149767 7.6718 9.33474 11.6424
220 2 0.174021 6.9494 9.90084 9.45571
292 3 -0.859273 8.99573 7.33353 16.4552
ITEM: TIMESTEP
100
ITEM: NUMBER OF ATOMS
386
ITEM: BOX BOUNDS xy xz yz pp pp pp
-1.0549100400000000e+01 1.6607800000000001e+01 -9.4504999999999999e+00
0.0000000000000000e+00 1.3453600000000000e+01 -1.0986004000000005e+00
0.0000000000000000e+00 1.7350200000000001e+01 3.3999999999999998e-03
ITEM: ATOMS id type q x y z
8 4 1.03014 0.959203 1.29533 0.580938
12 4 1.46766 -0.334628 4.03961 1.85718
15 4 1.04814 -0.8165 4.66415 7.80123
70 1 -0.682682 0.701337 3.86506 6.94896
104 2 -0.0195737 -0.737025 1.38282 4.79466
107 2 -0.0170633 -1.94439 3.41432 7.91581
132 2 0.1948 0.689403 4.3249 5.95329
133 2 0.116129 0.130551 2.78533 6.90534
34 4 1.31545 1.12914 6.51042 3.37454
233 3 -0.796869 -1.18551 3.58393 3.17629
234 3 -0.815474 0.596109 2.70823 1.30953
235 3 -0.839043 -1.1924 4.62679 0.581646
237 3 -0.788808 -1.53283 5.80859 6.93624
254 3 -0.775012 0.710387 5.40234 2.25661
374 2 0.144232 0.92357 0.721683 6.73181
33 4 1.33805 4.86942 3.98018 1.84435
245 3 -0.810493 7.21651 1.46149 0.692324
236 3 -0.763051 -3.99079 6.50381 5.29357
170 2 0.238605 -0.710088 6.3357 5.1599
171 2 0.229682 -1.33395 6.68306 3.40563
340 2 0.240497 1.91953 0.16177 5.1704
85 1 -0.679517 3.204 4.56285 1.12615
355 2 0.216931 3.37373 0.814857 0.140444
111 2 0.0308479 3.04455 1.81253 4.7672
113 2 0.0186088 1.70346 5.61413 7.1955
134 2 0.252071 1.69402 3.77756 7.49809
36 4 1.10083 4.42518 3.39306 7.06201
176 2 0.224732 2.53443 3.80464 1.69289
38 4 0.951205 2.88499 5.60547 5.99227
178 2 0.223249 3.0265 5.57973 1.54099
252 3 -0.844906 4.54761 2.80728 2.82468
356 2 0.192227 2.90034 2.76391 0.272273
256 3 -0.820494 4.86805 1.80628 6.56284
255 3 -0.778598 3.349 3.43861 8.48107
244 3 -0.829376 3.60781 0.40149 2.47234
258 3 -0.804485 2.01343 5.95172 4.68196
247 3 -0.793241 5.5676 0.844939 4.23179
338 1 -0.677045 1.94857 0.825114 6.10277
339 2 0.181598 2.01881 1.9699 5.96706
259 3 -0.834354 3.65499 4.27142 5.9605
25 4 1.2936 4.22502 1.4326 3.52809
29 4 1.25456 6.10984 1.14936 5.82801
7 4 1.29577 -1.86512 2.31812 3.96907
11 4 1.32454 -0.511649 2.36038 11.9629
17 4 1.06864 -1.23553 4.35135 14.2373
71 1 -0.700743 -1.18549 3.03764 15.7625
72 1 -0.673697 -4.0364 5.20526 15.9035
14 4 1.34192 -2.56062 6.00502 17.2116
108 2 0.00513625 -2.83434 5.09764 14.3628
135 2 0.154656 -0.669991 2.20745 15.1258
136 2 0.153736 -2.17128 2.77044 16.2861
137 2 0.205109 -0.533224 3.67662 16.3825
139 2 0.134287 -3.88173 6.1935 15.3004
231 3 -0.794338 -1.60032 1.803 10.8258
155 2 0.266424 0.454966 3.95478 10.1246
182 2 0.163696 -1.71354 6.52711 11.3264
177 2 0.193 1.94904 4.56764 17.3416
232 3 -0.826531 0.333283 1.34122 12.8459
238 3 -0.814364 -1.17968 3.57398 12.9132
262 3 -0.811327 -0.0572508 5.42984 14.5063
105 2 -0.0261383 -1.20182 1.23118 16.5457
257 3 -0.774004 -0.215811 5.12545 9.1459
78 1 -0.645346 0.940267 3.03396 10.8719
266 3 -0.83836 3.64659 5.1817 11.5927
369 2 -0.0282167 -2.88219 3.62425 9.44729
144 2 0.163379 -3.88539 6.39963 10.9539
354 1 -0.653167 1.56424 1.63051 17.2318
31 4 1.2354 3.60348 2.50476 14.699
156 2 0.161095 1.3744 2.15145 10.2787
79 1 -0.675149 2.44857 3.84518 15.256
112 2 0.0334275 2.81908 2.45693 10.9996
251 3 -0.802858 5.36858 1.922 9.85907
162 2 0.182681 6.31049 0.816672 12.2044
28 4 1.16688 3.71174 2.16643 9.55671
80 1 -0.669849 6.30678 1.13672 13.3127
157 2 0.197244 1.56414 3.47996 11.7542
249 3 -0.776711 2.58595 1.04137 14.3346
160 2 0.178769 1.448 3.41089 15.5123
158 2 0.187603 2.4872 4.48773 14.2803
161 2 0.217955 5.47023 0.749705 13.8835
357 2 0.133726 1.19679 1.63981 16.1074
246 3 -0.773842 3.10388 0.75546 8.87449
260 3 -0.816318 4.20658 3.04919 13.2245
159 2 0.177921 2.85496 4.41063 16.1716
250 3 -0.834204 4.92486 2.30272 15.7462
10 4 0.940895 1.32589 0.411133 13.6321
140 2 0.171734 -4.74492 5.28844 16.8459
1 4 1.19875 -6.935 12.7311 2.26721
2 1 -0.681761 -6.20746 11.326 1.29367
148 2 0.152845 -5.73747 10.288 8.17054
4 2 0.163745 -5.63352 10.6705 2.04407
5 2 0.15863 -5.4709 11.7204 0.473154
6 3 -0.801601 -7.38678 12.2833 3.98491
73 1 -0.677473 -3.9985 9.31357 0.809671
241 3 -0.787788 -3.8848 7.33892 7.95679
143 2 0.193872 -4.94646 9.02226 1.40685
376 2 0.174555 -5.87566 8.82381 3.75705
319 1 -0.672786 -5.2735 11.9566 7.11656
321 2 0.16897 -5.1469 12.5537 6.02263
322 2 0.159125 -5.23849 10.8309 6.8851
3 2 0.21934 -7.03136 10.7046 0.842977
342 2 0.175739 -6.24896 10.5143 5.37376
346 2 0.225253 -3.82343 12.844 2.06228
382 2 0.172297 -3.36379 12.4285 0.359885
239 3 -0.804366 -3.47812 7.76281 2.9997
109 2 0.00306142 -1.31013 9.31472 2.12759
142 2 0.129304 -3.6188 10.3933 1.06527
320 2 -0.000223662 -6.98112 11.6376 7.84977
323 2 0.229401 -4.5394 12.3731 7.86767
147 2 0.154561 -6.34734 8.3814 7.92962
13 4 1.34817 -4.57642 6.81723 3.79116
83 1 -0.662135 -0.505046 6.86621 4.18448
349 2 0.169642 -0.499166 11.9891 0.480574
179 2 0.205629 -0.46776 7.30578 7.72559
272 3 -0.785529 -0.392853 11.5178 6.03697
341 1 -0.675711 -7.18033 10.0214 5.68253
172 2 0.155411 -0.387448 7.99431 4.39877
16 4 1.20569 -2.96804 6.91104 6.57946
185 2 0.13175 -0.424918 11.539 2.34658
186 2 0.155456 -1.51765 10.6097 3.83919
174 2 0.189275 -2.6936 8.72929 5.08333
240 3 -0.826159 -2.13148 7.10077 0.824412
187 2 0.163354 0.173455 9.77469 3.34075
173 2 0.205242 -2.68616 9.26403 6.93185
347 2 0.202735 -2.67517 12.4095 3.43262
248 3 -0.782701 -2.58837 13.2662 6.70112
267 3 -0.789594 1.62464 7.9769 2.76664
345 2 0.114008 -2.32834 11.7594 1.59633
175 2 0.170912 -1.11497 8.59082 6.1235
344 1 -0.666556 -2.75627 12.599 2.29964
180 2 0.197104 0.855281 8.63883 7.96983
381 2 0.126031 -1.43164 10.5834 0.484325
19 4 1.03267 -2.68911 8.3146 1.69519
27 4 1.26727 -1.59265 12.1858 7.39225
270 3 -0.83402 -2.06813 11.2442 8.53921
84 1 -0.670819 -2.27492 8.58947 6.12235
86 1 -0.671672 0.00296857 8.04504 8.49857
88 1 -0.681801 -0.519354 10.71 3.29553
230 3 -0.78753 -8.4297 13.3477 1.31836
318 4 0.864873 -6.59805 13.3258 7.5205
343 2 0.149518 -7.44434 10.2537 6.73842
21 4 1.11747 -4.31208 8.15598 9.28431
22 4 1.23551 -4.84656 8.99232 13.6332
23 4 0.980668 -5.10192 11.0984 11.1385
77 1 -0.635413 -5.52859 12.6749 12.1918
90 1 -0.656979 -4.70019 12.2116 16.5858
110 2 -0.026835 -5.98869 10.9476 9.71883
370 2 0.0134916 -5.10368 6.81816 16.307
153 2 0.168136 -5.96132 12.1248 13.0927
154 2 0.134307 -6.22128 13.0864 11.2742
190 2 0.153493 -5.73291 11.6487 16.5881
332 2 0.142785 -9.50004 12.6227 11.433
242 3 -0.818517 -6.11129 8.09317 14.1728
243 3 -0.794711 -5.49407 9.92093 12.1441
274 3 -0.788777 -4.16989 9.94209 14.8019
141 2 0.191945 -5.1742 9.1342 17.0732
371 2 -0.0192033 -8.88389 12.6267 14.5153
146 2 0.162966 -5.36636 7.29437 11.2441
378 2 0.134316 -6.53938 9.28801 9.67545
106 2 -0.0162999 -7.47862 12.7348 12.5407
263 3 -0.833844 1.36164 6.83312 16.3903
213 2 0.243612 -7.17287 9.19304 12.1841
191 2 0.2209 -4.68203 13.196 16.0434
184 2 0.225174 -0.175202 6.84531 12.3452
87 1 -0.673095 -0.783444 7.20624 11.4729
189 2 0.201692 -2.46472 9.25498 16.4752
269 3 -0.847033 -3.14371 9.11101 9.91818
188 2 0.188158 -1.04017 10.6312 16.4748
181 2 0.201487 -0.787706 8.69581 9.02538
273 3 -0.802317 -0.0797205 8.28044 14.3883
46 4 1.11572 -3.36371 11.1727 15.6434
275 3 -0.776635 -2.41388 12.2989 14.8328
271 3 -0.746785 -3.41973 11.442 10.7905
43 4 1.4927 -2.36075 10.4907 10.0262
76 1 -0.687453 -3.44282 7.8411 13.1474
89 1 -0.670021 -2.14266 10.3261 16.8365
149 2 0.208139 -3.20097 8.14411 12.0426
276 3 -0.833265 -1.10365 10.2116 11.0919
151 2 0.221567 -2.56861 8.03863 13.8686
183 2 0.261291 -0.960516 8.37636 11.4365
40 4 1.41753 -0.0198107 6.78305 15.4661
265 3 -0.749743 2.03345 6.82967 10.3935
37 4 0.997885 0.277611 6.87294 9.96342
264 3 -0.834884 -1.40723 6.74655 16.2903
150 2 0.158696 -3.89357 6.78582 13.2652
74 1 -0.676108 -4.84021 6.73697 10.4462
152 2 0.21048 -4.70339 13.3648 12.5219
75 1 -0.666251 -5.95713 9.21373 8.70742
91 1 -0.680864 7.62318 2.35745 6.02203
92 1 -0.678768 7.82492 5.72317 4.32969
118 2 -0.00433135 9.171 3.22311 5.19829
124 2 0.0191124 8.86841 4.22487 6.96295
125 2 -0.0336517 5.95415 4.10952 7.44807
192 2 0.138842 7.3338 2.90661 4.9946
193 2 0.155567 8.55331 1.71741 5.96775
194 2 0.143203 7.50339 2.9926 7.06254
195 2 0.184656 7.98652 4.69273 3.90547
367 2 0.189623 6.68214 6.54977 0.216347
202 2 0.156449 8.9907 5.88491 6.12983
278 3 -0.783682 8.76973 1.14642 3.44366
291 3 -0.782826 5.67689 5.40492 2.59439
366 1 -0.644227 7.91251 6.30234 0.319299
368 2 0.186117 8.25008 6.41816 1.42683
123 2 0.0124923 9.54412 5.43522 1.05465
169 2 0.116666 7.20223 4.71094 7.68355
253 3 -0.807426 5.7705 3.61829 0.53279
167 2 0.119106 8.15684 3.31476 8.58061
48 4 1.27328 9.80765 2.40768 3.87409
56 4 1.15831 6.32897 6.52602 3.47242
359 2 0.180152 4.82941 6.05548 0.101006
288 3 -0.863445 9.7844 3.53315 2.76433
352 2 0.160504 8.62929 0.896075 8.12291
24 4 1.10306 7.8712 0.556638 1.76024
201 2 0.144205 9.04924 6.53354 7.98992
196 2 0.0985174 7.21017 5.68703 5.36113
198 2 0.117948 5.51632 6.65676 5.58817
197 2 0.166728 8.71446 6.52514 4.25832
379 2 0.226848 9.76573 0.28416 0.213104
50 4 1.47612 13.1283 0.125186 7.64271
94 1 -0.678338 9.64009 6.01456 7.12473
289 3 -0.839158 11.5969 3.84574 1.01241
290 3 -0.818887 11.4845 5.60668 2.90613
281 3 -0.802068 11.2455 1.93318 4.22152
282 3 -0.85062 12.2833 0.906525 6.43033
324 4 1.34806 13.3964 0.576177 1.77299
49 4 1.36005 12.1374 2.77688 0.0108852
51 4 1.45954 12.1974 2.26192 5.63108
293 3 -0.812998 11.4476 3.48882 6.53918
58 4 0.873333 10.5315 4.28767 7.53815
55 4 1.36437 10.652 4.54611 2.01459
203 2 0.199905 10.6635 6.45676 6.86229
325 3 -0.867106 14.1222 1.40207 2.84289
280 3 -0.786992 13.7447 2.86163 5.1015
326 3 -0.871501 12.5673 1.50391 0.757496
32 4 1.1372 6.46341 2.94307 10.3506
39 4 1.21563 4.77494 4.29721 12.3756
53 4 1.46184 8.54824 2.77248 15.6257
81 1 -0.687875 7.9677 2.18232 11.1909
96 1 -0.690146 4.84017 6.00711 15.1672
127 2 0.00108811 5.60719 5.3366 13.4885
166 2 0.243975 8.18706 2.72277 12.163
207 2 0.172355 4.33258 5.65477 16.1596
208 2 0.172908 5.90559 5.5535 15.0716
209 2 0.120304 4.18731 5.75668 14.3179
261 3 -0.823284 6.00161 4.03946 11.354
283 3 -0.851574 8.13692 1.21059 15.4334
285 3 -0.814539 7.23478 3.53547 16.5918
168 2 0.174284 7.8747 4.9233 9.38268
295 3 -0.81685 8.49811 3.46714 13.9119
301 3 -0.780879 8.8404 5.85281 12.3819
164 2 0.136591 8.76921 2.37225 10.4047
26 4 1.52724 5.75104 2.69542 16.9944
165 2 0.14988 7.78997 1.04643 11.3005
30 4 1.18368 7.71306 0.216353 14.3403
126 2 0.00734988 5.85678 5.31898 8.68386
82 1 -0.675075 7.4221 4.16812 8.70312
163 2 0.239755 6.48184 2.25283 13.4892
138 2 0.166412 12.4448 4.22571 15.3485
54 4 1.23299 11.2435 2.40636 12.2741
279 3 -0.841622 13.2541 1.10389 8.85556
52 4 1.20739 13.0529 0.699041 14.3275
383 2 0.253803 7.02508 5.22226 17.1979
60 4 1.44912 9.57738 4.72835 13.4973
95 1 -0.67732 10.5058 3.99532 9.34756
41 4 1.24986 3.47962 6.66137 11.0433
121 2 -0.00507312 9.75906 1.62996 11.99
120 2 -0.0192349 13.9073 1.81894 15.3576
145 2 0.181405 11.2314 5.80672 10.0007
204 2 0.155871 9.71935 4.60689 9.96224
206 2 0.113262 9.97947 2.83796 9.0977
119 2 0.00127572 12.5448 3.33441 16.6651
205 2 0.199699 11.5017 3.97394 9.86739
284 3 -0.885411 9.9945 2.82346 16.2146
287 3 -0.82023 12.0291 1.60853 13.506
296 3 -0.804541 10.875 3.91528 12.6622
297 3 -0.853285 9.90967 5.60469 14.74
286 3 -0.8188 12.2669 2.23795 11.0337
9 4 1.24971 13.5461 2.10347 10.0973
317 3 -0.777319 14.3982 0.0687243 13.6097
363 2 0.127875 8.98962 0.122731 12.3848
42 4 1.21333 2.27736 9.43981 2.05041
44 4 1.0645 0.328798 11.7675 4.67814
64 4 1.41402 3.24147 11.6248 3.56046
93 1 -0.668343 4.97938 7.29571 4.77592
101 1 -0.679395 2.26557 9.66145 7.09709
372 2 0.104691 -0.156756 13.296 4.06246
223 2 0.235048 3.27904 9.87779 6.60329
268 3 -0.813393 2.52195 9.20374 0.507576
305 3 -0.804107 3.55237 9.89066 2.82866
306 3 -0.873807 3.11828 12.7589 2.22419
307 3 -0.857868 1.85583 11.4726 4.32044
312 3 -0.835069 4.52636 11.8837 4.51709
348 1 -0.668248 -0.124009 12.9956 0.976619
358 1 -0.66369 4.68094 7.16862 0.476885
350 2 0.18347 0.613484 12.9538 1.88522
199 2 0.203291 3.98293 6.94267 4.36922
384 2 0.242176 2.4606 12.2511 0.696556
216 2 0.269705 5.02629 9.94416 1.91799
360 2 0.196595 4.23403 7.2565 1.54209
114 2 0.00445152 1.14418 10.7279 2.20157
200 2 0.219593 4.98116 8.40243 4.98914
309 3 -0.80496 2.76817 12.2539 8.31003
314 3 -0.830772 5.18566 12.9102 6.98472
222 2 0.143794 2.16111 8.54617 7.26025
122 2 -0.00299192 3.90994 6.92849 6.37537
224 2 0.219823 1.42731 10.0591 6.49749
100 1 -0.676668 7.59405 10.14 8.34771
304 3 -0.831747 7.84797 10.1946 3.48703
20 4 1.35574 8.20913 11.1812 4.59691
217 2 0.177439 6.04765 9.51973 0.270104
303 3 -0.783486 8.60396 8.74869 0.972442
311 3 -0.875053 6.98842 11.8332 5.45971
373 2 -0.0373935 5.16017 13.3366 0.801007
377 2 0.166259 9.47309 8.8725 5.46057
131 2 0.137925 9.95426 7.60724 5.10108
308 3 -0.829904 6.16503 7.87637 7.91572
375 2 0.179518 9.72076 7.28337 3.15691
63 4 1.30998 7.42495 9.20148 2.22271
65 4 1.05462 6.5189 9.1687 7.08484
67 4 1.51194 5.50613 11.8561 5.8621
69 1 -0.659885 10.3693 7.7951 3.95406
99 1 -0.681316 6.05295 10.0912 1.30074
129 2 -0.00063037 7.81928 8.92457 5.91924
361 2 0.176569 5.64309 7.78005 0.393629
313 3 -0.782992 5.35193 10.1833 6.62689
218 2 0.174712 6.39927 11.1631 1.22122
302 3 -0.818818 6.88166 7.83952 2.81178
221 2 0.175781 7.41681 11.2039 8.1036
219 2 0.157377 8.73701 9.84333 8.34632
380 2 0.230568 0.586241 13.1359 7.85259
351 1 -0.659694 -0.392489 13.3067 8.32569
35 4 1.19077 2.30762 8.02409 16.8398
68 4 1.09907 1.95465 11.7431 15.5105
102 1 -0.669159 0.810029 11.908 17.0675
103 1 -0.640854 3.90808 10.0235 9.63384
116 2 0.0440808 2.38524 8.32161 14.2658
117 2 0.0129185 0.691285 12.0817 11.7643
130 2 0.0528007 2.48627 10.9654 16.9869
226 2 0.17181 0.238859 12.8507 16.4482
229 2 0.180589 3.317 9.38592 10.4006
299 3 -0.812837 3.60209 8.62213 15.4999
310 3 -0.829776 1.11772 10.6526 9.69318
315 3 -0.836585 1.35768 10.7441 14.506
316 3 -0.868291 2.84939 12.9511 15.1103
329 1 -0.671476 3.78473 10.9727 12.8163
334 2 0.209745 2.97195 11.6673 12.8556
335 2 0.184474 3.80159 10.277 13.7116
362 1 -0.674134 -0.132212 12.968 13.3037
333 2 0.162156 3.88755 10.4323 11.7977
225 2 0.186692 0.123194 11.0411 17.3234
45 4 1.23624 1.06419 9.2085 13.7846
364 2 0.207844 -0.341747 11.8271 13.2739
115 2 -0.0223194 3.54604 7.74593 12.3535
47 4 1.21926 0.497717 10.4515 11.1642
353 2 0.190309 -0.508098 12.9364 9.36619
228 2 0.227378 4.31846 9.43698 8.76847
277 3 -0.854289 1.16623 9.40236 12.2642
336 2 0.152826 7.75987 10.9443 14.1189
365 2 0.205999 0.776644 13.3542 13.8662
66 4 1.19771 2.39551 10.8341 8.73394
294 3 -0.838523 4.57261 7.04502 9.98847