ITEM: TIMESTEP
0
ITEM: NUMBER OF ATOMS
386
ITEM: BOX BOUNDS xy xz yz pp pp pp
-1.0522200000000000e+01 1.6607800000000001e+01 -9.4504999999999999e+00
0.0000000000000000e+00 1.3453600000000000e+01 -1.0717000000000001e+00
0.0000000000000000e+00 1.7350200000000001e+01 3.3999999999999998e-03
ITEM: ATOMS id type q x y z
8 4 1.05104 0.754202 1.14229 0.764666
12 4 1.53063 -0.0818407 4.18137 1.6339
107 2 0.0405419 -2.36935 3.09487 7.76222
15 4 1.0294 -1.16741 4.15984 7.23007
25 4 1.28958 5.03783 1.45635 3.71271
29 4 1.31455 6.20214 1.07248 6.29536
34 4 1.31268 1.07068 6.44611 3.6251
171 2 0.20708 -1.28514 6.52521 3.02632
36 4 1.18114 4.66432 3.68874 7.12072
38 4 0.997498 2.45237 5.40257 6.24071
70 1 -0.669738 0.060484 3.02138 6.17157
85 1 -0.687249 3.31042 3.67651 1.91932
104 2 0.00718882 -0.83384 2.2713 4.54776
340 2 0.163728 3.4433 0.344011 5.71756
33 4 1.34647 5.23541 3.90641 1.97764
111 2 0.019579 3.53936 1.88615 4.65836
113 2 0.0473052 1.46733 4.22673 6.88974
132 2 0.168186 -0.0847567 3.72967 5.26214
133 2 0.139255 -0.871991 2.14843 6.25726
134 2 0.168423 0.978815 2.29158 6.04884
339 2 0.183749 2.62726 1.99449 6.14893
176 2 0.19712 3.2324 2.57135 1.46098
177 2 0.220373 2.66121 4.3876 1.30418
178 2 0.211273 3.0166 3.72318 2.93939
230 3 -0.80182 1.9274 0.531582 1.56007
233 3 -0.83319 -1.40644 3.84914 2.51502
234 3 -0.832879 0.371042 2.64014 1.19328
235 3 -0.854549 -0.426935 5.13985 0.386417
374 2 0.197064 1.50837 0.611964 5.44844
237 3 -0.770138 -1.76465 5.3628 6.37516
170 2 0.253202 -1.06623 6.32376 4.99113
244 3 -0.806748 4.50543 0.475984 2.65197
247 3 -0.82649 6.12703 0.808563 4.73605
252 3 -0.818226 5.6266 2.84581 3.14645
254 3 -0.795757 0.949858 5.07609 2.43256
256 3 -0.849516 5.05779 2.24766 6.61541
258 3 -0.840678 1.67938 5.89417 4.95928
259 3 -0.831357 3.86135 4.82658 6.09226
338 1 -0.669634 2.4784 0.926581 6.01643
122 2 0.0131601 2.29124 6.6501 7.39199
24 4 1.117 7.94855 0.288003 1.59784
257 3 -0.794885 -0.248927 4.8181 8.35234
360 2 0.220655 3.12122 6.28547 1.55652
7 4 1.34502 -2.06633 2.69815 3.43431
245 3 -0.769668 7.23246 1.31356 0.656037
255 3 -0.822349 3.85338 3.45266 8.51607
358 1 -0.68152 3.75124 6.2891 0.604294
10 4 0.993579 1.49947 0.82805 13.3578
11 4 1.28582 -0.511523 2.56543 11.8472
150 2 0.185643 -3.95656 6.63566 12.9809
17 4 1.0391 -1.23168 4.54931 14.0734
28 4 1.25007 3.65448 2.23122 9.57804
354 1 -0.651803 0.526604 0.884235 16.4619
31 4 1.35114 3.3746 2.6638 15.0172
37 4 1.04705 0.438666 6.32755 9.43002
356 2 0.140373 -0.455093 0.936082 15.807
71 1 -0.697125 -0.981836 3.24607 15.4396
72 1 -0.692987 -3.85936 5.05531 16.0103
144 2 0.16214 -4.37016 5.82995 10.7687
78 1 -0.695501 0.766526 3.1968 10.4846
79 1 -0.685171 2.09802 3.70637 16.0701
80 1 -0.666048 5.94993 0.661602 13.4035
162 2 0.152221 6.32774 0.53123 12.2721
106 2 0.00360567 2.49681 0.46097 12.0489
108 2 0.00305067 -2.86525 5.01836 14.2544
112 2 0.0180477 2.67126 2.73658 10.8546
135 2 0.191576 -0.190277 2.62824 14.8048
136 2 0.130827 -2.00093 2.78773 15.6388
137 2 0.214497 -0.461826 3.64445 16.3602
138 2 0.133506 -3.09228 4.20035 15.9902
231 3 -0.798361 -1.78775 1.71848 10.8019
369 2 -0.0354483 -2.37009 4.11421 9.73572
163 2 0.247259 5.98814 1.75335 13.7934
155 2 0.237418 0.282541 3.80305 9.54536
156 2 0.162048 1.19054 2.14908 10.2066
157 2 0.212196 1.45673 3.93657 10.9185
158 2 0.171004 2.21034 3.71192 17.2675
159 2 0.181525 0.986228 3.55322 15.7762
160 2 0.171953 2.45303 4.70725 15.5633
14 4 1.33515 -2.42658 6.19475 17.0337
359 2 0.176146 2.524 5.34714 17.1646
260 3 -0.825097 4.03232 3.53471 13.7977
182 2 0.159113 -1.33684 5.65123 10.7811
262 3 -0.791414 -0.0169857 5.66307 14.4002
161 2 0.199248 5.08008 0.109453 13.6971
232 3 -0.85563 0.347897 1.6055 12.7152
238 3 -0.827665 -1.17725 3.75221 12.6462
246 3 -0.826637 2.86581 1.01455 8.94955
249 3 -0.822757 2.49831 1.46913 14.3626
250 3 -0.826367 4.59053 2.09716 15.9102
251 3 -0.806155 5.14867 1.91757 10.2115
265 3 -0.80028 1.83772 6.29197 10.2385
355 2 0.192624 1.15375 1.9158 16.2875
266 3 -0.857111 3.77728 5.17899 11.8715
74 1 -0.687415 -5.24872 6.57327 10.5826
370 2 0.0258575 -5.02389 6.58979 16.4642
140 2 0.163813 -4.47859 5.03176 16.9822
139 2 0.194442 -4.43959 5.16317 14.995
1 4 1.28744 -6.36571 13.0289 2.26151
2 1 -0.671228 -5.78349 11.6851 0.985634
381 2 0.105499 -1.88601 10.2077 0.174378
4 2 0.174231 -5.63491 10.6923 1.53237
5 2 0.176713 -4.97088 11.8821 0.188842
6 3 -0.81143 -7.04029 12.3586 3.55571
345 2 0.0809652 -2.07238 11.5201 1.71172
19 4 1.01899 -2.84804 8.24226 1.73734
27 4 1.21037 -1.65813 12.1867 7.6075
73 1 -0.661916 -3.94907 8.9772 0.47465
75 1 -0.660234 -5.35771 8.76619 8.3968
16 4 1.24274 -3.03307 6.73652 6.55643
84 1 -0.670293 -2.05545 8.28909 6.30228
86 1 -0.634293 0.679289 7.62658 8.07566
88 1 -0.64599 -0.652493 10.3034 3.88369
109 2 0.00864406 -1.57644 9.24895 2.61932
347 2 0.206894 -2.75341 12.5041 3.21787
221 2 0.143407 -7.52924 10.5675 7.2937
346 2 0.197573 -3.96962 12.0782 1.74299
142 2 0.114304 -3.7864 10.1155 0.802559
143 2 0.225049 -4.96837 8.53489 0.739195
147 2 0.192116 -5.50799 8.35998 7.35338
343 2 0.161463 -6.31906 11.0692 6.33556
172 2 0.172863 -0.780904 8.04424 4.12636
173 2 0.178544 -2.49855 8.58058 5.27461
174 2 0.159305 -0.892001 7.99275 6.22079
175 2 0.256238 -2.29011 9.04501 7.11594
179 2 0.159964 0.184888 7.15963 7.08889
114 2 -0.0077842 0.862414 10.0903 2.63375
185 2 0.0731846 -0.53611 11.229 2.91327
186 2 0.182414 -1.49248 10.4511 4.60936
187 2 0.139467 0.358207 9.68321 4.31151
382 2 0.184103 -3.2137 12.3675 0.114628
239 3 -0.801234 -3.81533 7.74341 2.91054
240 3 -0.809009 -2.2415 7.06383 0.820991
3 2 0.168512 -6.84933 11.6265 0.460418
267 3 -0.856245 1.84722 7.72404 3.02298
270 3 -0.76777 -2.15732 10.6824 8.30693
148 2 0.187879 -5.0413 9.86621 8.43666
320 2 0.0115777 -8.05557 12.2421 8.2527
319 1 -0.661698 -5.49148 12.1371 7.84716
321 2 0.182143 -5.16712 12.3224 6.72767
322 2 0.161742 -5.68745 11.0099 8.00524
13 4 1.35511 -4.79688 6.84525 3.88471
180 2 0.159039 1.6199 8.45188 7.67563
342 2 0.174986 -5.91224 10.3042 4.64522
318 4 0.871877 -6.88861 13.4211 7.82651
344 1 -0.629717 -2.8629 12.4201 2.08372
20 4 1.3298 -8.09873 11.4097 4.30115
341 1 -0.669516 -6.7542 10.5191 5.4098
236 3 -0.795432 -4.27072 6.80752 5.47826
349 2 0.158634 -0.478105 11.8141 0.0808876
272 3 -0.793066 -0.605446 12.0141 6.12477
241 3 -0.830399 -3.54089 6.78091 8.14744
248 3 -0.786635 -3.05598 13.1911 7.1226
83 1 -0.686538 -0.722833 6.92468 4.04206
323 2 0.261684 -4.70656 12.4966 8.59156
181 2 0.176678 -0.103354 8.38288 8.58286
21 4 1.08536 -4.13312 7.60648 9.32911
22 4 1.33367 -4.84773 8.88184 13.6437
23 4 1.02244 -5.29774 10.7701 11.0605
40 4 1.40728 -0.192324 7.15865 15.0021
43 4 1.45913 -2.41474 10.3585 9.98663
46 4 1.16701 -3.27508 10.9935 15.4217
76 1 -0.690685 -3.52199 7.5495 13.3882
77 1 -0.678599 -5.84135 12.2157 12.1574
89 1 -0.665854 -2.21593 10.0017 16.6344
90 1 -0.633514 -4.48962 12.3296 16.2588
110 2 0.0041875 -6.52968 10.6377 9.79814
184 2 0.230509 -0.367481 7.07314 11.7354
141 2 0.187144 -4.59587 8.73672 16.8065
149 2 0.204931 -2.90862 8.08466 12.5603
332 2 0.121991 -9.2916 12.4442 12.0475
151 2 0.236886 -2.88993 7.37299 14.3236
264 3 -0.853938 -1.9339 7.12408 15.8898
153 2 0.164859 -5.97131 11.9649 13.2544
154 2 0.0982723 -6.85088 12.3713 11.5642
152 2 0.190886 -5.0493 13.0207 12.011
183 2 0.251217 -1.69725 7.48018 10.4625
188 2 0.145687 -1.06604 10.4564 16.7211
189 2 0.252926 -2.19735 8.8718 16.2474
190 2 0.150994 -5.39413 11.5853 15.9734
191 2 0.252523 -4.48431 13.3413 15.7394
242 3 -0.830419 -5.95232 7.98776 14.3556
243 3 -0.789888 -5.33638 9.48057 12.1142
263 3 -0.846675 0.96572 7.36034 16.0719
371 2 -0.0114386 -8.51172 12.7483 13.8988
269 3 -0.770861 -2.94962 8.72654 10.1071
271 3 -0.800781 -3.88776 11.0468 10.3593
273 3 -0.823662 -0.0807563 8.27092 13.7365
274 3 -0.829465 -4.21487 10.0245 14.5352
275 3 -0.810746 -2.262 12.0016 14.7775
276 3 -0.870307 -1.09538 10.757 10.7572
146 2 0.199975 -5.49136 7.16836 11.4718
386 2 0.16395 -9.53233 12.6642 15.5051
378 2 0.125197 -6.20734 8.53802 9.12755
87 1 -0.671501 -0.89721 6.74038 10.7484
357 2 0.171162 -8.31398 13.3791 16.2789
168 2 0.150349 7.21965 3.39179 8.29499
105 2 -0.0401548 16.0015 0.219333 1.12832
48 4 1.32253 9.59131 2.38287 3.68299
50 4 1.49449 13.4759 0.45071 7.21256
51 4 1.53118 12.1563 2.48426 5.30588
55 4 1.32768 10.7632 4.56785 2.08993
196 2 0.161694 8.48498 5.84556 5.30738
58 4 0.838912 10.6357 4.54973 7.44766
91 1 -0.662678 7.84424 2.24904 6.74542
92 1 -0.672128 7.82217 5.50922 4.37328
94 1 -0.646345 9.79339 6.35735 6.77424
118 2 0.010902 8.53659 2.92069 5.01419
325 3 -0.882017 14.1662 1.27579 2.76058
123 2 -0.00403305 10.02 5.61819 0.92625
124 2 0.025924 8.8735 4.73899 6.80212
125 2 -0.0172482 6.08446 4.61777 7.48282
279 3 -0.74482 13.476 1.77847 8.55076
368 2 0.174661 8.50958 6.29118 1.67593
366 1 -0.667684 8.12795 6.14789 0.63553
192 2 0.127996 7.49626 3.16722 6.1327
193 2 0.157149 8.43599 1.44814 6.12724
194 2 0.147956 8.66488 2.67318 7.57495
195 2 0.177603 7.42752 4.49358 4.57102
361 2 0.19115 4.82567 6.55318 0.832676
326 3 -0.870224 12.3326 1.15886 0.757906
126 2 -0.0136604 6.54241 6.00452 8.50197
203 2 0.16077 10.8736 6.45335 7.29125
49 4 1.30251 11.992 2.54809 0.13339
253 3 -0.853179 5.90195 3.74624 0.524202
278 3 -0.793085 8.87155 1.02509 3.03607
280 3 -0.825378 13.5106 3.14325 4.46342
281 3 -0.858065 10.9172 2.07187 4.40931
282 3 -0.847844 12.632 1.19207 6.13399
288 3 -0.86237 9.68147 3.72558 2.79777
289 3 -0.848201 11.7085 3.64338 1.239
290 3 -0.805114 11.5799 5.49143 3.16678
291 3 -0.766094 5.64481 5.36439 2.67885
293 3 -0.762077 11.4515 3.72735 6.40395
324 4 1.28685 13.275 0.37271 1.83521
197 2 0.198222 8.41711 5.38831 3.40841
56 4 1.1022 6.26477 6.55433 3.64763
199 2 0.246604 3.90439 6.66773 4.50371
383 2 0.206018 8.50472 5.25604 0.0429061
352 2 0.181161 8.66743 0.869598 8.6161
367 2 0.200428 6.99248 6.30068 0.526156
198 2 0.142083 5.41955 6.68161 5.82591
9 4 1.19502 13.7105 2.5802 10.1301
26 4 1.52422 5.6589 2.66391 16.9899
32 4 1.13409 6.33707 2.86977 10.7136
39 4 1.31348 4.78035 4.49523 12.792
206 2 0.186878 10.2209 2.30394 8.8185
52 4 1.23476 12.6359 0.78871 14.2688
53 4 1.5218 8.37281 2.647 15.5033
54 4 1.23086 11.3662 2.82365 12.1944
60 4 1.4343 9.43672 4.65887 13.5876
317 3 -0.750481 14.1062 0.0815857 13.8956
81 1 -0.660359 8.0107 1.87964 10.9846
82 1 -0.693188 6.89811 4.18736 9.18886
301 3 -0.765975 8.54295 5.79398 12.5087
96 1 -0.705067 4.80258 5.76537 15.745
119 2 -0.0227132 12.2083 3.21099 16.5359
120 2 -0.0570465 12.9708 1.77518 15.5514
121 2 0.00431078 9.82602 2.24008 11.6017
127 2 0.0021113 5.48748 5.59177 13.8686
385 2 0.281624 15.1771 0.0828172 11.3045
145 2 0.132272 10.4477 6.01295 10.1598
164 2 0.154276 8.84551 2.3869 10.2369
165 2 0.146738 8.01031 0.685454 10.9483
166 2 0.204915 8.10494 2.25328 12.0881
169 2 0.162611 7.69446 4.83736 9.5736
95 1 -0.685515 9.9992 3.41478 8.89553
205 2 0.161818 10.6933 4.00185 9.64882
204 2 0.139378 8.81314 3.63316 9.04063
207 2 0.228393 4.49516 5.46734 16.7699
208 2 0.188 5.8277 5.31403 15.4889
209 2 0.13431 4.02445 5.56385 14.8905
261 3 -0.79765 5.96049 3.68729 12.0829
365 2 0.188001 9.8712 0.515728 12.6965
283 3 -0.820145 8.11092 1.1133 15.0638
284 3 -0.849741 9.69087 2.56936 16.457
285 3 -0.848815 7.06585 3.24228 16.354
286 3 -0.823154 12.2952 2.86174 10.895
287 3 -0.846993 11.9482 1.72254 13.2439
379 2 0.254996 8.22975 0.183486 16.9538
295 3 -0.849673 8.53269 3.46069 13.9717
296 3 -0.817539 10.9898 4.24232 12.9011
297 3 -0.83035 9.78332 5.57672 14.9525
41 4 1.24589 3.34251 6.46096 10.8874
167 2 0.166138 5.81947 4.61935 9.21477
377 2 0.137626 9.20796 9.64596 5.64375
42 4 1.27264 2.26332 9.10636 2.36126
44 4 1.04561 0.305744 11.8701 4.88808
63 4 1.30824 7.41124 9.25538 2.12368
64 4 1.42257 3.29973 11.4801 3.7848
65 4 1.0004 6.66732 9.73833 8.00197
350 2 0.188032 0.81326 12.878 1.04924
67 4 1.47444 5.68682 11.9781 5.9124
69 1 -0.674252 10.1174 7.72919 3.80667
93 1 -0.648357 4.92027 7.10253 4.78539
99 1 -0.652004 5.81924 9.78835 1.29012
384 2 0.209789 2.09511 12.4061 0.434549
101 1 -0.652105 2.84506 9.87815 6.9583
129 2 0.00281296 8.03323 9.0511 7.15595
202 2 0.178893 9.91673 6.9179 5.61298
66 4 1.12539 2.79403 11.1947 8.47506
201 2 0.118783 8.98971 6.89765 7.36817
200 2 0.210366 4.90736 8.24764 4.78885
216 2 0.264949 5.01719 9.81605 2.0938
131 2 0.17419 10.0094 8.67219 4.48738
218 2 0.135059 6.18262 10.8693 0.981924
376 2 0.183032 10.075 8.01934 2.68737
222 2 0.184281 1.77882 9.68854 6.56173
223 2 0.162076 3.33015 8.9882 7.40344
268 3 -0.82514 2.57846 9.04506 0.837026
302 3 -0.783497 6.92013 7.91441 2.85181
303 3 -0.776145 8.41927 8.8552 0.835025
304 3 -0.813886 7.96453 10.4193 3.2339
305 3 -0.812122 3.42963 9.84444 3.15382
306 3 -0.863021 3.14585 12.5531 2.55602
307 3 -0.796594 1.86213 11.5145 4.82519
309 3 -0.790878 3.11712 12.5742 7.68606
311 3 -0.781349 7.26509 12.1555 5.19169
312 3 -0.838262 4.6185 11.6592 4.74967
313 3 -0.820334 5.88624 10.6468 6.89549
373 2 -0.0417341 4.86878 13.0989 0.787957
348 1 -0.679252 -0.177825 12.884 0.49566
224 2 0.26682 3.4485 10.3765 6.18978
372 2 0.0836738 -0.0122867 13.165 3.89979
217 2 0.249655 5.45446 9.1675 0.271024
314 3 -0.852844 5.48463 13.4194 6.8266
380 2 0.213628 0.505717 12.9525 8.21649
100 1 -0.62727 8.69418 10.3234 8.46782
375 2 0.164408 9.24401 6.90531 4.02179
18 4 1.26023 10.1875 7.00845 15.5687
35 4 1.23162 2.06334 7.84846 17.1082
353 2 0.164726 -0.69558 12.9214 9.79174
45 4 1.24396 1.11569 9.20093 13.2534
57 4 1.25466 7.62784 7.74363 16.9781
130 2 0.166397 2.26212 10.9166 17.0425
61 4 1.08709 4.82 7.64048 15.4386
68 4 1.06904 1.4213 11.7536 15.1581
97 1 -0.688198 4.53535 7.77632 13.4586
98 1 -0.665238 8.0496 8.67569 12.7798
102 1 -0.656223 1.04883 11.5017 17.0365
103 1 -0.679701 4.17819 10.957 9.68215
115 2 -0.00384975 3.22764 7.7606 11.9954
116 2 0.00829727 2.60149 8.33122 13.5362
117 2 0.00249934 0.929839 12.1364 11.5924
30 4 1.13569 -1.84175 13.3902 14.0339
210 2 0.120232 3.66091 7.01115 13.4516
211 2 0.178135 5.40925 7.38722 12.8833
212 2 0.159551 4.28767 8.88914 13.1642
59 4 1.25667 5.98117 7.18233 9.57512
214 2 0.229157 7.87639 8.09904 13.7564
215 2 0.159936 7.15176 9.32251 12.543
128 2 -0.0208207 9.55557 7.40556 10.6058
220 2 0.0632438 7.58865 10.9829 9.22586
47 4 1.25637 0.497213 10.6899 10.7851
226 2 0.0708835 -0.149965 12.2842 15.7473
227 2 0.176139 4.90167 11.753 9.2333
62 4 1.05627 8.20531 7.13105 11.6707
229 2 0.178485 4.02666 11.0584 10.8691
292 3 -0.855339 9.18725 7.59091 16.6648
298 3 -0.762556 6.47645 8.04609 15.6718
299 3 -0.808362 3.71444 8.3786 16.2266
228 2 0.179626 4.41959 9.8744 9.37072
310 3 -0.77841 1.32038 10.9151 9.36864
315 3 -0.858696 1.30457 10.4606 14.2021
316 3 -0.835877 2.29745 13.0013 14.7698
327 4 0.888751 5.3693 12.1414 13.389
328 1 -0.644094 6.20068 12.4206 11.6894
329 1 -0.655864 3.81517 10.8273 12.839
330 1 -0.636983 6.67135 11.7416 14.8662
331 2 0.150043 5.99347 11.582 10.9438
219 2 0.129575 8.92393 9.2675 8.84288
333 2 0.141695 4.12982 10.1039 12.0341
334 2 0.199394 2.81386 11.3018 12.6046
335 2 0.156129 3.99318 10.3965 13.9068
308 3 -0.885977 6.14503 8.47725 8.74765
337 2 0.167802 5.99386 11.018 15.4246
362 1 -0.677421 -0.347603 13.1283 12.7323
300 3 -0.865122 6.94053 7.08507 10.7926
213 2 0.195984 9.15237 9.13199 12.7152
363 2 0.137514 -0.921559 13.0551 11.6606
277 3 -0.839636 1.09449 9.52037 11.607
364 2 0.173442 0.0781193 12.1209 13.0291
336 2 0.146872 7.51458 11.0808 14.3042
294 3 -0.853249 4.47815 6.74917 9.91359
225 2 0.173669 0.184198 10.7686 17.207
351 1 -0.669054 -0.591782 13.2345 8.69114
ITEM: TIMESTEP
100
ITEM: NUMBER OF ATOMS
386
ITEM: BOX BOUNDS xy xz yz pp pp pp
-1.0527983400000000e+01 1.6607800000000001e+01 -9.4562834000000002e+00
0.0000000000000000e+00 1.3453600000000000e+01 -1.0717000000000001e+00
0.0000000000000000e+00 1.7350200000000001e+01 3.3999999999999998e-03
ITEM: ATOMS id type q x y z
8 4 1.03394 0.723493 1.02082 0.650422
12 4 1.42625 -0.140477 4.10596 1.58157
107 2 0.0886493 -2.15669 2.98655 7.62711
15 4 1.03761 -1.06126 4.31044 7.19577
25 4 1.30494 5.20303 1.48945 3.76039
29 4 1.31407 6.42084 1.15164 6.38641
34 4 1.31163 1.11281 6.10348 3.51491
171 2 0.244598 -1.38448 6.18826 2.91174
36 4 1.15819 4.66575 3.64888 7.12176
38 4 1.02555 2.39711 5.19273 6.23431
70 1 -0.673085 -0.0854349 2.92013 6.24305
85 1 -0.671392 3.34151 3.64993 1.8871
104 2 0.00583072 -0.67002 2.33867 4.45056
340 2 0.162132 3.49345 0.291092 5.6875
33 4 1.36516 5.25352 3.94224 1.98553
111 2 0.0419816 3.72042 1.88093 4.67117
113 2 0.0362341 1.39281 3.97199 6.9514
132 2 0.152417 -0.108201 3.74011 5.25148
133 2 0.154799 -1.10297 2.20439 6.36716
134 2 0.165603 0.887698 2.19633 6.15877
339 2 0.181137 2.68272 2.07154 6.08748
176 2 0.19985 3.3056 2.56063 1.43472
177 2 0.211866 2.86724 4.39511 1.2665
178 2 0.228233 2.91875 3.62089 2.88361
230 3 -0.814758 1.90939 0.378379 1.48533
233 3 -0.81603 -1.54507 3.91916 2.39548
234 3 -0.799119 0.339184 2.60262 0.912735
235 3 -0.840471 -0.194742 5.27218 0.290002
374 2 0.210114 1.57251 0.653253 5.48841
237 3 -0.786736 -1.71028 5.32517 6.20919
170 2 0.271751 -1.1156 6.08561 4.79698
244 3 -0.833878 4.4486 0.60018 2.74171
247 3 -0.81609 6.34752 0.831603 4.80082
252 3 -0.849076 5.66238 2.76737 3.03216
254 3 -0.819195 0.957261 4.71046 2.68493
256 3 -0.850912 5.16896 2.14181 6.58783
258 3 -0.840374 1.77902 5.71155 4.96793
259 3 -0.837784 3.78348 4.5823 6.07341
338 1 -0.662661 2.49189 0.977341 5.96784
122 2 0.0190776 2.23711 6.48567 7.36515
24 4 1.09575 7.9474 0.29637 1.65178
257 3 -0.816018 -0.207873 4.82456 8.47342
360 2 0.220679 2.53999 6.37109 1.29732
7 4 1.30803 -2.00666 2.67803 3.43385
83 1 -0.655597 -0.721605 6.5247 3.81574
255 3 -0.836601 3.78099 3.49799 8.5063
358 1 -0.677651 3.42664 6.37698 0.502624
241 3 -0.808252 -3.50674 6.67218 8.16763
236 3 -0.770613 -4.17648 6.72235 5.41
140 2 0.200016 -3.16561 4.82784 0.0631636
10 4 1.00768 1.54246 0.76865 13.2639
11 4 1.29957 -0.592363 2.40272 11.8135
150 2 0.165227 -3.94132 6.66471 12.9842
17 4 1.03385 -1.18752 4.54398 14.1462
28 4 1.1687 3.72513 2.34092 9.60243
354 1 -0.648221 0.378519 0.971058 16.3193
31 4 1.32073 3.34088 2.66478 14.9522
37 4 1.05805 0.505464 6.3505 9.34278
356 2 0.144857 -0.622143 0.946288 15.7131
71 1 -0.712628 -1.31202 3.14851 15.4572
72 1 -0.694224 -3.68516 5.01011 16.3703
144 2 0.16918 -4.25698 5.67616 10.6357
78 1 -0.680433 0.866193 3.15411 10.6967
79 1 -0.669429 2.05751 3.71336 16.0558
80 1 -0.664754 5.80692 0.63818 13.2489
162 2 0.175089 6.11489 0.205413 12.1685
106 2 -0.00641927 2.60103 0.311547 12.0362
108 2 0.00790344 -2.70211 5.2024 14.6546
112 2 0.0502628 2.82782 3.24791 10.7548
135 2 0.20399 -0.864502 2.32349 14.7496
136 2 0.150871 -2.16236 2.75723 16.0339
137 2 0.215848 -0.581738 3.64616 16.1638
138 2 0.151592 -2.80082 4.16948 16.1272
231 3 -0.81396 -1.74305 1.76447 10.9037
369 2 -0.0126897 -2.27488 4.09155 9.92526
163 2 0.239736 5.65919 1.68938 13.329
155 2 0.242905 0.407994 3.81193 9.88088
156 2 0.166302 1.44847 2.16914 10.241
157 2 0.206571 1.40932 3.71806 11.485
158 2 0.17736 2.20653 3.63118 17.2033
159 2 0.202179 0.945594 3.81754 15.8478
160 2 0.175962 2.58693 4.69525 15.6752
14 4 1.31781 -2.32511 6.28923 17.1075
139 2 0.17483 -4.46069 5.23156 15.5403
260 3 -0.871483 3.79289 3.54965 13.7762
182 2 0.208183 -0.938272 5.7213 11.2207
262 3 -0.774813 0.12492 5.59359 14.4998
161 2 0.184684 4.92435 0.0274819 13.7235
232 3 -0.833936 0.278845 1.44629 12.6799
238 3 -0.783029 -1.14091 3.87555 12.7218
246 3 -0.769216 2.75261 1.04161 8.94426
249 3 -0.817078 2.29441 1.54688 14.3229
250 3 -0.807506 4.67249 2.00048 15.8536
251 3 -0.783246 5.14445 1.76331 10.3505
265 3 -0.789938 1.89496 6.35158 10.0847
355 2 0.216653 1.03054 2.00119 16.2001
266 3 -0.867432 3.74193 5.25436 11.7405
74 1 -0.659684 -5.08299 6.53575 10.6094
370 2 0.00318015 -5.07517 6.48636 16.6559
87 1 -0.675295 -0.710732 6.72072 10.8633
359 2 0.185371 2.29651 5.45494 17.1811
357 2 0.168233 1.07886 0.0813645 16.1197
1 4 1.2944 -6.35616 13.1536 2.34781
2 1 -0.664985 -5.70085 11.6169 1.36805
381 2 0.108171 -1.42309 10.3585 0.260621
4 2 0.161993 -5.35388 10.8796 2.17919
5 2 0.177226 -4.86906 11.7925 0.551606
6 3 -0.798822 -7.08988 12.5564 3.73446
345 2 0.128602 -2.10644 11.3048 1.84317
19 4 1.05325 -2.87884 8.24327 1.70296
27 4 1.24333 -1.51436 12.1167 7.51531
73 1 -0.687184 -3.98278 9.29196 0.642742
75 1 -0.664164 -5.15839 8.8255 8.21212
16 4 1.20807 -2.99833 6.74756 6.57148
84 1 -0.688121 -2.13882 8.35772 6.29699
86 1 -0.643573 0.728908 7.65047 8.00824
88 1 -0.651841 -0.653664 10.0445 3.80779
109 2 0.0327259 -1.52818 9.33933 2.35619
347 2 0.177213 -2.46975 12.4387 3.30001
221 2 0.153125 -7.60888 10.5839 7.46843
346 2 0.196247 -3.8279 12.1103 1.89482
142 2 0.124286 -3.47227 10.3082 0.968508
143 2 0.20403 -5.04874 9.20796 0.945968
147 2 0.193939 -5.23061 8.33034 7.19842
343 2 0.162951 -6.45805 11.1329 6.26427
172 2 0.1739 -0.682364 7.7188 3.93891
173 2 0.190336 -2.62203 8.75159 5.35587
174 2 0.16422 -1.09102 7.97025 6.14901
175 2 0.2747 -2.19188 9.15716 7.2085
179 2 0.144164 0.343489 6.92372 7.15837
114 2 -0.00887106 0.662804 10.0455 2.34633
185 2 0.0763518 -0.591076 11.1761 3.3321
186 2 0.194035 -1.21038 10.0846 4.72568
187 2 0.157628 0.349819 9.57151 4.01516
382 2 0.171818 -3.11181 12.1448 0.159069
239 3 -0.771819 -3.83678 7.78535 2.9523
240 3 -0.852005 -2.06824 7.23427 0.88726
3 2 0.192131 -6.74243 11.2892 0.885324
267 3 -0.822178 1.55166 7.64536 2.84024
270 3 -0.79499 -2.13437 10.5813 8.21543
148 2 0.169511 -4.77449 9.97518 8.10446
320 2 0.0262634 -8.21479 12.329 8.13011
319 1 -0.669925 -5.54905 12.1123 7.85106
321 2 0.172264 -5.07497 12.4128 6.77972
322 2 0.159509 -5.70034 10.9473 7.91857
13 4 1.33542 -4.91102 6.82048 3.86661
180 2 0.169965 1.71137 8.41179 7.6599
342 2 0.153916 -6.01989 10.3162 4.65491
318 4 0.852325 -6.846 13.433 7.73458
344 1 -0.680995 -2.64329 12.2173 2.10401
20 4 1.34862 -8.12419 11.4192 4.24593
341 1 -0.660448 -6.91156 10.4898 5.40144
181 2 0.175374 -0.0560197 8.37182 8.58034
349 2 0.162072 -0.418264 11.8478 0.190483
272 3 -0.807141 -0.592534 11.9008 6.15342
248 3 -0.783158 -2.81644 13.2406 7.19422
21 4 1.05984 -4.03372 7.72362 9.32969
22 4 1.24538 -4.87907 8.73658 13.6842
23 4 0.98294 -5.31146 10.6123 11.0321
40 4 1.40062 -0.171999 7.14828 15.0129
43 4 1.45511 -2.45577 10.3617 9.84653
46 4 1.11571 -3.29575 11.0379 15.5698
76 1 -0.688043 -3.42018 7.58733 13.3221
77 1 -0.67594 -6.14118 11.9286 12.0015
89 1 -0.676947 -1.98795 10.0652 16.6259
90 1 -0.657196 -4.57666 12.2375 16.4111
110 2 0.0119708 -6.58351 10.6003 9.76352
184 2 0.245225 -0.000619526 7.27459 11.5834
141 2 0.180179 -4.86838 8.96904 16.9437
149 2 0.221923 -2.76216 8.09272 12.5168
332 2 0.149506 -9.10804 12.4103 11.9875
151 2 0.249652 -2.81354 7.45546 14.3408
264 3 -0.847877 -1.93836 7.22045 15.8414
153 2 0.163377 -6.14139 11.6612 13.1295
154 2 0.120007 -7.18326 12.0271 11.548
152 2 0.180486 -5.41151 12.8614 11.6921
183 2 0.243759 -1.58579 7.37957 10.5839
188 2 0.169621 -0.902538 10.3611 16.602
189 2 0.26626 -2.07001 8.91672 16.3653
190 2 0.155711 -5.45591 11.483 16.1385
191 2 0.258091 -4.69446 13.3088 16.058
242 3 -0.80733 -6.02239 8.01128 14.5885
243 3 -0.779593 -5.40166 9.30696 12.1825
263 3 -0.850179 1.0305 7.62243 15.9697
371 2 -0.00618734 -8.22561 12.7168 13.908
269 3 -0.802182 -2.82418 8.70676 10.0227
271 3 -0.780431 -3.83487 11.1427 10.5317
273 3 -0.820085 -0.0650924 8.11242 13.6978
274 3 -0.759208 -4.07899 10.0204 14.6445
275 3 -0.773812 -2.32161 12.1659 14.6948
276 3 -0.853023 -1.09518 10.7675 10.5484
146 2 0.191706 -5.23421 7.01918 11.6441
386 2 0.145139 -9.48887 12.7051 15.3727
378 2 0.109815 -6.11729 8.65948 8.89723
323 2 0.235214 -4.88656 12.5645 8.70182
168 2 0.137575 7.21561 3.50681 8.33488
367 2 0.208076 6.78 6.49064 0.914015
48 4 1.28417 9.57181 2.42211 3.76244
50 4 1.51464 13.5053 0.470177 7.23914
51 4 1.52561 12.3068 2.52725 5.31118
55 4 1.31812 10.6984 4.43552 1.95841
196 2 0.157861 8.35409 5.80825 5.58241
58 4 0.821566 10.6073 4.4607 7.52771
91 1 -0.70007 7.94982 2.38498 6.79886
92 1 -0.695375 7.69754 5.42139 4.6559
94 1 -0.667368 9.6829 6.38472 6.99532
118 2 -0.0048233 8.44773 3.01856 5.03545
325 3 -0.864783 14.2826 1.34099 2.64817
123 2 0.0278783 9.70876 5.36915 0.845217
124 2 0.0344039 8.86814 4.78038 6.84287
125 2 -0.0238507 6.03223 4.67289 7.47202
279 3 -0.777687 13.6917 1.85977 8.4552
368 2 0.150825 8.43644 6.09562 1.8123
366 1 -0.662328 7.92555 6.21975 0.767007
192 2 0.122881 7.70812 3.34477 6.16161
193 2 0.139681 8.67954 1.72036 6.17173
194 2 0.162882 8.44243 2.62932 7.74773
195 2 0.14952 7.01294 4.54561 4.95315
361 2 0.203264 4.45398 6.43766 1.07824
326 3 -0.870091 12.4214 1.14165 0.71397
126 2 -0.010701 6.56118 5.97963 8.53034
203 2 0.147734 10.8328 6.41213 7.4443
49 4 1.31534 11.9512 2.55211 0.0712005
253 3 -0.838861 5.78742 3.74835 0.478582
278 3 -0.769569 8.95946 1.06357 3.06149
280 3 -0.84 13.5697 3.14111 4.54628
281 3 -0.829051 10.962 2.08745 4.33292
282 3 -0.848024 12.7501 1.21581 6.05912
288 3 -0.852169 9.59278 3.50856 2.56897
289 3 -0.865345 11.8036 3.77142 1.05733
290 3 -0.825764 11.2988 5.58785 3.00731
291 3 -0.787978 5.44955 5.40716 2.58435
293 3 -0.756367 11.5908 3.64796 6.5078
324 4 1.27346 13.2502 0.333617 1.85408
197 2 0.171826 8.31605 5.21037 3.73805
56 4 1.05645 6.32009 6.51954 3.695
383 2 0.245138 8.0609 5.28948 0.0994579
199 2 0.225867 4.14844 6.64524 4.93037
245 3 -0.771023 7.30128 1.3742 0.620425
202 2 0.18183 9.82072 6.71149 5.90556
105 2 -0.0441313 16.0122 0.00176532 0.934497
352 2 0.197027 8.17634 0.856603 8.62129
9 4 1.22718 13.6794 2.52 10.0987
26 4 1.49436 5.65261 2.68228 16.9946
32 4 1.14253 6.34416 2.80971 10.9019
39 4 1.26119 4.6319 4.45768 12.8384
206 2 0.184322 10.2197 2.48232 9.11143
52 4 1.25221 12.6678 0.810188 14.2839
53 4 1.53123 8.33059 2.75479 15.5521
54 4 1.28288 11.317 2.58209 12.19
60 4 1.47219 9.44897 4.7481 13.5834
317 3 -0.750823 14.0976 0.175322 13.745
81 1 -0.679599 8.0072 1.90883 11.0682
82 1 -0.680513 6.70382 4.1568 9.24549
301 3 -0.816532 8.718 5.89408 12.6295
96 1 -0.689668 4.76164 5.86231 15.6805
119 2 -0.00191587 12.3232 3.14743 16.6732
120 2 -0.0542004 12.9281 1.71764 15.6869
121 2 0.00492767 9.90728 1.77079 11.5901
127 2 0.000564381 5.43653 5.64577 13.797
167 2 0.174381 5.61716 4.49785 9.04779
145 2 0.14105 10.6053 6.11885 10.1142
164 2 0.157286 8.72982 2.42 10.2578
165 2 0.162683 7.94824 0.742134 10.9384
166 2 0.19157 8.23387 2.25765 12.1856
169 2 0.167299 7.39135 4.92385 9.77323
95 1 -0.677027 9.9461 3.56254 9.02698
205 2 0.161922 10.6367 4.23529 9.76533
204 2 0.131401 8.64788 3.76305 9.16349
207 2 0.199249 4.44218 5.91634 16.7626
208 2 0.218173 5.60059 5.15776 15.5231
209 2 0.128053 3.81126 5.81671 14.9558
261 3 -0.833614 5.86985 3.67238 12.0374
30 4 1.15996 7.46348 0.101361 14.0013
283 3 -0.819571 7.97197 1.28824 15.0021
284 3 -0.87554 9.6498 2.62918 16.4522
285 3 -0.830413 6.93108 3.55404 16.3965
286 3 -0.816524 12.3555 2.66442 10.9002
287 3 -0.865564 12.0084 1.78325 13.2834
379 2 0.226121 8.58461 0.179177 17.284
295 3 -0.847041 8.59811 3.54821 14.1258
296 3 -0.785295 10.8578 4.03469 12.6169
297 3 -0.841505 10.0059 5.46678 14.971
41 4 1.2512 3.37516 6.45946 10.8459
377 2 0.136678 9.23921 9.4833 5.77876
42 4 1.26152 2.08207 9.0953 2.35133
44 4 0.974441 0.363517 11.8251 4.77288
63 4 1.25585 7.24322 9.29694 2.02816
64 4 1.46634 3.29653 11.4602 3.84147
65 4 1.0137 6.62487 9.85303 7.89249
350 2 0.172847 0.677381 12.7367 1.51632
67 4 1.55252 5.76949 12.0167 5.68418
69 1 -0.653849 10.0546 7.62211 3.96992
93 1 -0.644665 5.17393 7.16923 5.08489
99 1 -0.677071 5.62596 9.97664 1.28389
384 2 0.199786 2.37794 12.3528 0.212792
101 1 -0.671256 2.88286 9.92486 7.09353
129 2 0.000502176 8.14409 9.13049 7.21787
198 2 0.141062 5.80262 6.79401 5.98675
66 4 1.1124 2.69198 11.3307 8.49739
201 2 0.131943 9.0254 7.08366 7.58916
200 2 0.214681 5.24147 8.30598 4.85246
216 2 0.270203 4.75155 9.83917 2.07392
131 2 0.161394 10.0408 8.65684 4.62866
218 2 0.142478 5.91015 11.0637 1.1245
376 2 0.181666 9.88533 7.96642 2.86882
222 2 0.201861 1.86674 9.98817 6.63665
223 2 0.16595 3.09065 8.91955 7.60425
268 3 -0.824193 2.55268 9.00238 0.907241
302 3 -0.772378 6.8211 7.84361 2.84495
303 3 -0.785204 8.49463 9.04386 0.789696
304 3 -0.793452 7.83647 10.3404 3.12233
305 3 -0.797269 3.30067 9.80071 3.1783
306 3 -0.864442 3.10021 12.6758 2.76075
307 3 -0.834331 1.89108 11.4239 4.71628
309 3 -0.80601 3.12657 12.8884 8.05281
311 3 -0.834541 7.33404 12.0382 5.0769
312 3 -0.868799 4.69903 11.5937 4.63739
313 3 -0.810788 5.88336 10.7222 6.78868
373 2 -0.0403479 4.82726 12.9069 0.882274
348 1 -0.66853 -0.13769 12.8477 0.67981
224 2 0.250164 3.68281 10.2184 6.34078
372 2 0.097794 0.169587 13.3431 3.97256
217 2 0.251192 5.39678 9.40103 0.255155
375 2 0.159227 9.10637 6.83286 4.27844
380 2 0.18154 0.336377 13.4111 8.17124
100 1 -0.620904 8.58746 10.4499 8.53534
314 3 -0.877538 5.36649 13.2895 6.57703
18 4 1.26976 10.1834 6.8369 15.7209
35 4 1.23898 2.10538 8.00233 17.0426
353 2 0.180204 -0.612687 12.8785 9.69462
45 4 1.24855 1.03273 9.26319 13.3397
57 4 1.30535 7.62651 7.74661 17.1839
130 2 0.165177 2.21446 10.7541 16.8313
61 4 1.10625 4.95491 7.73805 15.4391
68 4 1.07175 1.31435 11.8286 15.0733
97 1 -0.694979 4.5584 7.93591 13.4332
98 1 -0.654991 7.95552 8.64866 12.9239
102 1 -0.670483 1.14729 11.4644 16.965
103 1 -0.640208 4.10368 11.0193 9.69552
115 2 0.00205001 3.42179 7.9074 11.8013
116 2 0.0129312 2.65081 8.49361 13.4427
117 2 0.00642785 0.85462 12.0906 11.7286
385 2 0.254234 6.09775 13.2295 11.1101
210 2 0.126992 3.72909 7.17341 13.3315
211 2 0.171494 5.57276 7.65129 12.9478
212 2 0.169279 4.31039 9.0063 13.2221
59 4 1.21494 5.92922 7.21643 9.52427
214 2 0.228158 7.78808 7.9832 13.9358
215 2 0.161216 7.14226 9.40068 12.6549
128 2 0.00883722 9.82939 7.44689 10.9906
220 2 0.0581584 7.15634 11.2486 9.1026
47 4 1.27874 0.461618 10.6849 10.7873
226 2 0.0579067 -0.226484 12.2559 15.8555
227 2 0.182264 4.90542 11.7525 9.31933
62 4 1.03633 8.26575 7.20239 11.8089
229 2 0.182148 4.01198 11.0699 10.8737
292 3 -0.871698 8.97066 7.21462 16.6287
298 3 -0.769793 6.4999 7.9727 15.8615
299 3 -0.814847 3.83486 8.49246 16.2418
228 2 0.184267 4.23037 9.8624 9.26481