ITEM: TIMESTEP
0
ITEM: NUMBER OF ATOMS
386
ITEM: BOX BOUNDS xy xz yz pp pp pp
-1.0522200000000000e+01 1.6607800000000001e+01 -9.4504999999999999e+00
0.0000000000000000e+00 1.3453600000000000e+01 -1.0717000000000001e+00
0.0000000000000000e+00 1.7350200000000001e+01 3.3999999999999998e-03
ITEM: ATOMS id type q x y z
8 4 1.04889 0.768761 1.38367 0.592713
12 4 1.47978 -0.378521 4.13188 1.92087
15 4 0.9516 -0.992079 4.63353 7.72377
70 1 -0.671093 0.534516 3.83972 7.01739
104 2 0.00145002 -0.698039 1.52246 4.26032
107 2 0.000223008 -2.17753 3.47241 7.84925
132 2 0.179063 0.52382 4.45441 5.99737
133 2 0.12615 -0.0414676 2.72921 6.8857
34 4 1.31366 1.10687 6.45842 3.40904
233 3 -0.779851 -1.45686 3.81218 3.13088
234 3 -0.81384 0.290623 2.71965 1.37363
235 3 -0.821676 -1.2864 4.73739 0.611652
237 3 -0.775481 -1.51816 5.8218 6.8034
254 3 -0.823463 0.776648 5.21463 2.46704
374 2 0.154574 0.831235 0.821558 6.77007
13 4 1.35746 -4.61135 6.64768 3.82576
230 3 -0.799499 1.04653 0.182086 1.49945
236 3 -0.776615 -4.12404 6.33432 5.31848
170 2 0.249663 -0.615932 6.36419 5.2334
171 2 0.225777 -1.24621 6.52933 3.44098
340 2 0.209814 2.07473 0.196681 5.29814
85 1 -0.676664 3.31789 4.70215 1.20003
355 2 0.210285 3.24817 0.956073 0.219827
111 2 0.0321939 3.28734 1.57157 4.94424
113 2 0.0129463 1.7165 5.47233 7.12231
134 2 0.22475 1.58451 3.70478 7.39739
177 2 0.171269 3.26192 4.84177 0.0272868
176 2 0.237682 2.51982 4.05551 1.60242
354 1 -0.640848 2.4818 1.7807 0.0212152
178 2 0.220331 3.29084 5.66025 1.76484
252 3 -0.821136 4.50657 2.74475 2.75597
356 2 0.183999 2.81533 2.88534 0.387503
256 3 -0.841244 4.93796 1.86858 6.52553
255 3 -0.797903 3.41774 3.19713 8.39727
244 3 -0.826967 3.78282 0.412398 2.6069
258 3 -0.806635 2.02263 6.0016 4.69306
247 3 -0.758514 5.91567 0.968898 4.20376
338 1 -0.668762 1.93993 0.917194 6.25026
339 2 0.191851 2.10871 2.01363 6.04129
259 3 -0.850801 3.75734 4.21533 5.90819
25 4 1.28595 4.39583 1.44032 3.60806
29 4 1.25912 6.24627 1.0337 5.89255
33 4 1.3356 4.97803 3.95955 1.81558
36 4 1.1528 4.5351 3.33501 6.99312
38 4 0.949655 2.95328 5.52731 5.91801
11 4 1.33908 -0.534917 2.28796 11.9484
17 4 1.09854 -1.10651 4.34335 14.2133
71 1 -0.707463 -1.09742 2.93931 15.6324
72 1 -0.660987 -4.0107 5.27036 15.8656
14 4 1.31883 -2.5209 6.07716 17.1988
108 2 0.000699551 -2.61449 4.94807 14.4279
135 2 0.159973 -0.840715 2.03532 14.9983
136 2 0.166799 -2.03239 2.94621 16.2781
137 2 0.168102 -0.179987 3.45001 16.1222
139 2 0.113806 -3.74468 6.37913 15.3365
231 3 -0.822016 -1.7766 1.7688 10.9723
155 2 0.262024 0.329096 4.09816 10.3998
182 2 0.175411 -1.54904 6.35681 11.6191
37 4 1.16547 0.301882 6.64648 9.96236
232 3 -0.844282 0.434603 1.21698 12.6367
238 3 -0.828278 -1.01413 3.45466 12.9524
262 3 -0.788665 -0.0110082 5.44145 14.3707
105 2 -0.0449844 -1.39642 1.23203 16.6158
257 3 -0.781139 -0.394945 5.37544 9.42989
78 1 -0.652165 0.866296 3.26471 10.9466
264 3 -0.867066 -1.35076 6.65239 16.2255
369 2 -0.0269713 -2.74819 3.797 9.78434
144 2 0.16897 -3.64028 6.51519 10.891
74 1 -0.679142 -4.73769 6.70785 10.6631
31 4 1.20581 3.57753 2.41179 14.5093
156 2 0.149508 1.11821 2.33936 10.2324
79 1 -0.653061 2.52577 3.80875 15.2206
112 2 0.0470842 2.74452 2.47523 10.9638
251 3 -0.797014 5.45646 2.2395 9.84013
162 2 0.185473 6.40606 0.638421 12.0779
28 4 1.22384 3.7059 2.15097 9.52384
80 1 -0.66743 6.38923 1.13286 13.0792
157 2 0.218182 1.65402 3.67244 11.6873
249 3 -0.790705 2.47377 1.06085 14.3085
160 2 0.191468 1.48233 3.48794 14.9834
158 2 0.175431 2.88566 4.62775 14.477
161 2 0.211654 5.44331 0.967952 13.6521
357 2 0.133501 1.10857 1.7988 16.2029
246 3 -0.806286 3.06573 0.761475 9.07458
260 3 -0.791607 4.10223 3.11262 13.0582
159 2 0.169295 2.71214 4.02353 16.3888
250 3 -0.784115 4.93142 2.15253 15.6248
10 4 0.95914 1.28149 0.33944 13.5647
266 3 -0.864163 3.68672 5.38946 11.5632
152 2 0.198714 4.76893 0.0234991 12.4553
1 4 1.26348 -6.95514 12.9311 2.44736
2 1 -0.651261 -6.28233 11.5645 1.25173
148 2 0.157264 -5.67089 10.2018 8.10002
4 2 0.214861 -6.26946 10.5934 1.80069
5 2 0.166724 -5.22564 11.8467 0.816955
6 3 -0.812169 -7.21679 12.3071 3.87422
73 1 -0.695657 -4.03942 9.24673 0.642391
241 3 -0.811328 -3.82561 7.21268 7.98726
143 2 0.197681 -5.06257 8.85088 0.909854
376 2 0.16273 -5.71521 8.84188 3.77252
319 1 -0.653939 -5.19496 11.9357 7.17285
321 2 0.170539 -5.27341 12.5448 6.16179
322 2 0.178134 -4.64075 11.0328 6.92518
3 2 0.181359 -7.05738 11.5992 0.442051
342 2 0.181113 -6.26766 10.4413 5.56846
346 2 0.238848 -3.86429 12.9921 1.95868
382 2 0.174774 -3.34055 12.5196 0.301675
239 3 -0.800449 -3.47295 7.6056 2.99737
341 1 -0.661745 -7.32209 10.0624 5.66012
142 2 0.130695 -3.9223 10.3297 1.02389
320 2 0.0190314 -6.79527 11.5616 7.90837
323 2 0.211256 -4.56123 12.5301 7.94044
318 4 0.817106 -6.73208 13.405 7.66411
75 1 -0.658368 -5.9834 9.08913 8.57272
83 1 -0.679025 -0.492979 6.94154 4.23121
349 2 0.145403 -0.484475 11.8912 0.264731
179 2 0.234064 -0.727895 7.23805 7.85028
272 3 -0.812708 -0.426966 11.6773 6.16101
224 2 0.199827 0.905563 9.67113 6.61508
172 2 0.167336 -0.497284 8.03117 4.38195
16 4 1.17128 -3.01433 6.97149 6.57147
185 2 0.137533 -0.295734 11.5242 2.3205
186 2 0.146964 -1.60597 10.7813 3.68495
174 2 0.186843 -2.725 8.59163 4.90742
240 3 -0.800142 -2.15282 7.25286 0.825061
187 2 0.143526 0.247032 9.90197 3.59486
173 2 0.188161 -3.13741 9.34694 6.64506
347 2 0.207955 -2.75434 12.3242 3.34072
248 3 -0.767238 -2.72871 13.1181 6.56016
267 3 -0.80499 1.80094 7.91313 2.68141
345 2 0.108116 -2.39848 11.8047 1.56035
175 2 0.17234 -1.29208 8.76219 6.25259
344 1 -0.675197 -2.85378 12.6132 2.26942
180 2 0.183379 0.733202 8.39556 8.01914
381 2 0.118392 -1.27027 10.5194 0.510442
19 4 1.01714 -2.85749 8.38273 1.75792
27 4 1.26712 -1.34047 12.194 7.42525
270 3 -0.779614 -1.93421 11.1803 8.51206
84 1 -0.66563 -2.44143 8.67891 6.01109
86 1 -0.664615 -0.109401 7.78377 8.58323
88 1 -0.680551 -0.516027 10.7832 3.27036
109 2 0.00850449 -1.50731 9.29871 2.4625
114 2 -0.0075204 0.991742 10.2208 2.03117
21 4 1.1301 -4.3387 8.03042 9.21747
22 4 1.26451 -4.97682 9.0738 13.772
23 4 1.01716 -5.14749 11.1341 11.1786
77 1 -0.639235 -5.57464 12.719 12.2351
90 1 -0.663242 -4.74414 12.2741 16.5589
110 2 -0.0306759 -5.89697 10.764 9.70405
370 2 -0.00373301 -5.01924 6.86797 16.4331
153 2 0.186877 -5.84622 12.2365 13.1862
154 2 0.146846 -6.4024 13.1141 11.5628
190 2 0.159946 -5.63842 11.5595 16.3949
150 2 0.170848 -4.15476 6.88485 13.1254
242 3 -0.825607 -6.1589 8.16578 14.4087
243 3 -0.790958 -5.52409 10.0066 12.1652
274 3 -0.8138 -4.28597 10.1209 14.6919
141 2 0.18363 -4.91736 9.18485 16.8851
371 2 -0.0186284 -9.18129 12.8515 14.6562
146 2 0.159634 -5.21226 7.35431 11.4588
378 2 0.116102 -6.37337 9.09478 9.67309
106 2 -0.0205792 -7.51198 12.4828 12.6811
336 2 0.119712 -8.85062 11.5485 13.5677
213 2 0.237696 -7.04827 9.20261 12.0278
191 2 0.221975 -4.76 13.1652 15.7456
184 2 0.220096 0.082964 6.81958 12.5239
87 1 -0.657922 -0.634696 7.02051 11.6449
189 2 0.204979 -2.29956 9.08284 16.5944
269 3 -0.855118 -3.19294 8.98959 9.75961
188 2 0.172159 -1.14208 10.6034 16.3699
181 2 0.204508 -0.773398 8.48624 9.31866
273 3 -0.841501 -0.117857 8.31824 14.4726
46 4 1.15484 -3.52819 11.251 15.6093
275 3 -0.777085 -2.71288 12.3203 14.7523
271 3 -0.761875 -3.53518 11.3785 10.9558
43 4 1.43569 -2.47169 10.3801 10.0507
76 1 -0.695128 -3.68147 7.91168 13.0867
89 1 -0.657363 -2.19475 10.2209 16.7487
149 2 0.204547 -3.4348 8.28187 11.9798
276 3 -0.842606 -1.12275 10.2187 10.9266
151 2 0.198776 -2.79937 8.05597 13.7544
183 2 0.228139 -0.909017 8.1032 11.6303
40 4 1.47406 -0.0754866 6.97594 15.3813
265 3 -0.765599 1.90936 6.77707 10.3219
263 3 -0.840222 1.25026 7.05277 16.3265
91 1 -0.688874 7.61376 2.40651 6.13423
92 1 -0.692939 7.9732 5.74236 4.38458
118 2 0.0101964 9.17583 3.20523 5.20017
124 2 0.021541 8.9799 4.36513 6.89668
125 2 -0.0279935 6.06431 4.13237 7.37829
192 2 0.148306 7.31594 3.08369 5.20672
193 2 0.158426 8.53249 1.77431 6.07937
194 2 0.150345 7.51226 3.02081 7.12577
195 2 0.195237 8.01674 4.78591 3.7348
367 2 0.219651 6.83786 6.46021 0.553135
202 2 0.1541 9.03878 5.96157 6.09194
278 3 -0.749248 8.79239 1.1864 3.34976
291 3 -0.797692 5.65775 5.15682 2.68698
366 1 -0.644434 8.00571 6.1946 0.563017
368 2 0.170547 8.5299 6.28876 1.62552
123 2 0.0171214 9.80211 5.45047 0.673777
169 2 0.125698 7.38087 4.72427 7.71345
253 3 -0.806487 5.93781 3.7544 0.378883
245 3 -0.792335 7.37435 1.44019 0.668825
48 4 1.26845 9.82258 2.5031 3.72615
56 4 1.12278 6.3576 6.31161 3.55347
359 2 0.175987 5.01326 6.07969 0.263356
288 3 -0.84645 9.69229 3.67058 2.64031
352 2 0.149064 8.48835 1.0464 8.37931
24 4 1.1076 7.89504 0.435322 1.73905
351 1 -0.672871 9.06387 0.0537246 8.31734
196 2 0.117467 7.68567 5.62288 5.44417
198 2 0.113304 5.42221 6.48499 5.60315
197 2 0.17822 8.92918 6.48169 4.2282
379 2 0.233689 9.56859 0.420967 0.215014
167 2 0.10572 8.18352 3.35153 8.67266
94 1 -0.682025 9.86326 6.08069 6.97346
289 3 -0.827654 11.9391 3.79899 1.13172
290 3 -0.831917 11.3945 5.51086 2.93484
281 3 -0.850506 11.1829 1.9218 4.28995
282 3 -0.854997 12.2843 0.704409 6.28985
324 4 1.27986 13.2882 0.420013 1.75879
49 4 1.30908 12.2562 2.71123 0.0103788
51 4 1.50096 12.1433 2.01486 5.54997
293 3 -0.782339 11.374 3.25938 6.69937
58 4 0.866167 10.6298 4.2967 7.58004
55 4 1.32648 10.7578 4.57034 1.87187
203 2 0.226256 10.9005 6.38279 6.58156
325 3 -0.854033 13.9174 1.49476 2.7737
280 3 -0.801235 13.7851 2.64647 5.1659
326 3 -0.848042 12.5562 1.21184 0.542521
7 4 1.33676 14.5643 2.40697 3.83378
380 2 0.206067 10.1279 0.163427 7.81679
50 4 1.46766 13.1023 0.034637 7.55665
32 4 1.1281 6.64807 3.03557 10.4001
39 4 1.18492 4.82062 4.4868 12.3804
53 4 1.42264 8.55313 2.73652 15.6121
81 1 -0.686395 8.05327 1.94378 11.276
96 1 -0.673742 4.90658 6.09203 15.3005
127 2 -0.0074997 5.61212 5.45054 13.5835
166 2 0.222873 8.16459 2.55024 12.2332
207 2 0.177792 4.34632 5.83445 16.307
208 2 0.184141 5.8605 5.50613 15.3172
209 2 0.108211 4.13546 5.8996 14.4385
261 3 -0.803577 6.05135 4.05799 11.4353
283 3 -0.826255 8.23852 1.06328 15.3952
285 3 -0.824688 7.21576 3.48516 16.6406
168 2 0.186767 7.86349 4.99852 9.45657
295 3 -0.83803 8.4242 3.43027 14.0271
301 3 -0.76473 8.62274 5.66135 12.2168
164 2 0.122215 8.837 2.17499 10.4465
26 4 1.49784 5.83641 2.7205 16.9505
165 2 0.16554 7.7218 0.843067 11.3364
30 4 1.18356 7.67325 0.178366 14.2722
126 2 -0.00614409 5.76799 5.23321 8.78534
82 1 -0.68668 7.4476 4.25562 8.736
163 2 0.23804 6.59106 2.24885 13.0006
383 2 0.261789 7.09219 5.20359 17.3468
54 4 1.29121 11.3008 2.49905 12.4119
279 3 -0.771032 13.3444 1.30097 8.90713
140 2 0.166123 11.8116 5.28508 16.7255
317 3 -0.7882 14.1874 0.147794 13.5191
60 4 1.40685 9.51373 4.63071 13.4618
95 1 -0.664174 10.6939 4.01279 9.39781
365 2 0.19302 10.1957 0.132453 13.5865
121 2 0.0100836 9.88449 1.62161 11.8825
120 2 -0.0263108 13.8412 1.92054 15.47
145 2 0.18487 11.2699 5.76605 10.4495
204 2 0.16431 9.89679 4.46632 10.0568
206 2 0.155529 10.5894 2.73583 9.20915
119 2 0.0179045 12.5424 3.44042 16.5564
205 2 0.158904 11.8117 4.36217 9.53127
284 3 -0.867583 10.0231 2.81718 16.3175
287 3 -0.866482 12.0806 1.86356 13.5674
296 3 -0.832899 10.8765 3.97327 12.7599
297 3 -0.824442 10.0121 5.54712 14.6934
286 3 -0.822797 12.222 2.31386 11.0774
9 4 1.29167 13.5495 2.21955 10.2395
138 2 0.199262 12.2398 4.57555 15.0194
52 4 1.26557 13.0003 0.849683 14.3239
42 4 1.24482 2.41963 9.2734 2.02824
44 4 1.04529 0.308931 11.8502 4.76655
64 4 1.43074 3.29648 11.612 3.75528
93 1 -0.668987 5.00479 7.22228 4.80604
101 1 -0.653829 1.98052 9.58821 6.95734
66 4 1.19282 2.39829 10.7083 8.6246
223 2 0.240057 2.70434 10.0944 6.25948
268 3 -0.834286 2.89236 9.06779 0.520289
305 3 -0.823313 3.55632 9.96989 2.85939
306 3 -0.856639 3.00367 12.6906 2.52195
307 3 -0.796844 1.92072 11.5587 4.73283
312 3 -0.849113 4.56181 11.979 4.61326
348 1 -0.664495 -0.139906 12.9576 0.939648
358 1 -0.668857 4.83503 7.18952 0.653695
350 2 0.184803 0.748365 12.6621 1.61065
199 2 0.206305 4.04244 6.98483 4.24111
384 2 0.219537 2.25954 12.1031 0.76756
216 2 0.270299 5.00888 10.1413 1.87232
360 2 0.210149 4.30595 7.37999 1.65036
372 2 0.103958 -0.00815824 13.378 4.10135
200 2 0.221919 5.0738 8.29184 5.02255
309 3 -0.809576 2.74905 12.153 8.16682
314 3 -0.804931 5.07405 12.9338 7.1302
222 2 0.136082 2.30678 8.48784 7.24153
122 2 -0.00561562 3.88146 6.88674 6.40358
343 2 0.150686 8.85328 10.0686 6.71043
100 1 -0.676404 7.54253 10.1947 8.50237
304 3 -0.813344 7.82328 10.161 3.31777
20 4 1.28938 8.19379 11.1998 4.51714
217 2 0.163505 6.08668 9.76155 0.250234
303 3 -0.765937 8.74375 8.97963 0.894407
311 3 -0.81489 7.15685 11.9178 5.48876
373 2 -0.0460925 5.16863 13.0432 1.01107
377 2 0.166135 9.18034 8.97732 5.16935
131 2 0.148143 10.2155 7.59535 5.0811
308 3 -0.814854 6.18894 7.91826 8.01943
375 2 0.181146 9.59985 7.62484 3.16235
63 4 1.20907 7.43401 9.20134 2.06039
65 4 1.04088 6.51768 9.19142 7.2194
67 4 1.43259 5.44516 11.697 5.9573
69 1 -0.66379 10.4438 7.78791 3.92081
99 1 -0.678208 6.05983 10.2426 1.31627
129 2 -0.0144545 7.7478 8.83908 6.01726
361 2 0.185984 5.69535 7.86984 0.507159
313 3 -0.819435 5.29459 10.1494 6.55695
218 2 0.175739 6.51669 11.259 1.33547
302 3 -0.751411 6.80498 7.56191 2.67044
221 2 0.167206 7.42346 11.2681 8.30042
219 2 0.154391 8.70015 9.874 8.57111
201 2 0.145676 9.53665 6.85292 7.70466
147 2 0.148152 10.0486 8.34125 7.87189
35 4 1.26381 2.41463 7.98084 16.8673
68 4 1.10438 1.96502 11.8516 15.4347
102 1 -0.655791 0.920444 11.9447 17.0404
103 1 -0.646348 3.87787 10.0179 9.60421
116 2 0.0648815 2.59977 8.57765 14.0465
117 2 0.000731815 0.677591 11.9969 11.8814
130 2 0.0440089 2.7073 11.2236 16.9538
226 2 0.19758 0.422 12.9881 16.561
229 2 0.196596 3.33867 9.40526 10.4001
299 3 -0.806441 3.56126 8.49779 15.4289
310 3 -0.813853 1.30237 10.4541 9.78437
315 3 -0.821451 1.34195 10.6858 14.6726
316 3 -0.880643 2.70517 13.14 14.968
329 1 -0.654323 3.60487 11.1212 12.6339
334 2 0.198059 2.64149 11.6868 12.8317
335 2 0.146611 3.90955 10.3823 13.5326
362 1 -0.688233 -0.248763 13.1385 13.1821
333 2 0.170273 3.69206 10.6434 11.5175
225 2 0.165094 0.141413 11.0193 16.9458
45 4 1.22114 1.07996 9.16476 13.7555
364 2 0.180806 -0.323514 12.0014 13.488
115 2 -0.0152285 3.7841 7.86892 12.2844
47 4 1.26252 0.42798 10.4491 11.1559
353 2 0.166227 -0.301833 12.982 9.34275
41 4 1.2119 3.5431 6.744 10.9392
277 3 -0.871676 1.07988 9.4934 12.2729
228 2 0.237651 4.29606 9.30131 8.81761
363 2 0.147942 -0.466331 13.3372 12.0939
332 2 0.212206 6.47206 13.1459 11.1
294 3 -0.845937 4.61383 7.34882 9.92032
128 2 -0.0164432 10.086 7.41423 10.3886
298 3 -0.788779 6.51752 8.25251 15.9555
62 4 1.04841 8.54249 6.96414 11.2655
327 4 0.898141 5.20697 12.1444 12.8546
328 1 -0.663992 5.78435 12.2464 10.9243
18 4 1.25506 10.1781 6.98725 15.4805
330 1 -0.661873 6.71028 11.1696 13.8666
386 2 0.163195 6.50824 11.2895 14.9682
59 4 1.1964 5.97439 6.87004 9.32358
300 3 -0.812888 7.3035 6.95778 10.3042
331 2 0.140036 6.42281 11.3848 10.4647
337 2 0.183204 6.49637 10.0854 13.4959
210 2 0.10407 5.19625 7.18507 12.8457
227 2 0.170929 4.7002 10.7718 10.0662
385 2 0.219981 4.93172 12.4802 10.3333
57 4 1.31755 7.61434 7.81921 17.0009
61 4 1.03639 5.0743 7.94988 14.9789
97 1 -0.670311 5.48422 8.33625 13.1144
98 1 -0.665919 8.5049 8.6455 12.0956
211 2 0.184615 6.60199 8.46721 12.7937
212 2 0.150562 4.8327 9.08992 12.5556
214 2 0.201605 8.26142 8.17378 13.1638
215 2 0.149767 7.6718 9.33474 11.6424
220 2 0.174021 6.9494 9.90084 9.45571
292 3 -0.859273 8.99573 7.33353 16.4552
ITEM: TIMESTEP
100
ITEM: NUMBER OF ATOMS
386
ITEM: BOX BOUNDS xy xz yz pp pp pp
-1.0522200000000000e+01 1.6607800000000001e+01 -9.4504999999999999e+00
0.0000000000000000e+00 1.3480507200000002e+01 -1.0717000000000001e+00
0.0000000000000000e+00 1.7350200000000001e+01 3.4067999999999998e-03
ITEM: ATOMS id type q x y z
8 4 1.03099 0.962628 1.298 0.579507
12 4 1.46783 -0.334332 4.0395 1.85697
15 4 1.0481 -0.816496 4.66413 7.80123
70 1 -0.68273 0.701281 3.86506 6.94889
104 2 -0.0195466 -0.737057 1.38277 4.79458
107 2 -0.0170813 -1.94437 3.41431 7.91581
132 2 0.194835 0.689361 4.32483 5.9532
133 2 0.116066 0.130569 2.78533 6.90533
34 4 1.31544 1.12914 6.51039 3.37455
233 3 -0.796965 -1.18518 3.58357 3.17592
234 3 -0.815578 0.597908 2.70938 1.30784
235 3 -0.839052 -1.19237 4.6267 0.581768
237 3 -0.7888 -1.53281 5.80859 6.93622
254 3 -0.774985 0.71014 5.40207 2.25656
374 2 0.143373 0.918021 0.719627 6.73358
33 4 1.338 4.86986 3.98034 1.84459
245 3 -0.810583 7.21646 1.46146 0.692303
236 3 -0.76305 -3.99079 6.50379 5.29355
170 2 0.238615 -0.710351 6.33596 5.16003
171 2 0.229674 -1.33386 6.68308 3.40556
340 2 0.240524 1.92194 0.162864 5.17091
85 1 -0.679582 3.20462 4.56425 1.12613
355 2 0.217364 3.3784 0.815513 0.146504
111 2 0.0308769 3.0471 1.81245 4.76905
113 2 0.0185999 1.70332 5.61423 7.19541
134 2 0.251978 1.69378 3.77769 7.49793
36 4 1.10061 4.42513 3.39293 7.06224
176 2 0.224824 2.5346 3.80605 1.69175
38 4 0.951211 2.88495 5.60548 5.99226
178 2 0.223148 3.028 5.58063 1.54269
252 3 -0.844814 4.54742 2.80721 2.82496
356 2 0.192107 2.90324 2.76502 0.274509
256 3 -0.820432 4.8682 1.80617 6.56278
255 3 -0.778842 3.34894 3.43823 8.48169
244 3 -0.829396 3.60811 0.40109 2.47268
258 3 -0.804478 2.01342 5.95172 4.68195
247 3 -0.793203 5.56776 0.844942 4.23171
338 1 -0.676848 1.95034 0.822753 6.10361
339 2 0.181649 2.02055 1.96733 5.97051
259 3 -0.834333 3.6549 4.27143 5.96062
25 4 1.2936 4.22488 1.43246 3.52844
29 4 1.25469 6.10982 1.14931 5.82793
7 4 1.29583 -1.86505 2.31816 3.96898
11 4 1.32454 -0.511607 2.36035 11.9628
17 4 1.0686 -1.23556 4.35142 14.2372
71 1 -0.700841 -1.18487 3.03747 15.7624
72 1 -0.67368 -4.03637 5.20525 15.9036
14 4 1.34194 -2.56057 6.00492 17.2118
108 2 0.00512207 -2.83438 5.09736 14.363
135 2 0.154604 -0.66961 2.20782 15.123
136 2 0.153715 -2.17019 2.7694 16.2862
137 2 0.205222 -0.532727 3.67508 16.3828
139 2 0.134276 -3.88133 6.19359 15.3007
231 3 -0.794373 -1.60027 1.80305 10.8257
155 2 0.266423 0.454954 3.95488 10.1246
182 2 0.1637 -1.71354 6.52711 11.3264
177 2 0.193256 1.94965 4.57055 17.3421
232 3 -0.826556 0.333362 1.3412 12.8458
238 3 -0.814377 -1.17966 3.57405 12.9131
262 3 -0.811236 -0.0571731 5.42988 14.5062
105 2 -0.026208 -1.19794 1.23034 16.5431
257 3 -0.774006 -0.215784 5.12544 9.14592
78 1 -0.645275 0.940265 3.03389 10.8719
266 3 -0.83842 3.64658 5.18169 11.5927
369 2 -0.028206 -2.8822 3.62424 9.44728
144 2 0.163362 -3.88527 6.39967 10.9539
354 1 -0.653323 1.56876 1.62956 17.2353
31 4 1.23542 3.60383 2.50514 14.6985
156 2 0.160905 1.37399 2.15118 10.2782
79 1 -0.675155 2.44893 3.84503 15.2566
112 2 0.033373 2.81876 2.45543 10.999
251 3 -0.802887 5.36817 1.92194 9.85896
162 2 0.182817 6.30931 0.818793 12.2042
28 4 1.16648 3.71199 2.1665 9.55601
80 1 -0.66974 6.30709 1.13639 13.313
157 2 0.197275 1.5646 3.4796 11.7539
249 3 -0.776679 2.58647 1.04112 14.3334
160 2 0.178593 1.44883 3.40846 15.5117
158 2 0.187419 2.48746 4.48692 14.2796
161 2 0.217825 5.47005 0.748424 13.8843
357 2 0.133583 1.20406 1.63658 16.1103
246 3 -0.774019 3.10415 0.752579 8.8718
260 3 -0.816405 4.20662 3.04916 13.2246
159 2 0.178072 2.85486 4.41236 16.1705
250 3 -0.834185 4.92475 2.30256 15.7461
10 4 0.940835 1.32599 0.410973 13.6317
140 2 0.171722 -4.7449 5.28848 16.8463
1 4 1.1992 -6.9348 12.7313 2.26729
2 1 -0.682092 -6.20763 11.3261 1.29386
148 2 0.1527 -5.73654 10.2913 8.16945
4 2 0.163905 -5.63358 10.67 2.04304
5 2 0.158605 -5.47177 11.7208 0.473318
6 3 -0.801459 -7.38664 12.283 3.98419
73 1 -0.677466 -3.99854 9.31359 0.809604
241 3 -0.787779 -3.8848 7.33893 7.9568
143 2 0.193847 -4.94681 9.02274 1.40684
376 2 0.174566 -5.87577 8.82389 3.75724
319 1 -0.672946 -5.27198 11.9538 7.11687
321 2 0.168947 -5.14927 12.55 6.02379
322 2 0.159071 -5.23564 10.8295 6.88219
3 2 0.219151 -7.03201 10.7058 0.843521
342 2 0.175687 -6.24903 10.5141 5.37439
346 2 0.225285 -3.82337 12.8443 2.06242
382 2 0.172287 -3.36379 12.4285 0.359828
239 3 -0.804366 -3.47817 7.76277 2.99964
109 2 0.0031124 -1.30858 9.31329 2.12856
142 2 0.129289 -3.61867 10.3932 1.0654
320 2 -0.000127774 -6.97766 11.6371 7.85137
323 2 0.229981 -4.53313 12.3675 7.86293
147 2 0.154578 -6.34682 8.38206 7.92902
13 4 1.34817 -4.57645 6.81721 3.79112
83 1 -0.662147 -0.505038 6.86621 4.1845
349 2 0.169653 -0.499065 11.989 0.480535
179 2 0.205628 -0.467731 7.30578 7.72557
272 3 -0.785513 -0.391855 11.5186 6.03719
341 1 -0.675664 -7.18034 10.0211 5.68251
172 2 0.155369 -0.387221 7.99435 4.39858
16 4 1.20564 -2.96805 6.91106 6.57946
185 2 0.131795 -0.423479 11.539 2.34755
186 2 0.155418 -1.51784 10.6099 3.83885
174 2 0.189258 -2.69367 8.72925 5.08333
240 3 -0.826106 -2.13133 7.10083 0.824477
187 2 0.163249 0.172117 9.77321 3.33938
173 2 0.205176 -2.68612 9.26409 6.93191
347 2 0.202749 -2.67491 12.4098 3.43265
248 3 -0.783049 -2.58868 13.2659 6.70096
267 3 -0.78961 1.62481 7.9766 2.76659
345 2 0.113968 -2.32831 11.7591 1.59599
175 2 0.170911 -1.11495 8.59072 6.12345
344 1 -0.66652 -2.75623 12.5991 2.29962
180 2 0.197118 0.855302 8.63883 7.96984
381 2 0.126041 -1.43195 10.5835 0.484122
19 4 1.0326 -2.68909 8.31473 1.69531
27 4 1.26694 -1.59164 12.1886 7.39261
270 3 -0.833629 -2.06667 11.2456 8.54021
84 1 -0.670779 -2.2749 8.58946 6.12235
86 1 -0.67165 0.00297863 8.04503 8.49857
88 1 -0.681838 -0.519481 10.7099 3.2953
230 3 -0.787558 -8.42804 13.353 1.32036
318 4 0.866119 -6.59963 13.3256 7.52198
343 2 0.149431 -7.44406 10.2544 6.73898
21 4 1.11745 -4.31209 8.15596 9.28431
22 4 1.23552 -4.84659 8.99237 13.6332
23 4 0.980758 -5.1018 11.0984 11.1385
77 1 -0.635091 -5.52893 12.675 12.1916
90 1 -0.657016 -4.70024 12.2116 16.5858
110 2 -0.0267701 -5.9885 10.9478 9.71929
370 2 0.013512 -5.10362 6.81819 16.307
153 2 0.168129 -5.96206 12.1255 13.0928
154 2 0.134278 -6.22176 13.0864 11.274
190 2 0.153489 -5.73294 11.6488 16.5881
332 2 0.14284 -9.50046 12.6221 11.4329
242 3 -0.818513 -6.1113 8.09318 14.1728
243 3 -0.794715 -5.49415 9.92103 12.1442
274 3 -0.788771 -4.16989 9.94211 14.8019
141 2 0.191988 -5.17429 9.13433 17.0733
371 2 -0.0193127 -8.88386 12.6277 14.5156
146 2 0.162929 -5.36644 7.29441 11.2442
378 2 0.134311 -6.53941 9.28792 9.67526
106 2 -0.0162884 -7.47904 12.7348 12.54
263 3 -0.833861 1.36164 6.83315 16.3903
213 2 0.243663 -7.17275 9.19282 12.1841
191 2 0.220877 -4.68208 13.196 16.0435
184 2 0.225183 -0.175211 6.84532 12.3452
87 1 -0.673079 -0.783445 7.20624 11.4729
189 2 0.201703 -2.46474 9.25507 16.475
269 3 -0.847088 -3.14372 9.11102 9.91803
188 2 0.188143 -1.04009 10.6313 16.475
181 2 0.201505 -0.787734 8.69583 9.02536
273 3 -0.802308 -0.0797171 8.28044 14.3883
46 4 1.11575 -3.36376 11.1726 15.6435
275 3 -0.776652 -2.41393 12.2988 14.8329
271 3 -0.746779 -3.41975 11.4421 10.7905
43 4 1.49267 -2.36078 10.4908 10.0262
76 1 -0.687475 -3.44279 7.84108 13.1474
89 1 -0.67001 -2.14267 10.3261 16.8365
149 2 0.208123 -3.20093 8.14403 12.0427
276 3 -0.833114 -1.10362 10.2116 11.092
151 2 0.221573 -2.56864 8.03859 13.8685
183 2 0.261294 -0.960507 8.37639 11.4365
40 4 1.41756 -0.0197753 6.78311 15.4662
265 3 -0.749741 2.03345 6.82968 10.3935
37 4 0.997899 0.277603 6.87293 9.96342
264 3 -0.834866 -1.40726 6.74651 16.2903
150 2 0.158699 -3.89357 6.78587 13.2653
74 1 -0.676098 -4.84023 6.73701 10.4461
152 2 0.210329 -4.70175 13.3651 12.5218
75 1 -0.665909 -5.95695 9.21393 8.70745
91 1 -0.681015 7.62293 2.35788 6.02156
92 1 -0.678807 7.82497 5.72315 4.32981
118 2 -0.0042877 9.17105 3.22412 5.1988
124 2 0.0191345 8.86832 4.22486 6.96311
125 2 -0.033656 5.95405 4.10942 7.44802
192 2 0.138924 7.33362 2.90739 4.99467
193 2 0.155506 8.5527 1.71733 5.96693
194 2 0.143176 7.5034 2.99275 7.06224
195 2 0.184712 7.98639 4.69307 3.90523
367 2 0.189635 6.68264 6.54979 0.21623
202 2 0.15644 8.99061 5.88485 6.12976
278 3 -0.783816 8.76977 1.14656 3.44367
291 3 -0.782919 5.67709 5.40479 2.59465
366 1 -0.644292 7.91249 6.30253 0.319344
368 2 0.186082 8.25076 6.41805 1.42687
123 2 0.0125453 9.54377 5.4349 1.05492
169 2 0.116677 7.20211 4.71089 7.68337
253 3 -0.807434 5.77064 3.61827 0.532976
167 2 0.119009 8.15662 3.3139 8.58073
48 4 1.27326 9.80767 2.40764 3.87412
56 4 1.1583 6.32899 6.5261 3.47248
359 2 0.180111 4.82969 6.05531 0.100812
288 3 -0.863415 9.78436 3.53316 2.76432
352 2 0.160752 8.62402 0.902109 8.12006
24 4 1.10309 7.87109 0.556669 1.76016
201 2 0.144218 9.04924 6.53356 7.98994
196 2 0.0985327 7.21018 5.6868 5.36115
198 2 0.117968 5.51636 6.65675 5.58796
197 2 0.166735 8.71432 6.52514 4.25852
379 2 0.226839 9.76538 0.284541 0.21296
50 4 1.47607 13.1282 0.125165 7.6427
94 1 -0.678322 9.6401 6.01455 7.12476
289 3 -0.839153 11.5969 3.84574 1.0124
290 3 -0.818906 11.4845 5.6067 2.90608
281 3 -0.80213 11.2455 1.93316 4.22155
282 3 -0.850608 12.2833 0.906587 6.43035
324 4 1.34808 13.3964 0.576173 1.77301
49 4 1.36006 12.1374 2.77689 0.0108692
51 4 1.45956 12.1974 2.26192 5.63103
293 3 -0.81299 11.4476 3.48881 6.53915
58 4 0.873348 10.5315 4.28765 7.53816
55 4 1.36439 10.652 4.54612 2.01458
203 2 0.199904 10.6635 6.45676 6.86231
325 3 -0.867045 14.1222 1.40211 2.84289
280 3 -0.786993 13.7448 2.86169 5.10145
326 3 -0.871475 12.5673 1.50393 0.757507
32 4 1.1371 6.46326 2.94312 10.3505
39 4 1.21566 4.77473 4.29736 12.3755
53 4 1.46187 8.54825 2.77248 15.6257
81 1 -0.687892 7.96759 2.18233 11.1908
96 1 -0.690162 4.84014 6.00708 15.1672
127 2 0.00108532 5.6072 5.33677 13.4884
166 2 0.243984 8.18681 2.72298 12.1628
207 2 0.17229 4.33258 5.65501 16.1598
208 2 0.172891 5.90561 5.55361 15.0716
209 2 0.120308 4.18721 5.75651 14.318
261 3 -0.823214 6.00159 4.03945 11.354
283 3 -0.851614 8.13693 1.21062 15.4334
285 3 -0.814468 7.2349 3.53549 16.5918
168 2 0.174245 7.87524 4.92306 9.38274
295 3 -0.816891 8.49816 3.46715 13.9119
301 3 -0.780884 8.84039 5.85281 12.3819
164 2 0.136696 8.76879 2.37211 10.405
26 4 1.52712 5.75101 2.69524 16.9945
165 2 0.149891 7.78996 1.04625 11.3009
30 4 1.18373 7.71285 0.216292 14.3405
126 2 0.00734851 5.85682 5.31899 8.68381
82 1 -0.675001 7.42207 4.16806 8.70297
163 2 0.239663 6.48287 2.25281 13.4912
138 2 0.166437 12.4445 4.22584 15.3485
54 4 1.23296 11.2435 2.40638 12.2741
279 3 -0.841608 13.2541 1.10388 8.85556
52 4 1.20693 13.0533 0.699454 14.3276
383 2 0.253802 7.02357 5.22278 17.1977
60 4 1.44912 9.57739 4.72835 13.4973
95 1 -0.67731 10.5059 3.99534 9.34756
41 4 1.24987 3.47959 6.66137 11.0433
121 2 -0.0050771 9.75887 1.62979 11.9901
120 2 -0.0192921 13.9082 1.81928 15.358
145 2 0.181413 11.2314 5.80677 10.0007
204 2 0.155855 9.71944 4.60694 9.9622
206 2 0.113356 9.97947 2.83794 9.09773
119 2 0.00128749 12.5449 3.33434 16.6651
205 2 0.199714 11.5017 3.97393 9.86746
284 3 -0.885398 9.99448 2.82347 16.2146
287 3 -0.820196 12.029 1.60873 13.5062
296 3 -0.804532 10.875 3.91529 12.6622
297 3 -0.853273 9.90967 5.60467 14.74
286 3 -0.818792 12.2669 2.23795 11.0336
9 4 1.24973 13.5461 2.10346 10.0973
317 3 -0.777689 14.3991 0.0691919 13.6085
363 2 0.127921 8.98919 0.121884 12.3844
42 4 1.21327 2.27735 9.43982 2.05045
44 4 1.06457 0.32883 11.7675 4.67817
64 4 1.41402 3.24145 11.6248 3.56047
93 1 -0.668367 4.97925 7.29582 4.77609
101 1 -0.679379 2.26558 9.66147 7.09714
372 2 0.104883 -0.156579 13.2978 4.06292
223 2 0.235039 3.27909 9.87778 6.60338
268 3 -0.813342 2.52191 9.20369 0.507503
305 3 -0.804096 3.55227 9.89075 2.8287
306 3 -0.873794 3.11825 12.7589 2.22418
307 3 -0.857826 1.85576 11.4726 4.32062
312 3 -0.835063 4.5263 11.8837 4.51705
348 1 -0.668156 -0.124129 12.9956 0.976643
358 1 -0.663691 4.68082 7.16856 0.47697
350 2 0.183392 0.6134 12.9537 1.88558
199 2 0.203292 3.98286 6.94287 4.36911
384 2 0.242177 2.46061 12.2511 0.696408
216 2 0.269707 5.02649 9.94425 1.91776
360 2 0.196568 4.23382 7.2561 1.54218
114 2 0.00441458 1.14427 10.7273 2.20193
200 2 0.219597 4.98102 8.40252 4.9893
309 3 -0.8048 2.76753 12.2542 8.30997
314 3 -0.830855 5.18564 12.9101 6.98476
222 2 0.143801 2.16108 8.54619 7.26027
122 2 -0.00297655 3.9098 6.92858 6.3756
224 2 0.219889 1.42735 10.0592 6.49753
100 1 -0.67658 7.59395 10.1399 8.34784
304 3 -0.831777 7.84796 10.1947 3.48693
20 4 1.3557 8.20899 11.1811 4.59688
217 2 0.177412 6.04769 9.51969 0.270212
303 3 -0.783451 8.60394 8.7487 0.972452
311 3 -0.875042 6.98839 11.8332 5.45977
373 2 -0.0373844 5.1602 13.3366 0.801029
377 2 0.166352 9.47326 8.87259 5.45997
131 2 0.137924 9.95444 7.60687 5.10098
308 3 -0.829882 6.16503 7.87636 7.91573
375 2 0.179528 9.72082 7.28337 3.15679
63 4 1.30992 7.42496 9.20146 2.22275
65 4 1.05462 6.51886 9.16867 7.08481
67 4 1.51191 5.50608 11.8561 5.86211
69 1 -0.659905 10.3694 7.79506 3.954
99 1 -0.681366 6.05289 10.0912 1.30073
129 2 -0.000609058 7.81931 8.92436 5.91921
361 2 0.176582 5.64271 7.78028 0.394001
313 3 -0.783013 5.35192 10.1833 6.6269
218 2 0.174448 6.39909 11.1631 1.22109
302 3 -0.818825 6.88164 7.83955 2.81182
221 2 0.17571 7.41665 11.2038 8.10362
219 2 0.157319 8.73747 9.84318 8.34663
380 2 0.230053 0.582603 13.1426 7.84817
351 1 -0.659866 -0.395153 13.3147 8.32461
35 4 1.19081 2.30772 8.02402 16.8398
68 4 1.09909 1.95456 11.7432 15.5105
102 1 -0.669198 0.810132 11.9081 17.0673
103 1 -0.64085 3.90804 10.0237 9.63378
116 2 0.0441073 2.3852 8.32154 14.2657
117 2 0.0129043 0.691381 12.0816 11.7642
130 2 0.0527978 2.48637 10.9653 16.9866
226 2 0.171824 0.238896 12.8507 16.448
229 2 0.1806 3.31692 9.38617 10.4006
299 3 -0.812817 3.60205 8.62208 15.5
310 3 -0.829672 1.11772 10.6526 9.6932
315 3 -0.836623 1.35779 10.7441 14.5061
316 3 -0.868213 2.84973 12.9509 15.1101
329 1 -0.671562 3.78513 10.9733 12.8165
334 2 0.20975 2.97144 11.667 12.8557
335 2 0.184427 3.8034 10.2785 13.7124
362 1 -0.67414 -0.131744 12.9683 13.3035
333 2 0.162193 3.88828 10.4323 11.7986
225 2 0.186691 0.123368 11.041 17.3231
45 4 1.23627 1.06421 9.20851 13.7846
364 2 0.207881 -0.339083 11.8269 13.2748
115 2 -0.0223103 3.54601 7.74589 12.3536
47 4 1.21931 0.497741 10.4515 11.1642
353 2 0.190158 -0.506968 12.9464 9.36605
228 2 0.22738 4.31844 9.43704 8.76849
277 3 -0.854329 1.16622 9.40238 12.2642
336 2 0.152834 7.7596 10.9434 14.1183
365 2 0.205988 0.777142 13.3565 13.8642
66 4 1.19775 2.3954 10.8342 8.73388
294 3 -0.838537 4.5726 7.04502 9.98847