ITEM: TIMESTEP
0
ITEM: NUMBER OF ATOMS
386
ITEM: BOX BOUNDS xy xz yz pp pp pp
-1.0522200000000000e+01 1.6607800000000001e+01 -9.4504999999999999e+00
0.0000000000000000e+00 1.3453600000000000e+01 -1.0717000000000001e+00
0.0000000000000000e+00 1.7350200000000001e+01 3.3999999999999998e-03
ITEM: ATOMS id type q x y z
8 4 1.02614 0.889264 1.22882 0.657599
12 4 1.40431 -0.134071 4.31477 1.54476
107 2 0.071279 -2.271 2.98603 7.89647
15 4 1.03834 -1.19398 4.19112 7.26247
25 4 1.20169 5.1785 1.55587 3.95095
29 4 1.2899 6.61118 1.19156 6.45363
34 4 1.28307 1.25999 6.35743 3.59227
171 2 0.220362 -1.04685 6.44074 3.04906
36 4 1.16587 4.7903 3.75589 7.0604
38 4 0.970471 2.54721 5.22428 6.24775
70 1 -0.673153 -0.0439331 3.01364 6.17765
85 1 -0.665104 3.41381 3.4674 1.63935
104 2 0.00879748 -0.676924 2.37388 4.41994
340 2 0.160616 3.20153 0.34504 5.46228
33 4 1.33951 5.25547 3.98733 2.04627
111 2 0.0105794 3.88596 1.93229 5.14035
113 2 0.0279618 1.55363 3.92026 6.8736
132 2 0.168889 -0.0846426 3.76385 5.28121
133 2 0.147078 -0.959624 2.17685 6.21611
134 2 0.16433 0.989729 2.41001 6.17012
339 2 0.144207 2.77775 2.17084 6.03624
176 2 0.224329 3.35412 2.46543 1.07664
177 2 0.206988 2.95944 4.34707 1.08594
178 2 0.21132 3.01297 3.33428 2.69366
230 3 -0.775597 2.10325 0.621447 1.53116
233 3 -0.836597 -1.46114 4.10433 2.58719
234 3 -0.789084 0.300447 2.71636 0.988383
235 3 -0.856463 -0.202671 5.26898 0.260859
374 2 0.194833 1.35913 0.849885 5.69288
237 3 -0.80635 -1.78134 5.27293 6.2875
255 3 -0.814035 3.92785 3.58944 8.56794
244 3 -0.788843 4.55795 0.452907 2.81463
247 3 -0.801274 6.41696 0.882241 4.82515
252 3 -0.815472 5.63547 2.92555 3.19488
254 3 -0.760566 1.18497 5.02294 2.54914
256 3 -0.845048 5.46127 2.3167 6.81352
258 3 -0.822387 1.9634 5.80695 4.91428
259 3 -0.83966 4.02584 4.68503 6.01053
338 1 -0.645936 2.4447 1.00786 6.03479
16 4 1.24078 -2.9838 6.47034 6.47024
122 2 0.0165441 2.28546 6.53238 7.3807
257 3 -0.804016 -0.239102 4.74655 8.43196
360 2 0.244184 2.81756 6.15334 1.35299
236 3 -0.78904 -4.15325 6.62003 5.19849
7 4 1.35074 -2.06088 2.88479 3.40536
358 1 -0.690475 3.42826 6.3192 0.452353
245 3 -0.762086 7.03863 1.24172 0.602971
241 3 -0.829792 -3.53867 6.59776 8.07945
24 4 1.07651 7.86612 0.205779 1.64476
170 2 0.210162 -0.684193 6.64318 4.88942
10 4 0.981265 1.45343 0.848262 13.123
11 4 1.27829 -0.611578 2.58886 11.7094
162 2 0.200333 5.62031 0.592452 11.9638
17 4 1.0561 -1.15056 4.6361 13.8982
28 4 1.22587 3.82981 2.36631 9.52406
354 1 -0.646001 0.67552 1.02249 16.4208
31 4 1.33999 3.30694 2.62578 14.7675
37 4 1.03276 0.541302 6.28246 9.35177
356 2 0.12876 -0.313876 0.928874 15.7848
71 1 -0.705323 -1.13744 3.1116 15.1031
72 1 -0.69585 -3.74359 4.80478 16.14
106 2 -0.00778206 2.34867 0.445424 11.6688
78 1 -0.689256 0.927639 3.24159 10.5824
79 1 -0.655719 2.09644 3.81628 15.7615
80 1 -0.686031 5.73695 0.690979 13.1055
74 1 -0.668236 -5.08068 6.53355 10.5024
266 3 -0.860132 3.72198 5.22118 11.7211
108 2 0.022779 -2.75993 5.07387 14.4531
112 2 0.0319179 2.82471 2.86467 10.8918
135 2 0.211401 -0.339429 2.46562 14.5468
136 2 0.13661 -2.10754 2.51759 15.3002
137 2 0.212355 -0.730285 3.67768 16.0194
138 2 0.143745 -2.91696 3.99154 15.8323
231 3 -0.81006 -1.76523 1.93651 10.8485
369 2 -0.0234433 -2.72105 4.23221 9.86592
163 2 0.233543 5.77262 1.73806 13.4152
155 2 0.25323 0.431321 3.80098 9.68558
156 2 0.160974 1.32139 2.23946 10.3083
157 2 0.217908 1.54467 3.92627 11.2187
158 2 0.169026 2.2701 3.7149 16.9426
159 2 0.18091 0.945148 3.57 15.4223
160 2 0.172644 2.44904 4.81204 15.3147
14 4 1.37079 -2.46419 6.19952 17.0618
87 1 -0.672194 -0.584057 6.69159 10.888
260 3 -0.872623 3.84034 3.45391 13.5316
182 2 0.249379 -0.8534 5.67714 11.4235
262 3 -0.808932 -0.0599049 5.64766 14.4855
359 2 0.17422 2.19519 5.43959 16.9518
232 3 -0.852071 0.211142 1.62731 12.6852
238 3 -0.81644 -1.19675 4.16151 12.3441
246 3 -0.781854 2.9551 1.15543 8.80375
249 3 -0.830785 2.37435 1.44318 14.2445
250 3 -0.822242 4.38642 2.29861 16.0054
251 3 -0.78171 5.34683 1.83847 10.1257
265 3 -0.759224 2.02523 6.28209 10.0305
355 2 0.19855 1.2389 2.08174 16.1983
144 2 0.171497 -4.46917 5.62694 10.3046
357 2 0.190671 1.33595 0.0955687 16.4229
161 2 0.165353 4.9951 0.120884 13.7973
140 2 0.168061 -4.20997 4.58277 17.1744
370 2 0.026645 -5.11396 6.12565 16.7207
1 4 1.27666 -6.30174 13.1641 2.4861
2 1 -0.666439 -5.80256 11.5811 1.46938
381 2 0.117457 -1.27131 10.2595 0.386213
4 2 0.161786 -5.46304 10.9434 2.3492
5 2 0.172513 -4.98549 11.6575 0.633754
6 3 -0.805122 -7.24808 12.5945 3.73134
345 2 0.119865 -1.97834 11.4062 1.67866
19 4 1.03129 -2.96416 8.09582 1.62613
27 4 1.23471 -1.47976 12.1713 7.62982
73 1 -0.673082 -4.02827 9.05767 0.468177
75 1 -0.712243 -5.03589 9.02948 8.20208
83 1 -0.70326 -0.499197 7.00599 3.84678
84 1 -0.657604 -2.18229 8.19018 6.11551
86 1 -0.648721 0.748019 7.58332 7.99996
88 1 -0.651457 -0.744632 10.2075 3.6827
109 2 0.00641463 -1.73308 9.10143 2.46084
347 2 0.186038 -2.54207 12.354 3.21388
221 2 0.147683 -7.46701 10.4466 7.36726
346 2 0.207794 -3.7794 12.028 1.82058
142 2 0.12396 -3.4891 10.0951 0.684367
143 2 0.207804 -5.13809 9.03422 0.831387
147 2 0.176327 -4.93471 8.803 7.103
343 2 0.14753 -6.34631 11.191 6.31765
172 2 0.185633 -0.61084 8.10729 3.79564
173 2 0.178665 -2.33133 8.57123 5.0543
174 2 0.161801 -1.06446 8.00678 6.35927
175 2 0.206969 -2.66117 8.86484 6.88134
179 2 0.140554 0.558203 6.81568 7.11398
114 2 -0.0129817 0.841525 10.0282 2.44043
185 2 0.10451 -0.566336 11.0298 2.80555
186 2 0.136441 -1.66615 10.3671 4.50171
187 2 0.125967 0.234064 9.51413 4.18044
382 2 0.178724 -3.33459 11.9633 0.168993
239 3 -0.795245 -4.03202 7.4157 2.65303
240 3 -0.854528 -2.22201 6.97701 0.755686
3 2 0.205939 -6.75776 11.2861 1.02617
267 3 -0.820504 1.97606 7.8499 3.0762
270 3 -0.772507 -2.28435 10.8039 8.44373
148 2 0.192729 -4.5883 9.96048 8.4586
320 2 0.00693291 -7.98896 12.2293 8.14693
319 1 -0.659233 -5.31617 12.2543 7.70269
321 2 0.19 -4.86412 12.6309 6.72182
322 2 0.16482 -5.2288 11.0545 7.76781
341 1 -0.663896 -6.93179 10.5372 5.41175
180 2 0.186113 1.51636 8.42965 7.68154
342 2 0.170851 -6.25307 10.0991 4.6715
248 3 -0.784013 -2.71079 13.3673 7.39702
344 1 -0.681283 -2.70219 12.1826 2.07333
20 4 1.30806 -8.19113 11.5222 4.41175
318 4 0.837024 -6.7673 13.4002 7.7216
272 3 -0.813606 -0.487042 11.8749 6.2591
349 2 0.159637 -0.405483 11.7997 0.0278664
181 2 0.160809 -0.27501 8.11326 8.39228
378 2 0.141954 -6.13273 9.01302 8.42911
21 4 1.11208 -4.07273 7.63769 9.1676
22 4 1.29674 -4.84137 8.77172 13.6251
23 4 1.05406 -5.26666 10.6017 11.1495
40 4 1.37581 -0.373687 7.22623 15.0855
43 4 1.43546 -2.45511 10.1695 9.97217
46 4 1.18751 -3.30366 10.8291 15.5138
76 1 -0.671387 -3.37538 7.83158 12.8442
77 1 -0.66433 -5.96185 12.2717 11.6166
89 1 -0.67511 -2.01175 9.98242 16.7022
90 1 -0.671285 -4.73246 11.8171 16.4192
110 2 0.0069637 -6.44879 10.5032 9.74276
184 2 0.250129 0.0707433 7.36017 11.5289
141 2 0.215828 -4.9065 8.63881 16.7991
149 2 0.237559 -3.32991 8.0911 11.7077
332 2 0.118336 -9.04729 11.9691 12.0752
151 2 0.273146 -2.38391 8.0391 13.3891
264 3 -0.830751 -2.05954 7.18425 15.9403
153 2 0.129063 -6.79327 11.9671 12.3397
154 2 0.144029 -6.24621 12.6539 10.5547
152 2 0.171956 -5.0332 12.9655 12.1615
386 2 0.156397 -9.55529 12.8079 15.4469
188 2 0.159337 -0.869056 10.4195 16.4695
189 2 0.277088 -2.05071 8.81652 16.485
190 2 0.177639 -5.68401 11.3112 16.2811
191 2 0.208313 -4.68539 12.7469 15.8324
242 3 -0.821042 -5.71937 7.81966 14.6734
243 3 -0.826995 -5.58455 9.63344 12.3204
263 3 -0.827919 0.99434 7.72438 16.0587
371 2 0.00295557 -8.49616 12.7947 13.7798
269 3 -0.814929 -2.85336 8.33586 9.87673
271 3 -0.821697 -3.72461 10.7347 10.7342
273 3 -0.788613 -0.451477 8.26353 13.9198
274 3 -0.7789 -4.04147 9.7032 14.6499
275 3 -0.830243 -2.59113 11.9614 14.6763
276 3 -0.833106 -1.05367 10.4873 10.7968
183 2 0.254251 -1.49966 7.27892 10.4828
30 4 1.15519 -2.14979 13.2602 13.9563
146 2 0.172885 -5.09174 6.84322 11.6032
150 2 0.157544 -3.82843 6.77304 13.0962
364 2 0.212057 -0.792716 11.6187 12.9206
277 3 -0.812581 1.07044 9.19706 11.6312
323 2 0.223318 -4.82694 12.7562 8.70854
168 2 0.152352 7.47371 3.64492 8.28581
314 3 -0.863702 14.6759 0.00450565 6.8631
48 4 1.30009 9.4365 2.3094 3.68027
50 4 1.50098 13.2802 0.540296 7.31981
51 4 1.55648 12.0635 2.52835 5.21987
55 4 1.30852 10.5183 4.38479 1.92104
196 2 0.156515 8.18682 6.03583 5.33056
58 4 0.858538 10.5982 4.46053 7.44019
91 1 -0.698043 8.165 2.38556 6.82795
92 1 -0.687191 7.5326 5.60516 4.47846
94 1 -0.659178 9.59684 6.33308 6.85746
118 2 0.00863267 8.3852 2.83138 4.94556
325 3 -0.883053 14.2449 1.61787 2.55489
123 2 0.0112543 9.71009 5.43113 0.821987
124 2 0.0481731 8.72201 4.94671 6.95556
125 2 -0.0165476 6.23505 4.7006 7.40597
105 2 -0.0596907 16.2131 0.126132 0.344263
126 2 -0.0235981 6.91587 6.11702 8.48012
366 1 -0.633874 7.99831 6.37567 0.67501
192 2 0.1346 7.85111 3.40714 6.49747
193 2 0.169993 8.99233 1.95802 6.28092
194 2 0.150703 8.29845 2.22453 7.97818
195 2 0.162103 6.91983 4.75193 4.92996
361 2 0.183463 4.49081 6.33322 0.715905
326 3 -0.836324 12.2741 0.997065 0.66005
368 2 0.184094 8.39921 6.30878 1.70732
279 3 -0.772343 13.3819 1.94602 8.51103
203 2 0.118463 10.849 6.37961 7.34023
253 3 -0.813587 6.16649 3.79431 0.740236
278 3 -0.780491 8.77761 0.959585 3.2031
280 3 -0.832033 13.3963 3.14386 4.4894
281 3 -0.836996 10.9195 2.10152 4.22925
282 3 -0.80916 12.4108 1.15149 6.1433
288 3 -0.832765 9.421 3.4556 2.43545
289 3 -0.865453 11.6656 3.68493 1.03396
290 3 -0.806763 11.1575 5.27975 3.22414
291 3 -0.783562 5.36968 5.57935 2.61323
293 3 -0.786078 11.3469 3.60261 6.34627
324 4 1.25219 13.3601 0.481229 1.84593
197 2 0.183675 8.19526 5.19146 3.66364
367 2 0.207716 6.84318 6.47374 0.760086
56 4 1.12075 6.12345 6.66963 3.55051
13 4 1.39522 11.7218 6.60957 3.78513
49 4 1.28888 11.8417 2.44773 0.0838041
9 4 1.20833 13.529 2.64004 10.1537
379 2 0.248382 8.10592 0.229584 17.1509
32 4 1.11732 6.50056 2.88572 10.7249
39 4 1.2823 4.67778 4.43565 12.7072
294 3 -0.827342 4.75453 6.69051 9.96533
52 4 1.23204 12.6989 0.708237 14.3137
53 4 1.51663 8.24415 2.54433 15.5581
54 4 1.24691 11.4413 2.70549 12.3099
60 4 1.47208 9.58319 4.69208 13.5496
317 3 -0.756377 13.9988 0.136077 13.5241
81 1 -0.681452 8.10862 2.01784 11.2262
82 1 -0.687717 7.04913 4.27897 9.17714
301 3 -0.786553 8.6166 5.68232 12.5631
96 1 -0.691219 4.89141 5.75272 15.722
119 2 -0.0178658 12.0481 2.99588 16.3337
120 2 -0.0604813 13.0082 1.38328 15.8308
121 2 0.0146313 9.91156 1.8718 11.9652
127 2 0.0078057 5.45093 5.49531 13.7833
167 2 0.178476 6.02988 4.72365 9.07331
145 2 0.0998899 10.4475 6.39318 9.91578
164 2 0.143701 8.83526 2.34532 10.3247
165 2 0.174155 7.92477 0.951101 11.2505
166 2 0.216578 8.3521 2.56276 12.2396
169 2 0.153756 7.82533 5.01827 9.56367
95 1 -0.675515 10.1628 3.58351 8.94612
205 2 0.15298 10.9077 4.24811 9.6599
204 2 0.143313 9.00292 3.85144 9.13398
207 2 0.164204 4.53284 5.76989 16.8911
208 2 0.202489 5.88014 5.12794 15.6118
209 2 0.139022 4.0714 5.29205 15.0354
261 3 -0.801969 5.97239 3.70024 12.0201
297 3 -0.849552 9.82499 5.46014 14.9241
283 3 -0.791327 7.92095 0.946082 14.9701
284 3 -0.848333 9.41688 2.31581 16.5821
285 3 -0.867615 6.86278 3.06889 16.3105
286 3 -0.851678 12.1696 2.5789 10.9382
287 3 -0.837188 12.09 1.929 13.5332
41 4 1.25862 3.52482 6.4843 10.855
295 3 -0.823129 8.72114 3.40821 14.1559
296 3 -0.815982 11.0249 4.30345 12.7975
26 4 1.58439 5.58612 2.61271 17.0556
352 2 0.159464 8.73075 0.760978 8.71899
206 2 0.202861 10.3872 2.45257 9.09971
139 2 0.185051 12.0037 4.76716 15.3694
383 2 0.192245 7.27844 5.59314 17.1959
201 2 0.120358 9.00237 7.07135 7.44404
42 4 1.20442 2.31735 9.24029 2.42625
44 4 1.03336 0.216932 11.6612 4.84505
63 4 1.26773 7.31049 9.37958 2.05211
64 4 1.51176 3.22758 11.6805 3.9147
65 4 0.986753 6.71735 9.80349 7.9721
350 2 0.187323 0.832326 12.8636 1.18079
67 4 1.47794 5.57323 12.053 5.97612
69 1 -0.668169 10.0343 7.51636 3.9407
93 1 -0.656295 4.83953 7.41059 4.72551
99 1 -0.68326 5.87178 10.1312 1.16236
131 2 0.148898 10.2603 8.22165 4.87506
101 1 -0.656138 2.70964 9.96629 7.09843
129 2 -0.0106513 8.14296 9.15359 7.11075
384 2 0.212993 1.83916 12.473 0.21906
100 1 -0.633613 8.73314 10.3239 8.48514
377 2 0.129729 8.98433 9.67403 5.83892
200 2 0.229726 4.81096 8.50745 4.35124
216 2 0.252708 5.02439 10.3187 1.8955
375 2 0.178989 9.12269 6.77215 4.08735
218 2 0.13575 6.35799 11.1147 0.78858
376 2 0.208161 9.90176 8.11105 3.05648
222 2 0.185571 1.6365 9.81226 6.68622
223 2 0.162722 3.22723 8.98704 7.37856
268 3 -0.814844 2.73092 9.0747 0.884037
302 3 -0.780567 6.84275 7.91015 2.64608
303 3 -0.788338 8.66474 9.01593 0.848996
304 3 -0.779884 7.85003 10.392 3.18486
305 3 -0.795236 3.58499 10.2097 3.19506
306 3 -0.836437 3.14775 12.9029 2.80071
307 3 -0.83371 1.78191 11.5191 4.67614
309 3 -0.803836 2.93471 12.7307 8.03662
311 3 -0.789416 7.21561 12.2142 5.22986
312 3 -0.862794 4.42417 11.8023 4.96908
313 3 -0.813188 5.85607 10.6625 6.88624
373 2 -0.0467089 5.00374 12.9251 1.03503
348 1 -0.6769 -0.210108 12.8523 0.601753
224 2 0.253185 3.42719 10.5329 6.40521
380 2 0.243392 0.677238 12.9359 8.4697
217 2 0.266588 5.47042 9.43181 0.223895
199 2 0.259812 3.81777 6.96097 4.65305
66 4 1.13998 2.67006 11.2648 8.61057
198 2 0.1429 5.42487 7.18539 5.71946
372 2 0.102443 -0.257161 13.0831 4.08159
202 2 0.182818 9.61593 6.76094 5.80082
351 1 -0.659682 -0.357754 13.0887 8.81849
35 4 1.25107 2.12014 8.01071 17.0936
353 2 0.176041 -0.638917 12.7379 9.86939
336 2 0.172268 7.63755 11.1968 14.7054
57 4 1.31762 7.6058 7.95639 17.0634
130 2 0.151076 2.2088 11.225 16.9351
61 4 1.11008 4.92741 7.63999 15.6639
68 4 1.09266 1.30692 11.8413 15.0003
97 1 -0.673762 4.46499 7.79994 13.6219
98 1 -0.659234 7.96332 8.45136 13.1606
102 1 -0.669593 0.984674 11.5388 16.9004
103 1 -0.663208 4.19027 10.995 9.70599
115 2 -0.00346683 3.41031 7.81374 11.9201
116 2 0.00550767 2.55526 8.30384 13.9561
117 2 0.0210995 0.819715 11.7355 12.0463
308 3 -0.844527 6.14353 8.62592 8.86993
210 2 0.1313 3.68458 7.06178 13.4607
211 2 0.165969 5.43588 7.48332 13.1856
212 2 0.162946 4.16973 8.95707 13.4698
59 4 1.22914 6.25051 7.23838 9.60733
214 2 0.237818 8.32518 8.14482 14.1879
215 2 0.195071 6.87167 8.61209 13.0203
128 2 -0.00868309 10.0003 7.58996 11.1083
220 2 0.0604409 7.45246 11.2289 9.07357
47 4 1.27452 0.489465 10.4569 10.9405
226 2 0.0736915 -0.288212 12.2906 15.7274
227 2 0.193523 4.86517 11.797 9.34057
62 4 1.02882 8.47043 7.14352 11.8831
229 2 0.171603 4.00957 10.9983 10.9251
292 3 -0.862478 8.97575 7.28516 16.5309
298 3 -0.796568 6.45938 8.13185 15.8616
299 3 -0.817376 3.83812 8.55817 16.2956
228 2 0.201311 4.40459 9.96649 9.28525
310 3 -0.787207 1.35716 10.8356 9.58874
315 3 -0.87417 1.09231 10.5297 14.2141
316 3 -0.870263 2.1439 13.0645 14.5635
327 4 0.903849 5.50058 12.2544 13.3225
328 1 -0.658376 6.45754 12.1667 11.758
329 1 -0.647027 3.83435 10.9404 12.9531
330 1 -0.658603 6.74916 11.8619 14.8444
331 2 0.150305 5.97857 11.1501 11.2923
45 4 1.10764 1.09716 9.11326 13.4599
333 2 0.133776 4.19911 10.0253 12.3001
334 2 0.181293 3.1367 11.654 12.3861
335 2 0.177093 3.3617 10.7121 13.972
363 2 0.156533 -1.09744 12.9385 11.5089
337 2 0.146483 5.89535 11.3299 15.477
362 1 -0.691424 -0.778844 12.7205 12.6383
300 3 -0.834942 7.26998 7.29013 10.7792
213 2 0.16319 8.55703 9.3249 12.7712
385 2 0.223695 6.26699 13.1728 11.2042
219 2 0.123239 8.88027 9.28771 8.90581
365 2 0.17767 0.0799112 13.32 12.9869
225 2 0.185034 0.322033 10.6193 17.2038
18 4 1.28042 10.1978 6.76313 15.7228
ITEM: TIMESTEP
100
ITEM: NUMBER OF ATOMS
386
ITEM: BOX BOUNDS xy xz yz pp pp pp
-1.0522200000000000e+01 1.6607800000000001e+01 -9.4504999999999999e+00
0.0000000000000000e+00 1.3480507200000002e+01 -1.0717000000000001e+00
0.0000000000000000e+00 1.7350200000000001e+01 3.4067999999999998e-03
ITEM: ATOMS id type q x y z
8 4 1.03574 0.863161 1.09265 0.830336
12 4 1.45246 -0.0181132 4.149 1.56099
107 2 0.0802183 -2.30993 3.10105 7.92295
15 4 1.04578 -1.23123 4.20188 7.1975
25 4 1.21787 5.15889 1.44517 3.87763
29 4 1.26855 6.54244 1.28561 6.41595
34 4 1.30065 1.28429 6.31643 3.52644
171 2 0.229012 -1.11793 6.47695 2.95897
36 4 1.21479 4.87091 3.91212 7.10477
38 4 0.998408 2.41133 5.33324 6.25831
70 1 -0.669772 -0.057516 2.86262 6.32449
85 1 -0.64041 3.477 3.30625 1.71336
104 2 -0.00892004 -0.797101 2.29691 4.5823
340 2 0.167057 3.34654 0.251683 5.65908
33 4 1.31177 5.36177 3.80176 1.97393
111 2 0.0318389 3.91671 1.79424 5.04587
113 2 0.0225299 1.41677 4.11225 6.85812
132 2 0.123908 0.0158336 3.62165 5.35347
133 2 0.141948 -1.08599 2.14699 6.24459
134 2 0.174247 0.918043 2.19834 6.359
339 2 0.16567 2.74259 2.03489 5.87913
176 2 0.217992 3.51135 2.45681 0.956843
177 2 0.222162 2.95326 4.2147 1.36381
178 2 0.205921 3.11456 3.01885 2.76582
230 3 -0.807623 2.11456 0.585364 1.63148
233 3 -0.817315 -1.4691 3.951 2.54828
234 3 -0.818493 0.555945 2.64292 1.156
235 3 -0.871837 -0.342342 5.09427 0.352756
374 2 0.192669 1.47609 0.607637 5.64288
237 3 -0.814046 -2.05787 5.32799 6.37797
255 3 -0.826787 4.12172 3.58794 8.54056
244 3 -0.817438 4.55584 0.36869 2.84656
247 3 -0.77053 6.47466 0.726881 4.84534
252 3 -0.849325 5.57044 2.82314 3.20015
254 3 -0.791333 1.16275 4.97667 2.45482
256 3 -0.851248 5.36816 2.43754 6.5579
258 3 -0.855297 1.88701 5.83827 4.92327
259 3 -0.84571 3.91097 4.81864 6.27071
338 1 -0.66864 2.49893 0.967175 6.0492
16 4 1.31025 -3.00879 6.58433 6.36815
122 2 0.0199995 2.12569 6.60339 7.39572
257 3 -0.808506 -0.353381 4.84862 8.30208
360 2 0.235139 2.29301 6.24005 1.07833
236 3 -0.767492 -4.21632 6.53407 5.26284
7 4 1.36481 -2.06809 2.80487 3.39789
358 1 -0.661444 3.36116 6.30064 0.590798
245 3 -0.803272 7.00441 1.24783 0.36863
318 4 0.846247 2.60693 0.137883 7.85293
24 4 1.04973 7.84733 0.176485 1.43911
170 2 0.201832 -0.73002 6.21806 4.77781
10 4 0.976749 1.44321 0.628254 13.288
11 4 1.21061 -0.484626 2.40628 11.591
162 2 0.179369 5.67136 0.680145 12.1551
17 4 1.04864 -1.18046 4.59697 14.0083
28 4 1.28966 3.83643 2.42968 9.53615
354 1 -0.649582 0.347881 0.970096 16.391
31 4 1.32998 3.32309 2.59367 14.8691
37 4 1.0355 0.54511 6.22744 9.35714
356 2 0.141262 -0.690432 0.824894 15.9448
71 1 -0.724309 -1.09026 3.09495 15.1756
72 1 -0.689887 -3.8234 4.99332 16.128
106 2 -0.00277489 2.43187 0.38362 11.9694
78 1 -0.687245 0.785901 3.11682 10.3503
79 1 -0.664435 1.99741 3.65581 15.7954
80 1 -0.688573 5.6186 0.849579 13.2456
74 1 -0.687257 -5.22388 6.67279 10.4669
266 3 -0.879121 3.87188 5.19564 11.7999
108 2 0.00327188 -2.7263 5.08862 14.4892
112 2 0.0353029 2.74354 3.07417 10.6846
135 2 0.234674 -0.4289 2.42617 14.5365
136 2 0.14014 -2.13514 2.78171 15.1773
137 2 0.209034 -0.73192 3.33496 16.1768
138 2 0.139394 -3.16867 4.08359 15.9904
231 3 -0.799321 -1.72864 1.89002 10.7464
369 2 -0.0130588 -2.76598 4.12868 9.93987
163 2 0.249958 5.69567 1.94655 13.5771
155 2 0.246849 0.286536 3.73362 9.44935
156 2 0.158079 1.31827 2.10941 10.1037
157 2 0.187027 1.32 3.80986 11.1524
158 2 0.158855 2.2239 3.53451 17.0692
159 2 0.194112 0.857248 3.48362 15.5517
160 2 0.181732 2.26707 4.65485 15.3226
14 4 1.32094 -2.38065 6.15611 16.9856
87 1 -0.667278 -0.596321 6.55227 10.8765
260 3 -0.836987 3.91315 3.47112 13.6255
182 2 0.255452 -0.80505 5.53113 11.5062
262 3 -0.798873 -0.00720077 5.6476 14.4576
359 2 0.17381 2.35588 5.5917 17.0887
232 3 -0.813081 0.225357 1.41258 12.7452
238 3 -0.760259 -1.02864 4.07339 12.49
246 3 -0.830064 3.03357 1.24151 8.94712
249 3 -0.81292 2.37139 1.34329 14.2899
250 3 -0.831845 4.56527 2.17747 15.7858
251 3 -0.811081 5.3159 2.00088 10.149
265 3 -0.778536 2.02761 6.14042 10.0035
355 2 0.200626 0.912273 2.03799 16.1146
144 2 0.172982 -4.61116 5.73393 10.495
139 2 0.173181 -4.26044 5.47209 15.1083
150 2 0.173695 -3.85819 6.50494 12.8693
140 2 0.178186 -4.4418 4.9514 17.0892
370 2 0.0334109 -5.062 6.45361 16.6543
161 2 0.179682 4.6909 0.350593 13.7222
357 2 0.166042 1.04167 0.0223547 16.2518
1 4 1.33283 -6.3381 13.1299 2.51025
2 1 -0.658581 -5.86972 11.546 1.43951
381 2 0.124997 -1.43658 10.0889 0.468411
4 2 0.162157 -5.46298 10.8019 2.21704
5 2 0.172533 -5.07998 11.6748 0.53636
6 3 -0.808772 -7.12747 12.6119 3.7643
345 2 0.113036 -1.99731 11.4792 1.9711
19 4 1.00938 -2.91071 8.11971 1.72577
27 4 1.26265 -1.64709 12.1113 7.76307
73 1 -0.677089 -3.94265 9.18199 0.665914
75 1 -0.64765 -5.23045 8.84938 8.26089
83 1 -0.690961 -0.546339 6.82627 3.81276
84 1 -0.682209 -1.85259 8.12518 6.14501
86 1 -0.658843 0.629564 7.65333 8.12137
88 1 -0.635749 -0.571183 10.0444 3.80604
109 2 0.0133796 -1.68479 9.13184 2.65944
347 2 0.242687 -2.68386 12.8708 3.27363
221 2 0.151118 -7.45001 10.7067 7.38771
346 2 0.209887 -3.8188 12.0782 1.98414
142 2 0.121013 -3.56043 10.1949 1.13724
143 2 0.226967 -5.07084 9.01805 0.688326
147 2 0.184451 -5.49111 8.56093 7.17394
343 2 0.159148 -6.31779 11.3463 6.31887
172 2 0.17288 -0.559849 7.99966 3.95171
173 2 0.167538 -2.20015 8.83601 5.35872
174 2 0.172507 -0.838732 7.79947 5.95421
175 2 0.204888 -2.00724 8.58235 7.19192
179 2 0.154076 0.165355 7.25669 7.14871
114 2 -0.0228825 0.786649 10.0297 2.27239
185 2 0.0662774 -0.648883 11.242 3.10483
186 2 0.169611 -1.41215 9.90935 4.60437
187 2 0.13538 0.513278 9.62027 4.05411
382 2 0.166021 -3.38119 12.0385 0.280376
239 3 -0.786361 -3.93783 7.29476 2.76059
240 3 -0.815197 -2.12188 7.18049 0.682882
3 2 0.2041 -6.90324 11.2928 1.15022
267 3 -0.827496 2.03761 7.68305 2.96183
270 3 -0.833194 -2.22225 10.8435 8.43497
148 2 0.15103 -4.87357 10.0463 8.3696
320 2 0.014552 -8.15081 12.4706 8.39976
319 1 -0.668661 -5.35096 12.3938 7.85582
321 2 0.207981 -4.86622 12.502 6.86401
322 2 0.154178 -5.5191 11.3046 8.15983
341 1 -0.660777 -6.80114 10.6766 5.45045
180 2 0.182115 1.44331 8.46939 7.87966
342 2 0.178504 -6.06478 10.3249 4.73394
248 3 -0.772225 -2.76228 13.3139 7.19339
344 1 -0.685002 -2.73976 12.3243 2.19715
20 4 1.32251 -8.23943 11.5372 4.45656
100 1 -0.638894 -7.87614 10.5621 8.50168
272 3 -0.743489 -0.717172 11.7866 6.13019
241 3 -0.810771 -3.60283 6.77776 8.03134
323 2 0.242073 -4.66377 12.9821 8.58682
21 4 1.13661 -4.01325 7.69156 9.19953
22 4 1.27063 -4.76193 8.72109 13.615
23 4 1.04817 -5.30287 10.5895 11.0998
40 4 1.40213 -0.25854 7.16762 15.0962
43 4 1.43549 -2.37471 10.2459 9.98634
46 4 1.15957 -3.31207 10.9319 15.535
76 1 -0.698329 -3.48787 7.57698 12.8485
77 1 -0.654359 -5.8948 12.2121 11.6785
89 1 -0.681488 -2.06455 9.97572 16.7741
90 1 -0.639852 -4.7268 11.8805 16.4244
110 2 -0.00146392 -6.38088 10.6056 9.70778
184 2 0.230599 0.20194 7.25445 11.3558
141 2 0.192514 -4.52326 8.88569 16.9985
149 2 0.255779 -3.19954 7.86842 11.7709
181 2 0.164167 -0.255437 8.19143 8.7881
151 2 0.2269 -2.62493 7.75834 13.6051
264 3 -0.842485 -1.93812 7.09348 15.7886
153 2 0.108084 -6.78304 11.9778 12.4116
154 2 0.142533 -6.3216 12.6047 10.6845
152 2 0.163502 -5.03862 13.0178 12.2191
386 2 0.160827 -9.69251 12.6973 15.4338
188 2 0.1607 -1.00768 10.3746 16.6478
189 2 0.263046 -2.04729 8.84738 16.4387
190 2 0.170721 -5.5803 11.1142 16.2645
191 2 0.217537 -4.88305 12.8491 15.8465
242 3 -0.849517 -5.81562 7.8981 14.4986
243 3 -0.800903 -5.6173 9.45604 12.0587
263 3 -0.863759 0.814829 7.69828 16.1947
371 2 -0.00870502 -8.51321 12.5487 13.9178
269 3 -0.811229 -2.84178 8.39475 10.0392
271 3 -0.788657 -3.72934 10.9038 10.7253
273 3 -0.785999 -0.147735 8.22615 13.7841
274 3 -0.79365 -4.0784 9.79924 14.6137
275 3 -0.833288 -2.58723 12.1422 14.8246
276 3 -0.852576 -1.03758 10.4067 10.7362
183 2 0.246511 -1.50183 7.16438 10.5725
30 4 1.17569 -2.28914 13.4019 13.963
146 2 0.195789 -5.33957 7.11271 11.4928
378 2 0.115064 -6.11487 8.66788 8.99176
364 2 0.202495 -0.83139 11.8152 12.7728
349 2 0.16843 -1.55696 11.8432 17.306
168 2 0.130878 7.51416 3.61039 8.26316
49 4 1.279 11.9345 2.57368 0.0195973
48 4 1.25069 9.4167 2.29408 3.62442
50 4 1.52441 13.2411 0.487264 7.23635
51 4 1.55684 12.132 2.59799 5.15259
55 4 1.34561 10.4389 4.40828 1.87421
196 2 0.161112 8.32203 6.04947 5.47393
58 4 0.825087 10.6063 4.5188 7.43347
91 1 -0.690887 8.19461 2.34179 6.86265
92 1 -0.689556 7.60208 5.69469 4.58987
94 1 -0.649534 9.6659 6.51406 6.94386
118 2 -0.000132692 8.42657 2.80212 4.96713
325 3 -0.883115 14.2051 1.48562 2.59741
123 2 0.00486758 9.67926 5.40221 0.707171
124 2 0.028298 8.85669 4.98316 6.85733
125 2 -0.0300121 6.29921 4.81759 7.441
383 2 0.203282 8.09418 5.41609 0.14416
126 2 -0.0169126 6.73318 6.10282 8.49702
366 1 -0.681351 7.95522 6.31715 0.814848
192 2 0.118326 8.02424 3.41858 6.42174
193 2 0.157986 8.97838 1.67763 6.25913
194 2 0.157039 8.47155 2.39546 7.93998
195 2 0.144583 6.83838 4.96619 5.03069
361 2 0.245869 4.16631 6.07365 1.3942
326 3 -0.829693 12.3141 1.22614 0.795088
368 2 0.15499 8.52018 6.18183 1.84093
279 3 -0.777315 13.5011 1.88753 8.56717
203 2 0.12288 10.7848 6.28438 7.58009
253 3 -0.83482 5.97106 3.65763 0.54177
278 3 -0.770313 8.86761 0.924771 2.89135
280 3 -0.824147 13.3534 3.23483 4.30915
281 3 -0.827588 10.8594 2.06629 4.30725
282 3 -0.8457 12.7395 1.31562 6.0043
288 3 -0.842905 9.31759 3.54486 2.47655
289 3 -0.839201 11.6119 3.72539 1.08796
290 3 -0.806492 11.0586 5.30397 3.04978
291 3 -0.762679 5.43545 5.53884 2.68364
293 3 -0.763165 11.426 3.67462 6.38604
324 4 1.29226 13.3972 0.439374 1.8154
197 2 0.188281 8.17192 5.13739 3.80807
367 2 0.209537 6.82526 6.61476 0.877265
56 4 1.11421 6.1659 6.67053 3.61715
13 4 1.35744 11.6187 6.65351 3.727
105 2 -0.0538922 16.1816 0.0650406 1.21535
9 4 1.23736 13.5333 2.50208 10.0917
379 2 0.224749 8.06371 0.281515 16.9171
32 4 1.15111 6.4974 2.90443 10.7896
39 4 1.30822 4.81875 4.46358 12.7662
352 2 0.163548 8.29889 0.74178 8.81383
52 4 1.25364 12.7816 0.768352 14.3246
53 4 1.50501 8.29732 2.57235 15.3702
54 4 1.24428 11.2677 2.69079 12.4637
60 4 1.46955 9.41048 4.7805 13.6559
317 3 -0.772697 14.0991 0.0880457 13.7196
81 1 -0.673958 8.1147 1.86838 11.1168
82 1 -0.681521 7.07422 4.29422 9.25067
301 3 -0.795566 8.60504 5.7998 12.6071
96 1 -0.678929 5.07942 5.8162 15.6989
119 2 -0.0224746 12.2265 3.04369 16.4749
120 2 -0.0500862 13.5397 1.25443 15.7911
121 2 0.00639978 9.84949 1.82343 12.0541
127 2 0.0099841 5.62073 5.62904 13.8164
167 2 0.181171 5.99474 4.60867 9.26858
145 2 0.136446 10.4671 6.63553 9.94149
164 2 0.162382 8.96025 2.36798 10.449
165 2 0.151489 7.89263 0.708381 10.7823
166 2 0.21385 8.05241 2.03226 12.2588
169 2 0.169087 7.80513 5.01364 9.72316
95 1 -0.677578 10.1706 3.52875 9.04164
205 2 0.157416 10.919 4.22978 9.66259
204 2 0.148685 9.00242 3.75647 9.16878
207 2 0.193726 4.59347 5.941 16.8222
208 2 0.221739 6.04827 5.30219 15.8052
209 2 0.150433 4.32389 5.31072 15.077
261 3 -0.835583 6.00386 3.75921 12.0028
297 3 -0.858321 9.88255 5.6102 14.9592
283 3 -0.847881 7.89979 1.2048 14.7194
284 3 -0.852493 9.61946 2.39536 16.3567
285 3 -0.840535 6.95893 3.34837 16.3183
286 3 -0.788431 12.2588 2.50984 11.0712
287 3 -0.847362 12.0858 1.9904 13.6088
41 4 1.23771 3.47074 6.40502 10.9056
295 3 -0.856043 8.5504 3.50456 14.0512
296 3 -0.790571 10.9069 4.19276 12.7296
26 4 1.56742 5.67645 2.55767 16.9006
206 2 0.201533 10.4042 2.47049 8.98446
365 2 0.153032 9.40981 0.073495 12.6765
201 2 0.136343 9.06123 7.24741 7.51562
42 4 1.18953 2.27399 9.15128 2.38704
44 4 1.00082 0.207875 11.7842 4.80787
63 4 1.25834 7.40753 9.43138 2.11116
64 4 1.51551 3.27193 11.5967 3.88139
65 4 1.00273 6.71099 9.9031 8.07387
350 2 0.193899 0.856285 13.1322 0.748806
67 4 1.47189 5.63429 12.091 6.01428
69 1 -0.684797 10.0936 7.72306 3.9545
93 1 -0.635757 4.72908 7.35989 4.71001
99 1 -0.667979 5.88287 9.97497 1.17609
131 2 0.152864 10.2853 8.34705 4.90396
101 1 -0.670546 2.962 9.77063 7.26587
129 2 0.00361902 8.19262 9.38007 7.17248
384 2 0.177319 2.05116 12.5007 0.115644
372 2 0.0959429 -0.113582 13.1397 3.84405
377 2 0.136701 9.14916 9.83421 5.78224
200 2 0.249914 4.61234 8.45794 4.48287
216 2 0.242174 5.02956 10.2596 1.92226
375 2 0.171734 9.11871 6.90394 4.10375
218 2 0.132599 6.22333 10.9351 0.661528
376 2 0.200319 10.0398 8.31886 3.04553
222 2 0.171196 1.92443 9.77553 6.77349
223 2 0.181761 3.21559 8.78763 7.77994
268 3 -0.808741 2.90188 9.08787 0.911881
302 3 -0.754667 6.7834 8.0596 2.92829
303 3 -0.790635 8.62666 9.03317 0.981527
304 3 -0.804021 7.86393 10.5927 3.29533
305 3 -0.810902 3.4258 10.1486 3.31788
306 3 -0.845919 3.33979 12.7898 2.76417
307 3 -0.799902 1.80612 11.6521 4.80058
309 3 -0.773206 2.76546 12.8934 7.84334
311 3 -0.838725 7.19974 12.1453 5.39709
312 3 -0.829017 4.5521 11.7853 4.87445
313 3 -0.777721 5.75365 10.6227 7.04361
373 2 -0.0608313 5.02932 13.0883 0.779912
348 1 -0.678524 -0.229577 12.9202 0.347046
224 2 0.256601 3.69579 10.092 6.4789
380 2 0.218914 0.366447 13.2359 8.14462
217 2 0.259767 5.46786 9.2601 0.43224
314 3 -0.86248 5.21441 13.3149 7.03621
66 4 1.11691 2.62082 11.1574 8.59685
198 2 0.142655 5.35088 7.22544 5.69209
202 2 0.178377 9.92354 6.86717 5.82776
199 2 0.266454 3.79216 6.73948 4.7292
351 1 -0.676651 -0.506606 13.1904 8.83657
35 4 1.28596 2.12832 8.00152 17.0792
353 2 0.169688 -0.192279 12.8805 9.88853
336 2 0.153871 7.47506 11.1332 14.37
57 4 1.22204 7.65724 7.81897 17.2678
130 2 0.152764 2.33381 11.0889 16.8057
61 4 1.09537 4.9691 7.69759 15.4095
68 4 1.05876 1.27962 11.8778 14.9384
97 1 -0.700373 4.42244 7.67349 13.4557
98 1 -0.658778 7.78054 8.41964 13.1081
102 1 -0.668984 1.13191 11.5179 16.8113
103 1 -0.675604 4.09237 11.002 9.84304
115 2 0.0174782 3.29211 7.80668 11.8494
116 2 0.00101193 2.56242 8.19097 13.8491
117 2 0.00408581 0.589216 11.9494 11.7175
308 3 -0.822585 6.11433 8.6389 8.82784
210 2 0.126275 3.55779 6.83031 13.2477
211 2 0.158111 5.45769 7.39785 12.9638
212 2 0.149058 4.17407 8.77692 13.2627
59 4 1.24521 6.08913 7.19929 9.60349
214 2 0.232676 7.26534 8.0281 14.0218
215 2 0.155976 6.98537 9.06821 12.5139
128 2 0.000142625 9.78776 7.73734 10.9414
220 2 0.0503492 7.29489 11.2235 9.26502
47 4 1.21481 0.580834 10.5368 10.7923
226 2 0.0571669 -0.14439 12.4957 15.6947
227 2 0.187321 4.69024 11.8943 9.64542
62 4 1.05864 8.35906 7.18651 11.8366
229 2 0.174216 3.99335 10.9069 10.9804
292 3 -0.84255 9.2011 7.558 16.7019
298 3 -0.768729 6.40137 8.18461 15.8741
299 3 -0.82184 3.72403 8.10667 16.3581