ITEM: TIMESTEP
0
ITEM: NUMBER OF ATOMS
386
ITEM: BOX BOUNDS xy xz yz pp pp pp
-1.0522200000000000e+01 1.6607800000000001e+01 -9.4504999999999999e+00
0.0000000000000000e+00 1.3453600000000000e+01 -1.0717000000000001e+00
0.0000000000000000e+00 1.7350200000000001e+01 3.3999999999999998e-03
ITEM: ATOMS id type q x y z
8 4 1.02614 0.889264 1.22882 0.657599
12 4 1.40431 -0.134071 4.31477 1.54476
107 2 0.071279 -2.271 2.98603 7.89647
15 4 1.03834 -1.19398 4.19112 7.26247
25 4 1.20169 5.1785 1.55587 3.95095
29 4 1.2899 6.61118 1.19156 6.45363
34 4 1.28307 1.25999 6.35743 3.59227
171 2 0.220362 -1.04685 6.44074 3.04906
36 4 1.16587 4.7903 3.75589 7.0604
38 4 0.970471 2.54721 5.22428 6.24775
70 1 -0.673153 -0.0439331 3.01364 6.17765
85 1 -0.665104 3.41381 3.4674 1.63935
104 2 0.00879748 -0.676924 2.37388 4.41994
340 2 0.160616 3.20153 0.34504 5.46228
33 4 1.33951 5.25547 3.98733 2.04627
111 2 0.0105794 3.88596 1.93229 5.14035
113 2 0.0279618 1.55363 3.92026 6.8736
132 2 0.168889 -0.0846426 3.76385 5.28121
133 2 0.147078 -0.959624 2.17685 6.21611
134 2 0.16433 0.989729 2.41001 6.17012
339 2 0.144207 2.77775 2.17084 6.03624
176 2 0.224329 3.35412 2.46543 1.07664
177 2 0.206988 2.95944 4.34707 1.08594
178 2 0.21132 3.01297 3.33428 2.69366
230 3 -0.775597 2.10325 0.621447 1.53116
233 3 -0.836597 -1.46114 4.10433 2.58719
234 3 -0.789084 0.300447 2.71636 0.988383
235 3 -0.856463 -0.202671 5.26898 0.260859
374 2 0.194833 1.35913 0.849885 5.69288
237 3 -0.80635 -1.78134 5.27293 6.2875
255 3 -0.814035 3.92785 3.58944 8.56794
244 3 -0.788843 4.55795 0.452907 2.81463
247 3 -0.801274 6.41696 0.882241 4.82515
252 3 -0.815472 5.63547 2.92555 3.19488
254 3 -0.760566 1.18497 5.02294 2.54914
256 3 -0.845048 5.46127 2.3167 6.81352
258 3 -0.822387 1.9634 5.80695 4.91428
259 3 -0.83966 4.02584 4.68503 6.01053
338 1 -0.645936 2.4447 1.00786 6.03479
16 4 1.24078 -2.9838 6.47034 6.47024
122 2 0.0165441 2.28546 6.53238 7.3807
257 3 -0.804016 -0.239102 4.74655 8.43196
360 2 0.244184 2.81756 6.15334 1.35299
236 3 -0.78904 -4.15325 6.62003 5.19849
7 4 1.35074 -2.06088 2.88479 3.40536
358 1 -0.690475 3.42826 6.3192 0.452353
245 3 -0.762086 7.03863 1.24172 0.602971
241 3 -0.829792 -3.53867 6.59776 8.07945
24 4 1.07651 7.86612 0.205779 1.64476
170 2 0.210162 -0.684193 6.64318 4.88942
10 4 0.981265 1.45343 0.848262 13.123
11 4 1.27829 -0.611578 2.58886 11.7094
162 2 0.200333 5.62031 0.592452 11.9638
17 4 1.0561 -1.15056 4.6361 13.8982
28 4 1.22587 3.82981 2.36631 9.52406
354 1 -0.646001 0.67552 1.02249 16.4208
31 4 1.33999 3.30694 2.62578 14.7675
37 4 1.03276 0.541302 6.28246 9.35177
356 2 0.12876 -0.313876 0.928874 15.7848
71 1 -0.705323 -1.13744 3.1116 15.1031
72 1 -0.69585 -3.74359 4.80478 16.14
106 2 -0.00778206 2.34867 0.445424 11.6688
78 1 -0.689256 0.927639 3.24159 10.5824
79 1 -0.655719 2.09644 3.81628 15.7615
80 1 -0.686031 5.73695 0.690979 13.1055
74 1 -0.668236 -5.08068 6.53355 10.5024
266 3 -0.860132 3.72198 5.22118 11.7211
108 2 0.022779 -2.75993 5.07387 14.4531
112 2 0.0319179 2.82471 2.86467 10.8918
135 2 0.211401 -0.339429 2.46562 14.5468
136 2 0.13661 -2.10754 2.51759 15.3002
137 2 0.212355 -0.730285 3.67768 16.0194
138 2 0.143745 -2.91696 3.99154 15.8323
231 3 -0.81006 -1.76523 1.93651 10.8485
369 2 -0.0234433 -2.72105 4.23221 9.86592
163 2 0.233543 5.77262 1.73806 13.4152
155 2 0.25323 0.431321 3.80098 9.68558
156 2 0.160974 1.32139 2.23946 10.3083
157 2 0.217908 1.54467 3.92627 11.2187
158 2 0.169026 2.2701 3.7149 16.9426
159 2 0.18091 0.945148 3.57 15.4223
160 2 0.172644 2.44904 4.81204 15.3147
14 4 1.37079 -2.46419 6.19952 17.0618
87 1 -0.672194 -0.584057 6.69159 10.888
260 3 -0.872623 3.84034 3.45391 13.5316
182 2 0.249379 -0.8534 5.67714 11.4235
262 3 -0.808932 -0.0599049 5.64766 14.4855
359 2 0.17422 2.19519 5.43959 16.9518
232 3 -0.852071 0.211142 1.62731 12.6852
238 3 -0.81644 -1.19675 4.16151 12.3441
246 3 -0.781854 2.9551 1.15543 8.80375
249 3 -0.830785 2.37435 1.44318 14.2445
250 3 -0.822242 4.38642 2.29861 16.0054
251 3 -0.78171 5.34683 1.83847 10.1257
265 3 -0.759224 2.02523 6.28209 10.0305
355 2 0.19855 1.2389 2.08174 16.1983
144 2 0.171497 -4.46917 5.62694 10.3046
357 2 0.190671 1.33595 0.0955687 16.4229
161 2 0.165353 4.9951 0.120884 13.7973
140 2 0.168061 -4.20997 4.58277 17.1744
370 2 0.026645 -5.11396 6.12565 16.7207
1 4 1.27666 -6.30174 13.1641 2.4861
2 1 -0.666439 -5.80256 11.5811 1.46938
381 2 0.117457 -1.27131 10.2595 0.386213
4 2 0.161786 -5.46304 10.9434 2.3492
5 2 0.172513 -4.98549 11.6575 0.633754
6 3 -0.805122 -7.24808 12.5945 3.73134
345 2 0.119865 -1.97834 11.4062 1.67866
19 4 1.03129 -2.96416 8.09582 1.62613
27 4 1.23471 -1.47976 12.1713 7.62982
73 1 -0.673082 -4.02827 9.05767 0.468177
75 1 -0.712243 -5.03589 9.02948 8.20208
83 1 -0.70326 -0.499197 7.00599 3.84678
84 1 -0.657604 -2.18229 8.19018 6.11551
86 1 -0.648721 0.748019 7.58332 7.99996
88 1 -0.651457 -0.744632 10.2075 3.6827
109 2 0.00641463 -1.73308 9.10143 2.46084
347 2 0.186038 -2.54207 12.354 3.21388
221 2 0.147683 -7.46701 10.4466 7.36726
346 2 0.207794 -3.7794 12.028 1.82058
142 2 0.12396 -3.4891 10.0951 0.684367
143 2 0.207804 -5.13809 9.03422 0.831387
147 2 0.176327 -4.93471 8.803 7.103
343 2 0.14753 -6.34631 11.191 6.31765
172 2 0.185633 -0.61084 8.10729 3.79564
173 2 0.178665 -2.33133 8.57123 5.0543
174 2 0.161801 -1.06446 8.00678 6.35927
175 2 0.206969 -2.66117 8.86484 6.88134
179 2 0.140554 0.558203 6.81568 7.11398
114 2 -0.0129817 0.841525 10.0282 2.44043
185 2 0.10451 -0.566336 11.0298 2.80555
186 2 0.136441 -1.66615 10.3671 4.50171
187 2 0.125967 0.234064 9.51413 4.18044
382 2 0.178724 -3.33459 11.9633 0.168993
239 3 -0.795245 -4.03202 7.4157 2.65303
240 3 -0.854528 -2.22201 6.97701 0.755686
3 2 0.205939 -6.75776 11.2861 1.02617
267 3 -0.820504 1.97606 7.8499 3.0762
270 3 -0.772507 -2.28435 10.8039 8.44373
148 2 0.192729 -4.5883 9.96048 8.4586
320 2 0.00693291 -7.98896 12.2293 8.14693
319 1 -0.659233 -5.31617 12.2543 7.70269
321 2 0.19 -4.86412 12.6309 6.72182
322 2 0.16482 -5.2288 11.0545 7.76781
341 1 -0.663896 -6.93179 10.5372 5.41175
180 2 0.186113 1.51636 8.42965 7.68154
342 2 0.170851 -6.25307 10.0991 4.6715
248 3 -0.784013 -2.71079 13.3673 7.39702
344 1 -0.681283 -2.70219 12.1826 2.07333
20 4 1.30806 -8.19113 11.5222 4.41175
318 4 0.837024 -6.7673 13.4002 7.7216
272 3 -0.813606 -0.487042 11.8749 6.2591
349 2 0.159637 -0.405483 11.7997 0.0278664
181 2 0.160809 -0.27501 8.11326 8.39228
378 2 0.141954 -6.13273 9.01302 8.42911
21 4 1.11208 -4.07273 7.63769 9.1676
22 4 1.29674 -4.84137 8.77172 13.6251
23 4 1.05406 -5.26666 10.6017 11.1495
40 4 1.37581 -0.373687 7.22623 15.0855
43 4 1.43546 -2.45511 10.1695 9.97217
46 4 1.18751 -3.30366 10.8291 15.5138
76 1 -0.671387 -3.37538 7.83158 12.8442
77 1 -0.66433 -5.96185 12.2717 11.6166
89 1 -0.67511 -2.01175 9.98242 16.7022
90 1 -0.671285 -4.73246 11.8171 16.4192
110 2 0.0069637 -6.44879 10.5032 9.74276
184 2 0.250129 0.0707433 7.36017 11.5289
141 2 0.215828 -4.9065 8.63881 16.7991
149 2 0.237559 -3.32991 8.0911 11.7077
332 2 0.118336 -9.04729 11.9691 12.0752
151 2 0.273146 -2.38391 8.0391 13.3891
264 3 -0.830751 -2.05954 7.18425 15.9403
153 2 0.129063 -6.79327 11.9671 12.3397
154 2 0.144029 -6.24621 12.6539 10.5547
152 2 0.171956 -5.0332 12.9655 12.1615
386 2 0.156397 -9.55529 12.8079 15.4469
188 2 0.159337 -0.869056 10.4195 16.4695
189 2 0.277088 -2.05071 8.81652 16.485
190 2 0.177639 -5.68401 11.3112 16.2811
191 2 0.208313 -4.68539 12.7469 15.8324
242 3 -0.821042 -5.71937 7.81966 14.6734
243 3 -0.826995 -5.58455 9.63344 12.3204
263 3 -0.827919 0.99434 7.72438 16.0587
371 2 0.00295557 -8.49616 12.7947 13.7798
269 3 -0.814929 -2.85336 8.33586 9.87673
271 3 -0.821697 -3.72461 10.7347 10.7342
273 3 -0.788613 -0.451477 8.26353 13.9198
274 3 -0.7789 -4.04147 9.7032 14.6499
275 3 -0.830243 -2.59113 11.9614 14.6763
276 3 -0.833106 -1.05367 10.4873 10.7968
183 2 0.254251 -1.49966 7.27892 10.4828
30 4 1.15519 -2.14979 13.2602 13.9563
146 2 0.172885 -5.09174 6.84322 11.6032
150 2 0.157544 -3.82843 6.77304 13.0962
364 2 0.212057 -0.792716 11.6187 12.9206
277 3 -0.812581 1.07044 9.19706 11.6312
323 2 0.223318 -4.82694 12.7562 8.70854
168 2 0.152352 7.47371 3.64492 8.28581
314 3 -0.863702 14.6759 0.00450565 6.8631
48 4 1.30009 9.4365 2.3094 3.68027
50 4 1.50098 13.2802 0.540296 7.31981
51 4 1.55648 12.0635 2.52835 5.21987
55 4 1.30852 10.5183 4.38479 1.92104
196 2 0.156515 8.18682 6.03583 5.33056
58 4 0.858538 10.5982 4.46053 7.44019
91 1 -0.698043 8.165 2.38556 6.82795
92 1 -0.687191 7.5326 5.60516 4.47846
94 1 -0.659178 9.59684 6.33308 6.85746
118 2 0.00863267 8.3852 2.83138 4.94556
325 3 -0.883053 14.2449 1.61787 2.55489
123 2 0.0112543 9.71009 5.43113 0.821987
124 2 0.0481731 8.72201 4.94671 6.95556
125 2 -0.0165476 6.23505 4.7006 7.40597
105 2 -0.0596907 16.2131 0.126132 0.344263
126 2 -0.0235981 6.91587 6.11702 8.48012
366 1 -0.633874 7.99831 6.37567 0.67501
192 2 0.1346 7.85111 3.40714 6.49747
193 2 0.169993 8.99233 1.95802 6.28092
194 2 0.150703 8.29845 2.22453 7.97818
195 2 0.162103 6.91983 4.75193 4.92996
361 2 0.183463 4.49081 6.33322 0.715905
326 3 -0.836324 12.2741 0.997065 0.66005
368 2 0.184094 8.39921 6.30878 1.70732
279 3 -0.772343 13.3819 1.94602 8.51103
203 2 0.118463 10.849 6.37961 7.34023
253 3 -0.813587 6.16649 3.79431 0.740236
278 3 -0.780491 8.77761 0.959585 3.2031
280 3 -0.832033 13.3963 3.14386 4.4894
281 3 -0.836996 10.9195 2.10152 4.22925
282 3 -0.80916 12.4108 1.15149 6.1433
288 3 -0.832765 9.421 3.4556 2.43545
289 3 -0.865453 11.6656 3.68493 1.03396
290 3 -0.806763 11.1575 5.27975 3.22414
291 3 -0.783562 5.36968 5.57935 2.61323
293 3 -0.786078 11.3469 3.60261 6.34627
324 4 1.25219 13.3601 0.481229 1.84593
197 2 0.183675 8.19526 5.19146 3.66364
367 2 0.207716 6.84318 6.47374 0.760086
56 4 1.12075 6.12345 6.66963 3.55051
13 4 1.39522 11.7218 6.60957 3.78513
49 4 1.28888 11.8417 2.44773 0.0838041
9 4 1.20833 13.529 2.64004 10.1537
379 2 0.248382 8.10592 0.229584 17.1509
32 4 1.11732 6.50056 2.88572 10.7249
39 4 1.2823 4.67778 4.43565 12.7072
294 3 -0.827342 4.75453 6.69051 9.96533
52 4 1.23204 12.6989 0.708237 14.3137
53 4 1.51663 8.24415 2.54433 15.5581
54 4 1.24691 11.4413 2.70549 12.3099
60 4 1.47208 9.58319 4.69208 13.5496
317 3 -0.756377 13.9988 0.136077 13.5241
81 1 -0.681452 8.10862 2.01784 11.2262
82 1 -0.687717 7.04913 4.27897 9.17714
301 3 -0.786553 8.6166 5.68232 12.5631
96 1 -0.691219 4.89141 5.75272 15.722
119 2 -0.0178658 12.0481 2.99588 16.3337
120 2 -0.0604813 13.0082 1.38328 15.8308
121 2 0.0146313 9.91156 1.8718 11.9652
127 2 0.0078057 5.45093 5.49531 13.7833
167 2 0.178476 6.02988 4.72365 9.07331
145 2 0.0998899 10.4475 6.39318 9.91578
164 2 0.143701 8.83526 2.34532 10.3247
165 2 0.174155 7.92477 0.951101 11.2505
166 2 0.216578 8.3521 2.56276 12.2396
169 2 0.153756 7.82533 5.01827 9.56367
95 1 -0.675515 10.1628 3.58351 8.94612
205 2 0.15298 10.9077 4.24811 9.6599
204 2 0.143313 9.00292 3.85144 9.13398
207 2 0.164204 4.53284 5.76989 16.8911
208 2 0.202489 5.88014 5.12794 15.6118
209 2 0.139022 4.0714 5.29205 15.0354
261 3 -0.801969 5.97239 3.70024 12.0201
297 3 -0.849552 9.82499 5.46014 14.9241
283 3 -0.791327 7.92095 0.946082 14.9701
284 3 -0.848333 9.41688 2.31581 16.5821
285 3 -0.867615 6.86278 3.06889 16.3105
286 3 -0.851678 12.1696 2.5789 10.9382
287 3 -0.837188 12.09 1.929 13.5332
41 4 1.25862 3.52482 6.4843 10.855
295 3 -0.823129 8.72114 3.40821 14.1559
296 3 -0.815982 11.0249 4.30345 12.7975
26 4 1.58439 5.58612 2.61271 17.0556
352 2 0.159464 8.73075 0.760978 8.71899
206 2 0.202861 10.3872 2.45257 9.09971
139 2 0.185051 12.0037 4.76716 15.3694
383 2 0.192245 7.27844 5.59314 17.1959
201 2 0.120358 9.00237 7.07135 7.44404
42 4 1.20442 2.31735 9.24029 2.42625
44 4 1.03336 0.216932 11.6612 4.84505
63 4 1.26773 7.31049 9.37958 2.05211
64 4 1.51176 3.22758 11.6805 3.9147
65 4 0.986753 6.71735 9.80349 7.9721
350 2 0.187323 0.832326 12.8636 1.18079
67 4 1.47794 5.57323 12.053 5.97612
69 1 -0.668169 10.0343 7.51636 3.9407
93 1 -0.656295 4.83953 7.41059 4.72551
99 1 -0.68326 5.87178 10.1312 1.16236
131 2 0.148898 10.2603 8.22165 4.87506
101 1 -0.656138 2.70964 9.96629 7.09843
129 2 -0.0106513 8.14296 9.15359 7.11075
384 2 0.212993 1.83916 12.473 0.21906
100 1 -0.633613 8.73314 10.3239 8.48514
377 2 0.129729 8.98433 9.67403 5.83892
200 2 0.229726 4.81096 8.50745 4.35124
216 2 0.252708 5.02439 10.3187 1.8955
375 2 0.178989 9.12269 6.77215 4.08735
218 2 0.13575 6.35799 11.1147 0.78858
376 2 0.208161 9.90176 8.11105 3.05648
222 2 0.185571 1.6365 9.81226 6.68622
223 2 0.162722 3.22723 8.98704 7.37856
268 3 -0.814844 2.73092 9.0747 0.884037
302 3 -0.780567 6.84275 7.91015 2.64608
303 3 -0.788338 8.66474 9.01593 0.848996
304 3 -0.779884 7.85003 10.392 3.18486
305 3 -0.795236 3.58499 10.2097 3.19506
306 3 -0.836437 3.14775 12.9029 2.80071
307 3 -0.83371 1.78191 11.5191 4.67614
309 3 -0.803836 2.93471 12.7307 8.03662
311 3 -0.789416 7.21561 12.2142 5.22986
312 3 -0.862794 4.42417 11.8023 4.96908
313 3 -0.813188 5.85607 10.6625 6.88624
373 2 -0.0467089 5.00374 12.9251 1.03503
348 1 -0.6769 -0.210108 12.8523 0.601753
224 2 0.253185 3.42719 10.5329 6.40521
380 2 0.243392 0.677238 12.9359 8.4697
217 2 0.266588 5.47042 9.43181 0.223895
199 2 0.259812 3.81777 6.96097 4.65305
66 4 1.13998 2.67006 11.2648 8.61057
198 2 0.1429 5.42487 7.18539 5.71946
372 2 0.102443 -0.257161 13.0831 4.08159
202 2 0.182818 9.61593 6.76094 5.80082
351 1 -0.659682 -0.357754 13.0887 8.81849
35 4 1.25107 2.12014 8.01071 17.0936
353 2 0.176041 -0.638917 12.7379 9.86939
336 2 0.172268 7.63755 11.1968 14.7054
57 4 1.31762 7.6058 7.95639 17.0634
130 2 0.151076 2.2088 11.225 16.9351
61 4 1.11008 4.92741 7.63999 15.6639
68 4 1.09266 1.30692 11.8413 15.0003
97 1 -0.673762 4.46499 7.79994 13.6219
98 1 -0.659234 7.96332 8.45136 13.1606
102 1 -0.669593 0.984674 11.5388 16.9004
103 1 -0.663208 4.19027 10.995 9.70599
115 2 -0.00346683 3.41031 7.81374 11.9201
116 2 0.00550767 2.55526 8.30384 13.9561
117 2 0.0210995 0.819715 11.7355 12.0463
308 3 -0.844527 6.14353 8.62592 8.86993
210 2 0.1313 3.68458 7.06178 13.4607
211 2 0.165969 5.43588 7.48332 13.1856
212 2 0.162946 4.16973 8.95707 13.4698
59 4 1.22914 6.25051 7.23838 9.60733
214 2 0.237818 8.32518 8.14482 14.1879
215 2 0.195071 6.87167 8.61209 13.0203
128 2 -0.00868309 10.0003 7.58996 11.1083
220 2 0.0604409 7.45246 11.2289 9.07357
47 4 1.27452 0.489465 10.4569 10.9405
226 2 0.0736915 -0.288212 12.2906 15.7274
227 2 0.193523 4.86517 11.797 9.34057
62 4 1.02882 8.47043 7.14352 11.8831
229 2 0.171603 4.00957 10.9983 10.9251
292 3 -0.862478 8.97575 7.28516 16.5309
298 3 -0.796568 6.45938 8.13185 15.8616
299 3 -0.817376 3.83812 8.55817 16.2956
228 2 0.201311 4.40459 9.96649 9.28525
310 3 -0.787207 1.35716 10.8356 9.58874
315 3 -0.87417 1.09231 10.5297 14.2141
316 3 -0.870263 2.1439 13.0645 14.5635
327 4 0.903849 5.50058 12.2544 13.3225
328 1 -0.658376 6.45754 12.1667 11.758
329 1 -0.647027 3.83435 10.9404 12.9531
330 1 -0.658603 6.74916 11.8619 14.8444
331 2 0.150305 5.97857 11.1501 11.2923
45 4 1.10764 1.09716 9.11326 13.4599
333 2 0.133776 4.19911 10.0253 12.3001
334 2 0.181293 3.1367 11.654 12.3861
335 2 0.177093 3.3617 10.7121 13.972
363 2 0.156533 -1.09744 12.9385 11.5089
337 2 0.146483 5.89535 11.3299 15.477
362 1 -0.691424 -0.778844 12.7205 12.6383
300 3 -0.834942 7.26998 7.29013 10.7792
213 2 0.16319 8.55703 9.3249 12.7712
385 2 0.223695 6.26699 13.1728 11.2042
219 2 0.123239 8.88027 9.28771 8.90581
365 2 0.17767 0.0799112 13.32 12.9869
225 2 0.185034 0.322033 10.6193 17.2038
18 4 1.28042 10.1978 6.76313 15.7228
ITEM: TIMESTEP
100
ITEM: NUMBER OF ATOMS
386
ITEM: BOX BOUNDS xy xz yz pp pp pp
-1.0522200000000000e+01 1.6607800000000001e+01 -9.4504999999999999e+00
0.0000000000000000e+00 1.3453600000000000e+01 -1.0717000000000001e+00
0.0000000000000000e+00 1.7384900399999999e+01 3.3999999999999998e-03
ITEM: ATOMS id type q x y z
8 4 1.03582 0.86295 1.09283 0.830305
12 4 1.45247 -0.0181916 4.14897 1.561
107 2 0.0803736 -2.30893 3.0984 7.92289
15 4 1.04576 -1.2314 4.20207 7.19746
25 4 1.21801 5.15926 1.44544 3.87712
29 4 1.2686 6.54245 1.28565 6.41601
34 4 1.3006 1.28426 6.31641 3.52643
171 2 0.229 -1.11783 6.47694 2.95889
36 4 1.21485 4.87123 3.91248 7.10432
38 4 0.998413 2.41132 5.33318 6.25829
70 1 -0.669761 -0.0583424 2.8631 6.32433
85 1 -0.640455 3.47703 3.30627 1.71331
104 2 -0.00887341 -0.797107 2.29666 4.58209
340 2 0.168552 3.34143 0.262876 5.65544
33 4 1.31185 5.36195 3.80189 1.9738
111 2 0.0321056 3.91942 1.80055 5.04355
113 2 0.0225074 1.41669 4.11182 6.8577
132 2 0.12384 0.0141664 3.62253 5.35266
133 2 0.141823 -1.08649 2.14718 6.24477
134 2 0.173936 0.918468 2.19952 6.35744
339 2 0.165562 2.73819 2.03965 5.87401
176 2 0.217994 3.51135 2.45681 0.956879
177 2 0.222179 2.95325 4.21466 1.36377
178 2 0.205933 3.11451 3.01892 2.76564
230 3 -0.807591 2.1146 0.585392 1.6315
233 3 -0.817346 -1.46907 3.95105 2.54827
234 3 -0.81852 0.556146 2.64278 1.15576
235 3 -0.871848 -0.342316 5.09422 0.352777
374 2 0.192895 1.47685 0.611505 5.63787
237 3 -0.814052 -2.05801 5.32818 6.37795
255 3 -0.826614 4.12207 3.58877 8.54037
244 3 -0.817477 4.55606 0.368716 2.8466
247 3 -0.770484 6.47466 0.726867 4.84553
252 3 -0.849519 5.57077 2.82307 3.19978
254 3 -0.79132 1.1627 4.9765 2.45472
256 3 -0.851165 5.36813 2.43764 6.55803
258 3 -0.8553 1.88704 5.83829 4.92326
259 3 -0.84576 3.91102 4.81865 6.27065
338 1 -0.669726 2.49944 0.971525 6.04111
16 4 1.31024 -3.00888 6.58438 6.36819
122 2 0.0199994 2.12558 6.60332 7.39564
257 3 -0.80851 -0.353361 4.84857 8.3022
360 2 0.235106 2.29276 6.24014 1.07841
236 3 -0.767541 -4.21636 6.5341 5.26283
7 4 1.36479 -2.06815 2.80491 3.39788
358 1 -0.661446 3.36117 6.30076 0.590754
245 3 -0.803276 7.0044 1.24788 0.368693
318 4 0.84482 2.60476 0.144179 7.85488
24 4 1.04974 7.84736 0.176513 1.43913
170 2 0.20185 -0.730153 6.21807 4.77778
10 4 0.976742 1.44315 0.628273 13.2879
11 4 1.21073 -0.484674 2.40641 11.591
162 2 0.179486 5.671 0.680422 12.1561
17 4 1.04865 -1.18044 4.59697 14.0083
28 4 1.28952 3.8362 2.43148 9.53742
354 1 -0.649526 0.347871 0.969928 16.3912
31 4 1.32999 3.32321 2.5936 14.869
37 4 1.03554 0.545166 6.22745 9.35709
356 2 0.14121 -0.690494 0.824069 15.9447
71 1 -0.724302 -1.09032 3.09493 15.1756
72 1 -0.689875 -3.82341 4.99334 16.128
106 2 -0.00277426 2.43182 0.383688 11.9692
78 1 -0.687372 0.785697 3.11649 10.3503
79 1 -0.664408 1.99743 3.65562 15.7955
80 1 -0.688623 5.61846 0.849894 13.2458
74 1 -0.688109 -5.22384 6.67316 10.4665
266 3 -0.879265 3.87183 5.19561 11.7998
108 2 0.00328156 -2.72629 5.08859 14.4892
112 2 0.0354503 2.74173 3.07718 10.688
135 2 0.234654 -0.428862 2.42615 14.5366
136 2 0.140146 -2.13519 2.78158 15.1773
137 2 0.209047 -0.732028 3.33488 16.1769
138 2 0.139377 -3.16867 4.08357 15.9904
231 3 -0.799336 -1.72852 1.89003 10.7465
369 2 -0.0131259 -2.76551 4.12845 9.93906
163 2 0.249955 5.69634 1.94685 13.5771
155 2 0.246817 0.286426 3.73349 9.44933
156 2 0.158398 1.31896 2.1105 10.1032
157 2 0.186835 1.31916 3.81039 11.1531
158 2 0.158872 2.22393 3.53439 17.0691
159 2 0.194088 0.857235 3.48332 15.5517
160 2 0.18171 2.2666 4.65504 15.3228
14 4 1.32091 -2.38064 6.15608 16.9856
87 1 -0.667709 -0.596186 6.55206 10.8766
260 3 -0.837007 3.91314 3.47107 13.6255
182 2 0.255469 -0.804533 5.53078 11.5066
262 3 -0.798892 -0.00720521 5.6476 14.4576
359 2 0.173794 2.35594 5.59191 17.0887
232 3 -0.813093 0.225318 1.41261 12.7451
238 3 -0.760328 -1.02861 4.0733 12.49
246 3 -0.830609 3.03252 1.246 8.94874
249 3 -0.812937 2.37138 1.34325 14.2898
250 3 -0.831854 4.56528 2.1775 15.7859
251 3 -0.81068 5.31768 2.0005 10.1496
265 3 -0.778569 2.02762 6.14042 10.0035
355 2 0.200623 0.91231 2.03782 16.1145
144 2 0.173271 -4.60908 5.73969 10.4917
139 2 0.173184 -4.26047 5.47208 15.1083
150 2 0.173688 -3.858 6.50485 12.8695
140 2 0.178184 -4.44178 4.95141 17.0893
370 2 0.033425 -5.06201 6.4535 16.6542
161 2 0.179672 4.69003 0.351022 13.7208
357 2 0.166027 1.04232 0.0223762 16.252
1 4 1.33301 -6.33798 13.1301 2.51011
2 1 -0.658565 -5.86978 11.5461 1.43942
381 2 0.124994 -1.43655 10.0889 0.468442
4 2 0.162156 -5.46293 10.802 2.21718
5 2 0.17251 -5.07996 11.6746 0.536203
6 3 -0.808772 -7.12693 12.6118 3.76398
345 2 0.113011 -1.99722 11.4787 1.97113
19 4 1.00936 -2.91071 8.1197 1.72576
27 4 1.26271 -1.64706 12.1113 7.76305
73 1 -0.6771 -3.94265 9.18198 0.665899
75 1 -0.647338 -5.23307 8.84994 8.26062
83 1 -0.690944 -0.546306 6.82627 3.81277
84 1 -0.682189 -1.85257 8.12523 6.14503
86 1 -0.658918 0.629374 7.65326 8.12137
88 1 -0.635762 -0.571178 10.0445 3.80606
109 2 0.0133577 -1.68486 9.13173 2.65953
347 2 0.242654 -2.68367 12.8708 3.27366
221 2 0.151308 -7.44953 10.7067 7.38795
346 2 0.209898 -3.81875 12.0783 1.98426
142 2 0.121012 -3.56044 10.1949 1.13726
143 2 0.226964 -5.07083 9.01804 0.688317
147 2 0.184999 -5.48575 8.56 7.17571
343 2 0.158838 -6.31476 11.3482 6.32286
172 2 0.172852 -0.559826 7.99979 3.95171
173 2 0.167506 -2.20017 8.83598 5.35847
174 2 0.172488 -0.838595 7.79958 5.95413
175 2 0.204953 -2.00696 8.58267 7.19165
179 2 0.154058 0.164984 7.25689 7.14853
114 2 -0.0228699 0.786559 10.0295 2.27233
185 2 0.0662648 -0.648495 11.2421 3.10506
186 2 0.169602 -1.41246 9.90943 4.60394
187 2 0.135369 0.513246 9.62003 4.05454
382 2 0.166026 -3.38111 12.0385 0.280372
239 3 -0.786362 -3.93784 7.29476 2.76058
240 3 -0.815197 -2.12188 7.18046 0.682891
3 2 0.204123 -6.90324 11.2925 1.15033
267 3 -0.827524 2.03758 7.68298 2.96182
270 3 -0.833189 -2.2222 10.8436 8.43501
148 2 0.149404 -4.88337 10.0568 8.37522
320 2 0.0148287 -8.15475 12.4692 8.40181
319 1 -0.666374 -5.34836 12.3943 7.85706
321 2 0.207391 -4.8704 12.5022 6.86156
322 2 0.152727 -5.51259 11.2933 8.15983
341 1 -0.660005 -6.8002 10.6775 5.45126
180 2 0.182228 1.44294 8.46918 7.8797
342 2 0.178437 -6.06278 10.3256 4.73582
248 3 -0.772232 -2.76234 13.3139 7.19339
344 1 -0.684974 -2.73965 12.3243 2.19708
20 4 1.3226 -8.23868 11.5373 4.45619
100 1 -0.638783 -7.87605 10.5631 8.50219
272 3 -0.743413 -0.717196 11.7866 6.13024
241 3 -0.810959 -3.60297 6.77799 8.03133
323 2 0.242561 -4.6538 12.9757 8.58324
21 4 1.13643 -4.01342 7.69219 9.19919
22 4 1.27066 -4.76195 8.72108 13.6151
23 4 1.04832 -5.30276 10.5895 11.0999
40 4 1.40213 -0.258553 7.16763 15.0962
43 4 1.43577 -2.37463 10.2462 9.98631
46 4 1.15959 -3.31208 10.9319 15.5351
76 1 -0.69866 -3.48793 7.5769 12.8487
77 1 -0.654416 -5.89491 12.2121 11.6783
89 1 -0.681468 -2.06456 9.97573 16.774
90 1 -0.639849 -4.72674 11.8805 16.4244
110 2 -0.00154286 -6.37914 10.6072 9.70887
184 2 0.230708 0.200728 7.2552 11.356
141 2 0.19252 -4.52328 8.8857 16.9985
149 2 0.255833 -3.20045 7.86756 11.7736
181 2 0.164259 -0.255272 8.19106 8.78809
151 2 0.22689 -2.6251 7.7584 13.6056
264 3 -0.842479 -1.93812 7.09348 15.7886
153 2 0.1081 -6.78321 11.9773 12.4111
154 2 0.142746 -6.32126 12.6046 10.6848
152 2 0.163417 -5.03887 13.0178 12.2194
386 2 0.160828 -9.69254 12.6971 15.4339
188 2 0.160693 -1.00764 10.3746 16.6479
189 2 0.26304 -2.04728 8.84738 16.4387
190 2 0.170692 -5.58031 11.1141 16.2644
191 2 0.217554 -4.88305 12.8491 15.8464
242 3 -0.849516 -5.81564 7.8981 14.4986
243 3 -0.800854 -5.61732 9.45607 12.0587
263 3 -0.863772 0.814849 7.69826 16.1946
371 2 -0.00869259 -8.51331 12.5487 13.9178
269 3 -0.810731 -2.84193 8.39536 10.0389
271 3 -0.788708 -3.72926 10.9039 10.7253
273 3 -0.786006 -0.147753 8.22615 13.7841
274 3 -0.793665 -4.0784 9.79924 14.6137
275 3 -0.833267 -2.58719 12.1422 14.8246
276 3 -0.852609 -1.03757 10.4067 10.7363
183 2 0.246492 -1.49963 7.16106 10.5731
30 4 1.17568 -2.28911 13.4019 13.9629
146 2 0.195924 -5.33957 7.111 11.4921
378 2 0.115466 -6.11875 8.66665 8.98629
364 2 0.202435 -0.830044 11.8156 12.7727
349 2 0.168439 -1.55701 11.8432 17.306
168 2 0.130915 7.51407 3.61039 8.26305
49 4 1.279 11.9345 2.57368 0.0195726
48 4 1.25063 9.41685 2.29403 3.62452
50 4 1.52503 13.2404 0.484951 7.23672
51 4 1.55667 12.1324 2.59744 5.15289
55 4 1.34557 10.4388 4.40825 1.87416
196 2 0.161129 8.322 6.04954 5.4739
58 4 0.824972 10.6064 4.51871 7.43345
91 1 -0.690902 8.19462 2.34173 6.86263
92 1 -0.689557 7.60204 5.69472 4.58986
94 1 -0.649562 9.6659 6.514 6.94378
118 2 -0.000138884 8.42665 2.80213 4.96712
325 3 -0.883115 14.2051 1.48566 2.59738
123 2 0.00477226 9.68008 5.4032 0.707835
124 2 0.0282734 8.85626 4.98283 6.85708
125 2 -0.0300439 6.29936 4.8178 7.44049
383 2 0.203368 8.09556 5.41485 0.144456
126 2 -0.0169371 6.73318 6.10289 8.49682
366 1 -0.681287 7.95481 6.31658 0.813005
192 2 0.118315 8.02417 3.41851 6.42174
193 2 0.157997 8.97844 1.6776 6.25913
194 2 0.157054 8.47143 2.39534 7.93998
195 2 0.144539 6.83828 4.96625 5.03071
361 2 0.245845 4.16634 6.07375 1.39419
326 3 -0.82971 12.3141 1.22617 0.79504
368 2 0.154963 8.51857 6.18145 1.83994
279 3 -0.776852 13.5021 1.88554 8.56623
203 2 0.122866 10.7844 6.28473 7.57979
253 3 -0.834876 5.9713 3.65789 0.541785
278 3 -0.770335 8.86761 0.924775 2.89135
280 3 -0.824033 13.3532 3.23482 4.30919
281 3 -0.827575 10.8596 2.066 4.30763
282 3 -0.845558 12.7416 1.3153 6.00469
288 3 -0.84296 9.31772 3.54475 2.47665
289 3 -0.839143 11.6119 3.72539 1.08794
290 3 -0.806423 11.0585 5.30408 3.04968
291 3 -0.762681 5.4354 5.53881 2.68373
293 3 -0.763071 11.4262 3.6742 6.38611
324 4 1.29227 13.3972 0.43942 1.8153
197 2 0.18825 8.17188 5.13737 3.80807
367 2 0.209257 6.82377 6.61291 0.871872
56 4 1.11427 6.16595 6.67057 3.61715
13 4 1.35744 11.6187 6.65353 3.72699
105 2 -0.0538774 16.1832 0.0630656 1.2154
9 4 1.23678 13.5335 2.50205 10.0919
379 2 0.224738 8.06361 0.281615 16.9171
32 4 1.15126 6.49809 2.90444 10.7899
39 4 1.30824 4.81875 4.46348 12.766
352 2 0.163539 8.29844 0.741944 8.81392
52 4 1.25365 12.7816 0.768354 14.3246
53 4 1.50503 8.29732 2.57237 15.3703
54 4 1.2443 11.2679 2.69081 12.4637
60 4 1.46954 9.4105 4.7805 13.6559
317 3 -0.772682 14.0991 0.0880517 13.7196
81 1 -0.673916 8.11496 1.86836 11.1169
82 1 -0.681544 7.07411 4.29421 9.2504
301 3 -0.795619 8.60505 5.79979 12.6071
96 1 -0.678952 5.07951 5.81641 15.6986
119 2 -0.0224887 12.2264 3.0437 16.4749
120 2 -0.0501036 13.5396 1.25445 15.7911
121 2 0.0063631 9.84972 1.82314 12.0544
127 2 0.0100892 5.62087 5.62969 13.8169
167 2 0.18121 5.99456 4.60817 9.26841
145 2 0.136798 10.4681 6.63415 9.94319
164 2 0.162386 8.96047 2.3677 10.449
165 2 0.151534 7.89301 0.707985 10.7829
166 2 0.213756 8.0525 2.0327 12.2593
169 2 0.169032 7.8049 5.01384 9.72289
95 1 -0.677575 10.1706 3.52878 9.04165
205 2 0.157453 10.9189 4.22989 9.66267
204 2 0.148673 9.00234 3.75648 9.16869
207 2 0.193474 4.59312 5.94201 16.8228
208 2 0.221856 6.04782 5.30192 15.8059
209 2 0.150525 4.32362 5.31061 15.0781
261 3 -0.835773 6.00385 3.75911 12.0028
297 3 -0.858311 9.88252 5.61019 14.9592
283 3 -0.847882 7.89977 1.20481 14.7193
284 3 -0.852501 9.61944 2.39536 16.3567
285 3 -0.840582 6.95898 3.34838 16.3183
286 3 -0.788366 12.2589 2.50978 11.071
287 3 -0.847369 12.0858 1.99041 13.6088
41 4 1.23772 3.47068 6.40502 10.9056
295 3 -0.856069 8.55042 3.50456 14.0512
296 3 -0.790546 10.9069 4.19274 12.7296
26 4 1.56741 5.67649 2.55773 16.9006
206 2 0.201562 10.4042 2.47053 8.98452
365 2 0.153048 9.40869 0.0759611 12.6766
201 2 0.136338 9.06153 7.24739 7.51586
42 4 1.18949 2.27392 9.15113 2.38693
44 4 1.00094 0.207777 11.7842 4.80786
63 4 1.25852 7.40757 9.43127 2.11118
64 4 1.51539 3.27151 11.5969 3.88112
65 4 1.00292 6.71172 9.90219 8.07425
350 2 0.193905 0.856247 13.1322 0.74884
67 4 1.47103 5.63413 12.0886 6.01399
69 1 -0.684779 10.0936 7.72304 3.95448
93 1 -0.635741 4.72917 7.35984 4.70994
99 1 -0.667999 5.88284 9.97494 1.17606
131 2 0.152866 10.2853 8.34706 4.90393
101 1 -0.671007 2.96106 9.7707 7.26533
129 2 0.00362842 8.1945 9.37863 7.1738
384 2 0.177327 2.05116 12.5007 0.115649
372 2 0.0959293 -0.113895 13.1396 3.84396
377 2 0.136554 9.14918 9.8344 5.78269
200 2 0.249968 4.61237 8.45791 4.48279
216 2 0.242203 5.02956 10.2595 1.92225
375 2 0.171742 9.11871 6.90392 4.10376
218 2 0.132624 6.22325 10.935 0.661639
376 2 0.200343 10.0399 8.31876 3.04549
222 2 0.171633 1.92774 9.76914 6.77048
223 2 0.181769 3.21828 8.78977 7.7813
268 3 -0.808765 2.90187 9.08781 0.911803
302 3 -0.754615 6.78355 8.05979 2.92871
303 3 -0.79068 8.62657 9.03295 0.981675
304 3 -0.804031 7.86408 10.5926 3.2951
305 3 -0.810816 3.42573 10.1487 3.31778
306 3 -0.845934 3.33944 12.7899 2.76379
307 3 -0.799961 1.80585 11.6521 4.80046
309 3 -0.773105 2.76147 12.8946 7.84407
311 3 -0.838459 7.20105 12.1458 5.39674
312 3 -0.829028 4.55213 11.7851 4.87408
313 3 -0.777721 5.75465 10.6179 7.04174
373 2 -0.0608624 5.03079 13.0888 0.780206
348 1 -0.678514 -0.22963 12.9202 0.347113
224 2 0.256503 3.6955 10.0919 6.4793
380 2 0.21924 0.366302 13.2359 8.14472
217 2 0.259771 5.46789 9.26009 0.432174
314 3 -0.862862 5.21106 13.3102 7.0378
66 4 1.11683 2.62127 11.1574 8.59761
198 2 0.142699 5.35092 7.22539 5.6921
202 2 0.178396 9.92339 6.86723 5.82777
199 2 0.266449 3.79233 6.73928 4.72894
351 1 -0.67666 -0.506855 13.1904 8.83655
35 4 1.28599 2.12827 8.00148 17.0792
353 2 0.169699 -0.192606 12.8804 9.8885
336 2 0.153888 7.47499 11.1331 14.3699
57 4 1.22212 7.65711 7.81889 17.2676
130 2 0.152761 2.3338 11.0889 16.8057
61 4 1.09536 4.96913 7.6976 15.4095
68 4 1.05876 1.27962 11.8778 14.9384
97 1 -0.700336 4.42244 7.67346 13.4558
98 1 -0.658771 7.78053 8.41965 13.1081
102 1 -0.668986 1.1319 11.5179 16.8113
103 1 -0.675867 4.09191 11.0026 9.84287
115 2 0.0174843 3.29214 7.80661 11.8494
116 2 0.000999523 2.56234 8.19101 13.8491
117 2 0.00406771 0.589148 11.9497 11.717
308 3 -0.82265 6.11497 8.63914 8.82892
210 2 0.126288 3.55779 6.83021 13.248
211 2 0.158076 5.45802 7.39785 12.9643
212 2 0.14904 4.17403 8.77703 13.263
59 4 1.2453 6.08918 7.19918 9.60361
214 2 0.232677 7.2654 8.02798 14.0218
215 2 0.156008 6.98533 9.0682 12.5139
128 2 0.00021138 9.7879 7.73798 10.9418
220 2 0.0501555 7.29192 11.2232 9.26205
47 4 1.21479 0.58079 10.5368 10.7923
226 2 0.0571715 -0.144406 12.4957 15.6947
227 2 0.187228 4.69013 11.8948 9.64521
62 4 1.05864 8.35908 7.1865 11.8366
229 2 0.174268 3.99309 10.907 10.9805
292 3 -0.842544 9.20105 7.55803 16.7019
298 3 -0.768706 6.40152 8.18485 15.874
299 3 -0.821842 3.72408 8.10669 16.3581