ITEM: TIMESTEP
0
ITEM: NUMBER OF ATOMS
386
ITEM: BOX BOUNDS xy xz yz pp pp pp
-1.0522200000000000e+01 1.6607800000000001e+01 -9.4504999999999999e+00
0.0000000000000000e+00 1.3453600000000000e+01 -1.0717000000000001e+00
0.0000000000000000e+00 1.7350200000000001e+01 3.3999999999999998e-03
ITEM: ATOMS id type q x y z
8 4 1.04889 0.768761 1.38367 0.592713
12 4 1.47978 -0.378521 4.13188 1.92087
15 4 0.9516 -0.992079 4.63353 7.72377
70 1 -0.671093 0.534516 3.83972 7.01739
104 2 0.00145002 -0.698039 1.52246 4.26032
107 2 0.000223008 -2.17753 3.47241 7.84925
132 2 0.179063 0.52382 4.45441 5.99737
133 2 0.12615 -0.0414676 2.72921 6.8857
34 4 1.31366 1.10687 6.45842 3.40904
233 3 -0.779851 -1.45686 3.81218 3.13088
234 3 -0.81384 0.290623 2.71965 1.37363
235 3 -0.821676 -1.2864 4.73739 0.611652
237 3 -0.775481 -1.51816 5.8218 6.8034
254 3 -0.823463 0.776648 5.21463 2.46704
374 2 0.154574 0.831235 0.821558 6.77007
13 4 1.35746 -4.61135 6.64768 3.82576
230 3 -0.799499 1.04653 0.182086 1.49945
236 3 -0.776615 -4.12404 6.33432 5.31848
170 2 0.249663 -0.615932 6.36419 5.2334
171 2 0.225777 -1.24621 6.52933 3.44098
340 2 0.209814 2.07473 0.196681 5.29814
85 1 -0.676664 3.31789 4.70215 1.20003
355 2 0.210285 3.24817 0.956073 0.219827
111 2 0.0321939 3.28734 1.57157 4.94424
113 2 0.0129463 1.7165 5.47233 7.12231
134 2 0.22475 1.58451 3.70478 7.39739
177 2 0.171269 3.26192 4.84177 0.0272868
176 2 0.237682 2.51982 4.05551 1.60242
354 1 -0.640848 2.4818 1.7807 0.0212152
178 2 0.220331 3.29084 5.66025 1.76484
252 3 -0.821136 4.50657 2.74475 2.75597
356 2 0.183999 2.81533 2.88534 0.387503
256 3 -0.841244 4.93796 1.86858 6.52553
255 3 -0.797903 3.41774 3.19713 8.39727
244 3 -0.826967 3.78282 0.412398 2.6069
258 3 -0.806635 2.02263 6.0016 4.69306
247 3 -0.758514 5.91567 0.968898 4.20376
338 1 -0.668762 1.93993 0.917194 6.25026
339 2 0.191851 2.10871 2.01363 6.04129
259 3 -0.850801 3.75734 4.21533 5.90819
25 4 1.28595 4.39583 1.44032 3.60806
29 4 1.25912 6.24627 1.0337 5.89255
33 4 1.3356 4.97803 3.95955 1.81558
36 4 1.1528 4.5351 3.33501 6.99312
38 4 0.949655 2.95328 5.52731 5.91801
11 4 1.33908 -0.534917 2.28796 11.9484
17 4 1.09854 -1.10651 4.34335 14.2133
71 1 -0.707463 -1.09742 2.93931 15.6324
72 1 -0.660987 -4.0107 5.27036 15.8656
14 4 1.31883 -2.5209 6.07716 17.1988
108 2 0.000699551 -2.61449 4.94807 14.4279
135 2 0.159973 -0.840715 2.03532 14.9983
136 2 0.166799 -2.03239 2.94621 16.2781
137 2 0.168102 -0.179987 3.45001 16.1222
139 2 0.113806 -3.74468 6.37913 15.3365
231 3 -0.822016 -1.7766 1.7688 10.9723
155 2 0.262024 0.329096 4.09816 10.3998
182 2 0.175411 -1.54904 6.35681 11.6191
37 4 1.16547 0.301882 6.64648 9.96236
232 3 -0.844282 0.434603 1.21698 12.6367
238 3 -0.828278 -1.01413 3.45466 12.9524
262 3 -0.788665 -0.0110082 5.44145 14.3707
105 2 -0.0449844 -1.39642 1.23203 16.6158
257 3 -0.781139 -0.394945 5.37544 9.42989
78 1 -0.652165 0.866296 3.26471 10.9466
264 3 -0.867066 -1.35076 6.65239 16.2255
369 2 -0.0269713 -2.74819 3.797 9.78434
144 2 0.16897 -3.64028 6.51519 10.891
74 1 -0.679142 -4.73769 6.70785 10.6631
31 4 1.20581 3.57753 2.41179 14.5093
156 2 0.149508 1.11821 2.33936 10.2324
79 1 -0.653061 2.52577 3.80875 15.2206
112 2 0.0470842 2.74452 2.47523 10.9638
251 3 -0.797014 5.45646 2.2395 9.84013
162 2 0.185473 6.40606 0.638421 12.0779
28 4 1.22384 3.7059 2.15097 9.52384
80 1 -0.66743 6.38923 1.13286 13.0792
157 2 0.218182 1.65402 3.67244 11.6873
249 3 -0.790705 2.47377 1.06085 14.3085
160 2 0.191468 1.48233 3.48794 14.9834
158 2 0.175431 2.88566 4.62775 14.477
161 2 0.211654 5.44331 0.967952 13.6521
357 2 0.133501 1.10857 1.7988 16.2029
246 3 -0.806286 3.06573 0.761475 9.07458
260 3 -0.791607 4.10223 3.11262 13.0582
159 2 0.169295 2.71214 4.02353 16.3888
250 3 -0.784115 4.93142 2.15253 15.6248
10 4 0.95914 1.28149 0.33944 13.5647
266 3 -0.864163 3.68672 5.38946 11.5632
152 2 0.198714 4.76893 0.0234991 12.4553
1 4 1.26348 -6.95514 12.9311 2.44736
2 1 -0.651261 -6.28233 11.5645 1.25173
148 2 0.157264 -5.67089 10.2018 8.10002
4 2 0.214861 -6.26946 10.5934 1.80069
5 2 0.166724 -5.22564 11.8467 0.816955
6 3 -0.812169 -7.21679 12.3071 3.87422
73 1 -0.695657 -4.03942 9.24673 0.642391
241 3 -0.811328 -3.82561 7.21268 7.98726
143 2 0.197681 -5.06257 8.85088 0.909854
376 2 0.16273 -5.71521 8.84188 3.77252
319 1 -0.653939 -5.19496 11.9357 7.17285
321 2 0.170539 -5.27341 12.5448 6.16179
322 2 0.178134 -4.64075 11.0328 6.92518
3 2 0.181359 -7.05738 11.5992 0.442051
342 2 0.181113 -6.26766 10.4413 5.56846
346 2 0.238848 -3.86429 12.9921 1.95868
382 2 0.174774 -3.34055 12.5196 0.301675
239 3 -0.800449 -3.47295 7.6056 2.99737
341 1 -0.661745 -7.32209 10.0624 5.66012
142 2 0.130695 -3.9223 10.3297 1.02389
320 2 0.0190314 -6.79527 11.5616 7.90837
323 2 0.211256 -4.56123 12.5301 7.94044
318 4 0.817106 -6.73208 13.405 7.66411
75 1 -0.658368 -5.9834 9.08913 8.57272
83 1 -0.679025 -0.492979 6.94154 4.23121
349 2 0.145403 -0.484475 11.8912 0.264731
179 2 0.234064 -0.727895 7.23805 7.85028
272 3 -0.812708 -0.426966 11.6773 6.16101
224 2 0.199827 0.905563 9.67113 6.61508
172 2 0.167336 -0.497284 8.03117 4.38195
16 4 1.17128 -3.01433 6.97149 6.57147
185 2 0.137533 -0.295734 11.5242 2.3205
186 2 0.146964 -1.60597 10.7813 3.68495
174 2 0.186843 -2.725 8.59163 4.90742
240 3 -0.800142 -2.15282 7.25286 0.825061
187 2 0.143526 0.247032 9.90197 3.59486
173 2 0.188161 -3.13741 9.34694 6.64506
347 2 0.207955 -2.75434 12.3242 3.34072
248 3 -0.767238 -2.72871 13.1181 6.56016
267 3 -0.80499 1.80094 7.91313 2.68141
345 2 0.108116 -2.39848 11.8047 1.56035
175 2 0.17234 -1.29208 8.76219 6.25259
344 1 -0.675197 -2.85378 12.6132 2.26942
180 2 0.183379 0.733202 8.39556 8.01914
381 2 0.118392 -1.27027 10.5194 0.510442
19 4 1.01714 -2.85749 8.38273 1.75792
27 4 1.26712 -1.34047 12.194 7.42525
270 3 -0.779614 -1.93421 11.1803 8.51206
84 1 -0.66563 -2.44143 8.67891 6.01109
86 1 -0.664615 -0.109401 7.78377 8.58323
88 1 -0.680551 -0.516027 10.7832 3.27036
109 2 0.00850449 -1.50731 9.29871 2.4625
114 2 -0.0075204 0.991742 10.2208 2.03117
21 4 1.1301 -4.3387 8.03042 9.21747
22 4 1.26451 -4.97682 9.0738 13.772
23 4 1.01716 -5.14749 11.1341 11.1786
77 1 -0.639235 -5.57464 12.719 12.2351
90 1 -0.663242 -4.74414 12.2741 16.5589
110 2 -0.0306759 -5.89697 10.764 9.70405
370 2 -0.00373301 -5.01924 6.86797 16.4331
153 2 0.186877 -5.84622 12.2365 13.1862
154 2 0.146846 -6.4024 13.1141 11.5628
190 2 0.159946 -5.63842 11.5595 16.3949
150 2 0.170848 -4.15476 6.88485 13.1254
242 3 -0.825607 -6.1589 8.16578 14.4087
243 3 -0.790958 -5.52409 10.0066 12.1652
274 3 -0.8138 -4.28597 10.1209 14.6919
141 2 0.18363 -4.91736 9.18485 16.8851
371 2 -0.0186284 -9.18129 12.8515 14.6562
146 2 0.159634 -5.21226 7.35431 11.4588
378 2 0.116102 -6.37337 9.09478 9.67309
106 2 -0.0205792 -7.51198 12.4828 12.6811
336 2 0.119712 -8.85062 11.5485 13.5677
213 2 0.237696 -7.04827 9.20261 12.0278
191 2 0.221975 -4.76 13.1652 15.7456
184 2 0.220096 0.082964 6.81958 12.5239
87 1 -0.657922 -0.634696 7.02051 11.6449
189 2 0.204979 -2.29956 9.08284 16.5944
269 3 -0.855118 -3.19294 8.98959 9.75961
188 2 0.172159 -1.14208 10.6034 16.3699
181 2 0.204508 -0.773398 8.48624 9.31866
273 3 -0.841501 -0.117857 8.31824 14.4726
46 4 1.15484 -3.52819 11.251 15.6093
275 3 -0.777085 -2.71288 12.3203 14.7523
271 3 -0.761875 -3.53518 11.3785 10.9558
43 4 1.43569 -2.47169 10.3801 10.0507
76 1 -0.695128 -3.68147 7.91168 13.0867
89 1 -0.657363 -2.19475 10.2209 16.7487
149 2 0.204547 -3.4348 8.28187 11.9798
276 3 -0.842606 -1.12275 10.2187 10.9266
151 2 0.198776 -2.79937 8.05597 13.7544
183 2 0.228139 -0.909017 8.1032 11.6303
40 4 1.47406 -0.0754866 6.97594 15.3813
265 3 -0.765599 1.90936 6.77707 10.3219
263 3 -0.840222 1.25026 7.05277 16.3265
91 1 -0.688874 7.61376 2.40651 6.13423
92 1 -0.692939 7.9732 5.74236 4.38458
118 2 0.0101964 9.17583 3.20523 5.20017
124 2 0.021541 8.9799 4.36513 6.89668
125 2 -0.0279935 6.06431 4.13237 7.37829
192 2 0.148306 7.31594 3.08369 5.20672
193 2 0.158426 8.53249 1.77431 6.07937
194 2 0.150345 7.51226 3.02081 7.12577
195 2 0.195237 8.01674 4.78591 3.7348
367 2 0.219651 6.83786 6.46021 0.553135
202 2 0.1541 9.03878 5.96157 6.09194
278 3 -0.749248 8.79239 1.1864 3.34976
291 3 -0.797692 5.65775 5.15682 2.68698
366 1 -0.644434 8.00571 6.1946 0.563017
368 2 0.170547 8.5299 6.28876 1.62552
123 2 0.0171214 9.80211 5.45047 0.673777
169 2 0.125698 7.38087 4.72427 7.71345
253 3 -0.806487 5.93781 3.7544 0.378883
245 3 -0.792335 7.37435 1.44019 0.668825
48 4 1.26845 9.82258 2.5031 3.72615
56 4 1.12278 6.3576 6.31161 3.55347
359 2 0.175987 5.01326 6.07969 0.263356
288 3 -0.84645 9.69229 3.67058 2.64031
352 2 0.149064 8.48835 1.0464 8.37931
24 4 1.1076 7.89504 0.435322 1.73905
351 1 -0.672871 9.06387 0.0537246 8.31734
196 2 0.117467 7.68567 5.62288 5.44417
198 2 0.113304 5.42221 6.48499 5.60315
197 2 0.17822 8.92918 6.48169 4.2282
379 2 0.233689 9.56859 0.420967 0.215014
167 2 0.10572 8.18352 3.35153 8.67266
94 1 -0.682025 9.86326 6.08069 6.97346
289 3 -0.827654 11.9391 3.79899 1.13172
290 3 -0.831917 11.3945 5.51086 2.93484
281 3 -0.850506 11.1829 1.9218 4.28995
282 3 -0.854997 12.2843 0.704409 6.28985
324 4 1.27986 13.2882 0.420013 1.75879
49 4 1.30908 12.2562 2.71123 0.0103788
51 4 1.50096 12.1433 2.01486 5.54997
293 3 -0.782339 11.374 3.25938 6.69937
58 4 0.866167 10.6298 4.2967 7.58004
55 4 1.32648 10.7578 4.57034 1.87187
203 2 0.226256 10.9005 6.38279 6.58156
325 3 -0.854033 13.9174 1.49476 2.7737
280 3 -0.801235 13.7851 2.64647 5.1659
326 3 -0.848042 12.5562 1.21184 0.542521
7 4 1.33676 14.5643 2.40697 3.83378
380 2 0.206067 10.1279 0.163427 7.81679
50 4 1.46766 13.1023 0.034637 7.55665
32 4 1.1281 6.64807 3.03557 10.4001
39 4 1.18492 4.82062 4.4868 12.3804
53 4 1.42264 8.55313 2.73652 15.6121
81 1 -0.686395 8.05327 1.94378 11.276
96 1 -0.673742 4.90658 6.09203 15.3005
127 2 -0.0074997 5.61212 5.45054 13.5835
166 2 0.222873 8.16459 2.55024 12.2332
207 2 0.177792 4.34632 5.83445 16.307
208 2 0.184141 5.8605 5.50613 15.3172
209 2 0.108211 4.13546 5.8996 14.4385
261 3 -0.803577 6.05135 4.05799 11.4353
283 3 -0.826255 8.23852 1.06328 15.3952
285 3 -0.824688 7.21576 3.48516 16.6406
168 2 0.186767 7.86349 4.99852 9.45657
295 3 -0.83803 8.4242 3.43027 14.0271
301 3 -0.76473 8.62274 5.66135 12.2168
164 2 0.122215 8.837 2.17499 10.4465
26 4 1.49784 5.83641 2.7205 16.9505
165 2 0.16554 7.7218 0.843067 11.3364
30 4 1.18356 7.67325 0.178366 14.2722
126 2 -0.00614409 5.76799 5.23321 8.78534
82 1 -0.68668 7.4476 4.25562 8.736
163 2 0.23804 6.59106 2.24885 13.0006
383 2 0.261789 7.09219 5.20359 17.3468
54 4 1.29121 11.3008 2.49905 12.4119
279 3 -0.771032 13.3444 1.30097 8.90713
140 2 0.166123 11.8116 5.28508 16.7255
317 3 -0.7882 14.1874 0.147794 13.5191
60 4 1.40685 9.51373 4.63071 13.4618
95 1 -0.664174 10.6939 4.01279 9.39781
365 2 0.19302 10.1957 0.132453 13.5865
121 2 0.0100836 9.88449 1.62161 11.8825
120 2 -0.0263108 13.8412 1.92054 15.47
145 2 0.18487 11.2699 5.76605 10.4495
204 2 0.16431 9.89679 4.46632 10.0568
206 2 0.155529 10.5894 2.73583 9.20915
119 2 0.0179045 12.5424 3.44042 16.5564
205 2 0.158904 11.8117 4.36217 9.53127
284 3 -0.867583 10.0231 2.81718 16.3175
287 3 -0.866482 12.0806 1.86356 13.5674
296 3 -0.832899 10.8765 3.97327 12.7599
297 3 -0.824442 10.0121 5.54712 14.6934
286 3 -0.822797 12.222 2.31386 11.0774
9 4 1.29167 13.5495 2.21955 10.2395
138 2 0.199262 12.2398 4.57555 15.0194
52 4 1.26557 13.0003 0.849683 14.3239
42 4 1.24482 2.41963 9.2734 2.02824
44 4 1.04529 0.308931 11.8502 4.76655
64 4 1.43074 3.29648 11.612 3.75528
93 1 -0.668987 5.00479 7.22228 4.80604
101 1 -0.653829 1.98052 9.58821 6.95734
66 4 1.19282 2.39829 10.7083 8.6246
223 2 0.240057 2.70434 10.0944 6.25948
268 3 -0.834286 2.89236 9.06779 0.520289
305 3 -0.823313 3.55632 9.96989 2.85939
306 3 -0.856639 3.00367 12.6906 2.52195
307 3 -0.796844 1.92072 11.5587 4.73283
312 3 -0.849113 4.56181 11.979 4.61326
348 1 -0.664495 -0.139906 12.9576 0.939648
358 1 -0.668857 4.83503 7.18952 0.653695
350 2 0.184803 0.748365 12.6621 1.61065
199 2 0.206305 4.04244 6.98483 4.24111
384 2 0.219537 2.25954 12.1031 0.76756
216 2 0.270299 5.00888 10.1413 1.87232
360 2 0.210149 4.30595 7.37999 1.65036
372 2 0.103958 -0.00815824 13.378 4.10135
200 2 0.221919 5.0738 8.29184 5.02255
309 3 -0.809576 2.74905 12.153 8.16682
314 3 -0.804931 5.07405 12.9338 7.1302
222 2 0.136082 2.30678 8.48784 7.24153
122 2 -0.00561562 3.88146 6.88674 6.40358
343 2 0.150686 8.85328 10.0686 6.71043
100 1 -0.676404 7.54253 10.1947 8.50237
304 3 -0.813344 7.82328 10.161 3.31777
20 4 1.28938 8.19379 11.1998 4.51714
217 2 0.163505 6.08668 9.76155 0.250234
303 3 -0.765937 8.74375 8.97963 0.894407
311 3 -0.81489 7.15685 11.9178 5.48876
373 2 -0.0460925 5.16863 13.0432 1.01107
377 2 0.166135 9.18034 8.97732 5.16935
131 2 0.148143 10.2155 7.59535 5.0811
308 3 -0.814854 6.18894 7.91826 8.01943
375 2 0.181146 9.59985 7.62484 3.16235
63 4 1.20907 7.43401 9.20134 2.06039
65 4 1.04088 6.51768 9.19142 7.2194
67 4 1.43259 5.44516 11.697 5.9573
69 1 -0.66379 10.4438 7.78791 3.92081
99 1 -0.678208 6.05983 10.2426 1.31627
129 2 -0.0144545 7.7478 8.83908 6.01726
361 2 0.185984 5.69535 7.86984 0.507159
313 3 -0.819435 5.29459 10.1494 6.55695
218 2 0.175739 6.51669 11.259 1.33547
302 3 -0.751411 6.80498 7.56191 2.67044
221 2 0.167206 7.42346 11.2681 8.30042
219 2 0.154391 8.70015 9.874 8.57111
201 2 0.145676 9.53665 6.85292 7.70466
147 2 0.148152 10.0486 8.34125 7.87189
35 4 1.26381 2.41463 7.98084 16.8673
68 4 1.10438 1.96502 11.8516 15.4347
102 1 -0.655791 0.920444 11.9447 17.0404
103 1 -0.646348 3.87787 10.0179 9.60421
116 2 0.0648815 2.59977 8.57765 14.0465
117 2 0.000731815 0.677591 11.9969 11.8814
130 2 0.0440089 2.7073 11.2236 16.9538
226 2 0.19758 0.422 12.9881 16.561
229 2 0.196596 3.33867 9.40526 10.4001
299 3 -0.806441 3.56126 8.49779 15.4289
310 3 -0.813853 1.30237 10.4541 9.78437
315 3 -0.821451 1.34195 10.6858 14.6726
316 3 -0.880643 2.70517 13.14 14.968
329 1 -0.654323 3.60487 11.1212 12.6339
334 2 0.198059 2.64149 11.6868 12.8317
335 2 0.146611 3.90955 10.3823 13.5326
362 1 -0.688233 -0.248763 13.1385 13.1821
333 2 0.170273 3.69206 10.6434 11.5175
225 2 0.165094 0.141413 11.0193 16.9458
45 4 1.22114 1.07996 9.16476 13.7555
364 2 0.180806 -0.323514 12.0014 13.488
115 2 -0.0152285 3.7841 7.86892 12.2844
47 4 1.26252 0.42798 10.4491 11.1559
353 2 0.166227 -0.301833 12.982 9.34275
41 4 1.2119 3.5431 6.744 10.9392
277 3 -0.871676 1.07988 9.4934 12.2729
228 2 0.237651 4.29606 9.30131 8.81761
363 2 0.147942 -0.466331 13.3372 12.0939
332 2 0.212206 6.47206 13.1459 11.1
294 3 -0.845937 4.61383 7.34882 9.92032
128 2 -0.0164432 10.086 7.41423 10.3886
298 3 -0.788779 6.51752 8.25251 15.9555
62 4 1.04841 8.54249 6.96414 11.2655
327 4 0.898141 5.20697 12.1444 12.8546
328 1 -0.663992 5.78435 12.2464 10.9243
18 4 1.25506 10.1781 6.98725 15.4805
330 1 -0.661873 6.71028 11.1696 13.8666
386 2 0.163195 6.50824 11.2895 14.9682
59 4 1.1964 5.97439 6.87004 9.32358
300 3 -0.812888 7.3035 6.95778 10.3042
331 2 0.140036 6.42281 11.3848 10.4647
337 2 0.183204 6.49637 10.0854 13.4959
210 2 0.10407 5.19625 7.18507 12.8457
227 2 0.170929 4.7002 10.7718 10.0662
385 2 0.219981 4.93172 12.4802 10.3333
57 4 1.31755 7.61434 7.81921 17.0009
61 4 1.03639 5.0743 7.94988 14.9789
97 1 -0.670311 5.48422 8.33625 13.1144
98 1 -0.665919 8.5049 8.6455 12.0956
211 2 0.184615 6.60199 8.46721 12.7937
212 2 0.150562 4.8327 9.08992 12.5556
214 2 0.201605 8.26142 8.17378 13.1638
215 2 0.149767 7.6718 9.33474 11.6424
220 2 0.174021 6.9494 9.90084 9.45571
292 3 -0.859273 8.99573 7.33353 16.4552
ITEM: TIMESTEP
100
ITEM: NUMBER OF ATOMS
386
ITEM: BOX BOUNDS xy xz yz pp pp pp
-1.0487499600000000e+01 1.6607800000000001e+01 -9.4157995999999997e+00
0.0000000000000000e+00 1.3453600000000000e+01 -1.0717000000000001e+00
0.0000000000000000e+00 1.7350200000000001e+01 3.3999999999999998e-03
ITEM: ATOMS id type q x y z
8 4 1.03061 0.9635 1.29596 0.580149
12 4 1.46753 -0.334321 4.0395 1.85696
15 4 1.04815 -0.816517 4.66416 7.80124
70 1 -0.682643 0.701303 3.86509 6.94894
104 2 -0.019606 -0.737062 1.3828 4.79457
107 2 -0.0170502 -1.9444 3.41431 7.91581
132 2 0.194795 0.689407 4.32491 5.95326
133 2 0.116229 0.130491 2.78536 6.90531
34 4 1.3154 1.12914 6.51041 3.37454
233 3 -0.796963 -1.18515 3.58356 3.1759
234 3 -0.815476 0.597962 2.70848 1.30814
235 3 -0.839029 -1.19235 4.62663 0.581785
237 3 -0.788822 -1.53283 5.8086 6.93624
254 3 -0.774986 0.710159 5.40206 2.25655
374 2 0.145086 0.924742 0.72421 6.72754
33 4 1.33814 4.8699 3.98038 1.84454
245 3 -0.810484 7.21639 1.4614 0.692254
236 3 -0.763057 -3.99079 6.5038 5.29355
170 2 0.238601 -0.710092 6.33574 5.15992
171 2 0.229683 -1.33396 6.68299 3.40561
340 2 0.240459 1.9169 0.164158 5.16977
85 1 -0.679582 3.20464 4.56452 1.1262
355 2 0.217588 3.37811 0.815787 0.145469
111 2 0.030793 3.04403 1.81349 4.76774
113 2 0.0186088 1.70338 5.6142 7.19545
134 2 0.252105 1.69394 3.77758 7.49809
36 4 1.10066 4.42537 3.39289 7.06198
176 2 0.22476 2.53463 3.80614 1.6918
38 4 0.951229 2.88498 5.60545 5.99225
178 2 0.223168 3.02777 5.58087 1.54267
252 3 -0.844939 4.54761 2.80742 2.82462
356 2 0.192108 2.90297 2.76523 0.274573
256 3 -0.820515 4.86819 1.80608 6.56291
255 3 -0.778531 3.34902 3.43855 8.48149
244 3 -0.82962 3.60857 0.401295 2.4727
258 3 -0.804498 2.01339 5.95174 4.68193
247 3 -0.793116 5.5676 0.844972 4.23188
338 1 -0.67702 1.94542 0.827055 6.10125
339 2 0.181531 2.02049 1.97257 5.96461
259 3 -0.834356 3.65492 4.27143 5.96058
25 4 1.2937 4.2251 1.43275 3.52808
29 4 1.25472 6.11029 1.14882 5.82882
7 4 1.29566 -1.86507 2.31818 3.96899
11 4 1.32458 -0.511623 2.36035 11.9628
17 4 1.06857 -1.23554 4.35135 14.2373
71 1 -0.700769 -1.185 3.03726 15.7624
72 1 -0.6737 -4.0364 5.20524 15.9036
14 4 1.34194 -2.56053 6.00489 17.2117
108 2 0.00512032 -2.83432 5.09735 14.363
135 2 0.154765 -0.670084 2.20741 15.1232
136 2 0.153741 -2.17053 2.76971 16.2862
137 2 0.20522 -0.532662 3.67489 16.3826
139 2 0.134296 -3.88171 6.19341 15.3005
231 3 -0.794326 -1.60031 1.80303 10.8258
155 2 0.266438 0.454977 3.9548 10.1246
182 2 0.16369 -1.71352 6.52708 11.3264
177 2 0.19326 1.9498 4.57077 17.3421
232 3 -0.826404 0.333564 1.34127 12.8456
238 3 -0.814357 -1.17968 3.57402 12.9131
262 3 -0.81125 -0.0571803 5.42988 14.5063
105 2 -0.0261532 -1.1975 1.22937 16.5441
257 3 -0.774005 -0.215797 5.12544 9.14592
78 1 -0.645316 0.940273 3.03392 10.8719
266 3 -0.838447 3.64658 5.18169 11.5927
369 2 -0.0282143 -2.88221 3.62428 9.44729
144 2 0.163398 -3.88555 6.39959 10.954
354 1 -0.652857 1.56849 1.63003 17.2351
31 4 1.23545 3.60386 2.50512 14.6985
156 2 0.161195 1.37434 2.1513 10.2785
79 1 -0.675137 2.44895 3.84506 15.2566
112 2 0.0334066 2.8191 2.45668 10.9994
251 3 -0.803029 5.36829 1.92177 9.85894
162 2 0.182837 6.30953 0.818875 12.2044
28 4 1.16686 3.71167 2.16654 9.55634
80 1 -0.669684 6.30754 1.13647 13.313
157 2 0.197225 1.5643 3.47982 11.7542
249 3 -0.776785 2.58641 1.0412 14.3335
160 2 0.178627 1.44879 3.40861 15.5116
158 2 0.187399 2.4876 4.487 14.2796
161 2 0.21774 5.47049 0.748012 13.8845
357 2 0.133589 1.20295 1.63751 16.1099
246 3 -0.774197 3.10142 0.75606 8.87308
260 3 -0.81648 4.20667 3.04914 13.2246
159 2 0.178065 2.8549 4.4123 16.1705
250 3 -0.834221 4.92472 2.30255 15.7461
10 4 0.940944 1.32611 0.410988 13.6318
140 2 0.171742 -4.74489 5.28851 16.846
1 4 1.20046 -6.93366 12.7306 2.26828
2 1 -0.681623 -6.20701 11.3246 1.29316
148 2 0.152804 -5.7398 10.2916 8.16802
4 2 0.163459 -5.63149 10.6694 2.04364
5 2 0.158827 -5.4715 11.721 0.474557
6 3 -0.801911 -7.38687 12.2833 3.98532
73 1 -0.677484 -3.99851 9.31355 0.809613
241 3 -0.787764 -3.88479 7.33895 7.9568
143 2 0.193854 -4.94647 9.02206 1.40684
376 2 0.174561 -5.87658 8.82422 3.75814
319 1 -0.671643 -5.27751 11.9572 7.11738
321 2 0.167504 -5.15452 12.5628 6.01553
322 2 0.159404 -5.22983 10.8328 6.88141
3 2 0.219614 -7.02919 10.7012 0.841189
342 2 0.175839 -6.24881 10.5146 5.3751
346 2 0.225156 -3.82351 12.8438 2.06218
382 2 0.172263 -3.36434 12.4282 0.36
239 3 -0.80436 -3.47814 7.7628 2.9997
109 2 0.00301771 -1.31015 9.31487 2.12758
142 2 0.129287 -3.61899 10.3933 1.0652
320 2 -9.52918e-05 -6.98136 11.6366 7.85244
323 2 0.22877 -4.54654 12.3826 7.87056
147 2 0.154617 -6.34713 8.38012 7.93145
13 4 1.34823 -4.57639 6.8172 3.79113
83 1 -0.662139 -0.505041 6.86621 4.18447
349 2 0.169642 -0.499245 11.9892 0.480602
179 2 0.205625 -0.467772 7.30578 7.72561
272 3 -0.785681 -0.393135 11.5174 6.0367
341 1 -0.675602 -7.1804 10.0213 5.68257
172 2 0.155404 -0.387444 7.99433 4.39869
16 4 1.20568 -2.96805 6.91104 6.57947
185 2 0.131723 -0.425275 11.5391 2.34624
186 2 0.155522 -1.51785 10.6094 3.83863
174 2 0.189271 -2.69366 8.72929 5.08336
240 3 -0.82614 -2.13148 7.10069 0.824409
187 2 0.163323 0.173153 9.77463 3.34067
173 2 0.205177 -2.68606 9.2641 6.9319
347 2 0.202728 -2.67522 12.4094 3.43272
248 3 -0.782598 -2.58702 13.2679 6.70202
267 3 -0.789589 1.62482 7.97674 2.76658
345 2 0.114008 -2.32823 11.7595 1.59638
175 2 0.170933 -1.11495 8.59074 6.12342
344 1 -0.666542 -2.75628 12.5989 2.29961
180 2 0.197089 0.85526 8.63882 7.96983
381 2 0.126019 -1.43161 10.5834 0.484302
19 4 1.03261 -2.68908 8.31461 1.6952
27 4 1.26693 -1.5898 12.1867 7.39274
270 3 -0.833669 -2.06693 11.2455 8.54026
84 1 -0.670782 -2.27489 8.58947 6.12234
86 1 -0.671703 0.0029602 8.04503 8.49858
88 1 -0.681758 -0.519543 10.7101 3.29561
230 3 -0.78821 -8.41948 13.3486 1.31706
318 4 0.864574 -6.59966 13.3242 7.52252
343 2 0.149696 -7.44614 10.2528 6.73772
21 4 1.11742 -4.31208 8.15619 9.28428
22 4 1.23553 -4.84653 8.99224 13.6333
23 4 0.980808 -5.10196 11.0985 11.1387
77 1 -0.635505 -5.52862 12.6743 12.1916
90 1 -0.657227 -4.70012 12.2116 16.5856
110 2 -0.0267929 -5.98945 10.9466 9.71849
370 2 0.0134948 -5.10362 6.81822 16.307
153 2 0.168162 -5.96154 12.1264 13.0936
154 2 0.134137 -6.22119 13.0859 11.2746
190 2 0.153734 -5.73086 11.648 16.5854
332 2 0.142881 -9.4998 12.6219 11.4317
242 3 -0.818546 -6.11129 8.09319 14.1728
243 3 -0.794638 -5.49388 9.92096 12.1439
274 3 -0.788805 -4.16989 9.9421 14.8019
141 2 0.191909 -5.17422 9.13416 17.0731
371 2 -0.0191163 -8.88353 12.6265 14.515
146 2 0.162979 -5.36629 7.29431 11.244
378 2 0.13423 -6.53834 9.28853 9.67579
106 2 -0.016295 -7.4782 12.7348 12.5401
263 3 -0.833865 1.36163 6.83316 16.3903
213 2 0.243519 -7.17318 9.19337 12.184
191 2 0.220901 -4.68214 13.1962 16.0436
184 2 0.225175 -0.175199 6.84533 12.3452
87 1 -0.67311 -0.78345 7.20624 11.4729
189 2 0.201644 -2.46487 9.2547 16.475
269 3 -0.847059 -3.14357 9.11123 9.91801
188 2 0.18817 -1.04022 10.6313 16.4747
181 2 0.201453 -0.787664 8.69574 9.02537
273 3 -0.80231 -0.0797203 8.28043 14.3883
46 4 1.11576 -3.36374 11.1726 15.6435
275 3 -0.776634 -2.4139 12.2987 14.8328
271 3 -0.74657 -3.41969 11.4418 10.7904
43 4 1.493 -2.36045 10.4907 10.0261
76 1 -0.687416 -3.4429 7.84112 13.1474
89 1 -0.66998 -2.14271 10.3262 16.8364
149 2 0.208125 -3.20105 8.14423 12.0424
276 3 -0.833308 -1.10381 10.2117 11.0918
151 2 0.221564 -2.56863 8.03877 13.8687
183 2 0.261272 -0.960567 8.37626 11.4365
40 4 1.41756 -0.0197757 6.7831 15.4662
265 3 -0.74975 2.03345 6.82967 10.3935
37 4 0.99788 0.277609 6.87294 9.96342
264 3 -0.834874 -1.40725 6.74651 16.2903
150 2 0.158683 -3.89354 6.78571 13.2652
74 1 -0.67614 -4.84017 6.73698 10.4462
152 2 0.210386 -4.70537 13.3674 12.5214
75 1 -0.665796 -5.95696 9.21401 8.70721
91 1 -0.680629 7.62282 2.35743 6.02208
92 1 -0.678791 7.825 5.72316 4.32981
118 2 -0.00435223 9.17126 3.22214 5.19855
124 2 0.0191567 8.867 4.22502 6.96574
125 2 -0.033708 5.95466 4.10928 7.44708
192 2 0.138857 7.33278 2.9061 4.99395
193 2 0.15548 8.55375 1.71777 5.96822
194 2 0.143206 7.50305 2.99293 7.06254
195 2 0.184724 7.98639 4.69305 3.90526
367 2 0.189639 6.68261 6.54979 0.216249
202 2 0.156421 8.99053 5.88488 6.12958
278 3 -0.783536 8.76947 1.14671 3.44371
291 3 -0.782927 5.67711 5.40481 2.59465
366 1 -0.644297 7.91248 6.30253 0.319339
368 2 0.186079 8.25074 6.41804 1.42686
123 2 0.0125353 9.54392 5.4351 1.05479
169 2 0.116721 7.20259 4.70971 7.68304
253 3 -0.807465 5.77068 3.61828 0.532921
167 2 0.119064 8.15699 3.31398 8.58208
48 4 1.27327 9.80774 2.40781 3.87416
56 4 1.15831 6.32899 6.52611 3.47248
359 2 0.180112 4.8297 6.05533 0.100799
288 3 -0.86339 9.78438 3.53329 2.76436
352 2 0.159568 8.63932 0.895343 8.12253
24 4 1.10306 7.87113 0.556574 1.76014
201 2 0.144196 9.04928 6.53379 7.98992
196 2 0.0985282 7.21022 5.68683 5.36119
198 2 0.117964 5.51634 6.65671 5.58797
197 2 0.166738 8.71443 6.52523 4.25834
379 2 0.226848 9.76581 0.284222 0.213128
50 4 1.47609 13.1285 0.125261 7.64271
94 1 -0.678273 9.64012 6.01464 7.12478
289 3 -0.839148 11.5969 3.84574 1.01238
290 3 -0.818908 11.4845 5.60674 2.90605
281 3 -0.802099 11.2454 1.93311 4.22148
282 3 -0.850741 12.2833 0.906484 6.43037
324 4 1.3479 13.3964 0.576194 1.77298
49 4 1.36003 12.1374 2.77688 0.0108628
51 4 1.45948 12.1974 2.26191 5.63106
293 3 -0.812988 11.4476 3.48879 6.53913
58 4 0.873272 10.5314 4.28767 7.53818
55 4 1.36441 10.652 4.5462 2.01452
203 2 0.19992 10.6636 6.45665 6.86223
325 3 -0.867169 14.1223 1.40207 2.84287
280 3 -0.786988 13.7447 2.86167 5.10148
326 3 -0.871466 12.5672 1.50392 0.757512
32 4 1.13702 6.46326 2.94314 10.3505
39 4 1.21562 4.77471 4.29739 12.3755
53 4 1.46192 8.54823 2.77243 15.6257
81 1 -0.687862 7.96768 2.1824 11.1908
96 1 -0.690192 4.84015 6.00709 15.1672
127 2 0.00109656 5.60721 5.33678 13.4884
166 2 0.243994 8.18703 2.72283 12.1631
207 2 0.172282 4.33261 5.65504 16.1598
208 2 0.172885 5.90562 5.55364 15.0716
209 2 0.120298 4.18721 5.75652 14.318
261 3 -0.823228 6.00158 4.03946 11.354
283 3 -0.851725 8.13694 1.21065 15.4334
285 3 -0.814485 7.23489 3.53546 16.5918
168 2 0.174267 7.87462 4.92376 9.38278
295 3 -0.816901 8.49816 3.46714 13.9119
301 3 -0.780866 8.84039 5.85281 12.3819
164 2 0.13659 8.7689 2.37194 10.4049
26 4 1.52712 5.75097 2.69535 16.9943
165 2 0.149881 7.78938 1.04616 11.3004
30 4 1.18374 7.71308 0.21635 14.3407
126 2 0.00734773 5.85738 5.3188 8.68378
82 1 -0.675055 7.42241 4.16814 8.70296
163 2 0.239653 6.4832 2.25294 13.4911
138 2 0.166416 12.4446 4.22576 15.3485
54 4 1.23281 11.2435 2.40638 12.2741
279 3 -0.841627 13.2541 1.10392 8.85557
52 4 1.20676 13.0538 0.699134 14.3278
383 2 0.253788 7.02355 5.22278 17.1977
60 4 1.44912 9.57739 4.72834 13.4973
95 1 -0.67732 10.5058 3.99537 9.34747
41 4 1.2499 3.4796 6.66138 11.0433
121 2 -0.00508563 9.75896 1.62995 11.9901
120 2 -0.0191714 13.908 1.81941 15.3586
145 2 0.181407 11.2314 5.80682 10.0007
204 2 0.155889 9.7194 4.6069 9.96221
206 2 0.113192 9.97953 2.83797 9.09773
119 2 0.00127927 12.5449 3.33433 16.6651
205 2 0.199677 11.5017 3.97401 9.86729
284 3 -0.885387 9.99447 2.82347 16.2146
287 3 -0.820064 12.0296 1.60821 13.506
296 3 -0.804541 10.875 3.91528 12.6622
297 3 -0.853279 9.90967 5.60468 14.74
286 3 -0.818792 12.2669 2.23791 11.0337
9 4 1.24972 13.5461 2.10348 10.0973
317 3 -0.776805 14.4017 0.0697934 13.6108
363 2 0.12794 8.98925 0.1222 12.3848
42 4 1.21329 2.27737 9.4398 2.05043
44 4 1.06456 0.328654 11.7674 4.67834
64 4 1.41397 3.24139 11.6248 3.56046
93 1 -0.668351 4.97924 7.29583 4.77609
101 1 -0.679418 2.26554 9.66144 7.09705
372 2 0.104567 -0.154675 13.2963 4.06224
223 2 0.235063 3.27893 9.87781 6.60317
268 3 -0.81334 2.52194 9.20375 0.5075
305 3 -0.804113 3.55235 9.89071 2.82867
306 3 -0.873788 3.11834 12.7588 2.22419
307 3 -0.857869 1.85588 11.4726 4.32059
312 3 -0.835086 4.52636 11.8837 4.51705
348 1 -0.668265 -0.124028 12.9956 0.97667
358 1 -0.663688 4.68082 7.16856 0.476962
350 2 0.183459 0.613403 12.9539 1.88523
199 2 0.203292 3.98282 6.94292 4.36913
384 2 0.242173 2.46061 12.2511 0.696541
216 2 0.269691 5.02631 9.94425 1.91787
360 2 0.196569 4.23378 7.25615 1.54214
114 2 0.00445199 1.14393 10.7276 2.20196
200 2 0.219587 4.98106 8.40253 4.9894
309 3 -0.805095 2.76921 12.2535 8.31015
314 3 -0.830719 5.18581 12.9103 6.98468
222 2 0.143792 2.16112 8.54616 7.26018
122 2 -0.00297045 3.90977 6.9286 6.37558
224 2 0.219804 1.42724 10.0591 6.49751
100 1 -0.676728 7.59396 10.1399 8.34792
304 3 -0.831878 7.84797 10.1946 3.48698
20 4 1.3557 8.20904 11.181 4.59696
217 2 0.177443 6.04774 9.51969 0.270224
303 3 -0.783546 8.60396 8.74872 0.972455
311 3 -0.875107 6.98835 11.8331 5.45967
373 2 -0.037693 5.16021 13.3367 0.80096
377 2 0.166216 9.4712 8.87188 5.45862
131 2 0.137899 9.95435 7.60713 5.10115
308 3 -0.829885 6.16502 7.87636 7.91573
375 2 0.179533 9.72092 7.2835 3.15635
63 4 1.30997 7.42496 9.20147 2.22273
65 4 1.05461 6.51888 9.16863 7.0848
67 4 1.51191 5.5061 11.8561 5.8621
69 1 -0.659897 10.3693 7.79491 3.95384
99 1 -0.681316 6.0529 10.0912 1.30072
129 2 -0.000774966 7.81981 8.92365 5.92019
361 2 0.176577 5.64271 7.78035 0.393968
313 3 -0.782975 5.35193 10.1833 6.62688
218 2 0.174376 6.39915 11.163 1.22105
302 3 -0.81884 6.88164 7.83956 2.81181
221 2 0.175779 7.41668 11.2036 8.10371
219 2 0.157399 8.73685 9.84335 8.34675
380 2 0.231247 0.595242 13.1337 7.84602
351 1 -0.659572 -0.381265 13.3024 8.3223
35 4 1.1908 2.30772 8.02403 16.8399
68 4 1.09888 1.95468 11.7432 15.5105
102 1 -0.669169 0.810054 11.908 17.0674
103 1 -0.640807 3.90812 10.0235 9.63389
116 2 0.0440797 2.38516 8.32153 14.2657
117 2 0.0128858 0.691523 12.0816 11.7636
130 2 0.0528004 2.48632 10.9654 16.9868
226 2 0.171777 0.239195 12.8507 16.4479
229 2 0.180559 3.31707 9.386 10.4007
299 3 -0.812822 3.60204 8.62208 15.5
310 3 -0.829869 1.11768 10.6527 9.69318
315 3 -0.83654 1.35768 10.7442 14.506
316 3 -0.868196 2.84993 12.951 15.1097
329 1 -0.671595 3.78454 10.9731 12.8165
334 2 0.209711 2.97189 11.6677 12.8556
335 2 0.184498 3.80175 10.2779 13.7121
362 1 -0.674142 -0.131378 12.9678 13.3032
333 2 0.16217 3.88732 10.4322 11.7984
225 2 0.186713 0.123081 11.0412 17.3233
45 4 1.23625 1.06418 9.2085 13.7846
364 2 0.207864 -0.340416 11.8265 13.274
115 2 -0.0223112 3.54598 7.74599 12.3535
47 4 1.21924 0.497576 10.4514 11.1642
353 2 0.190578 -0.491764 12.9324 9.36245
228 2 0.227382 4.31847 9.43679 8.76856
277 3 -0.85429 1.1662 9.40236 12.2642
336 2 0.152827 7.76017 10.9439 14.1188
365 2 0.20611 0.776942 13.3542 13.8646
66 4 1.19773 2.39558 10.8339 8.73401
294 3 -0.838529 4.57261 7.04502 9.98847