ITEM: TIMESTEP
0
ITEM: NUMBER OF ATOMS
386
ITEM: BOX BOUNDS xy xz yz pp pp pp
-1.0522200000000000e+01 1.6607800000000001e+01 -9.4504999999999999e+00
0.0000000000000000e+00 1.3453600000000000e+01 -1.0717000000000001e+00
0.0000000000000000e+00 1.7350200000000001e+01 3.3999999999999998e-03
ITEM: ATOMS id type q x y z
8 4 1.02614 0.889264 1.22882 0.657599
12 4 1.40431 -0.134071 4.31477 1.54476
107 2 0.071279 -2.271 2.98603 7.89647
15 4 1.03834 -1.19398 4.19112 7.26247
25 4 1.20169 5.1785 1.55587 3.95095
29 4 1.2899 6.61118 1.19156 6.45363
34 4 1.28307 1.25999 6.35743 3.59227
171 2 0.220362 -1.04685 6.44074 3.04906
36 4 1.16587 4.7903 3.75589 7.0604
38 4 0.970471 2.54721 5.22428 6.24775
70 1 -0.673153 -0.0439331 3.01364 6.17765
85 1 -0.665104 3.41381 3.4674 1.63935
104 2 0.00879748 -0.676924 2.37388 4.41994
340 2 0.160616 3.20153 0.34504 5.46228
33 4 1.33951 5.25547 3.98733 2.04627
111 2 0.0105794 3.88596 1.93229 5.14035
113 2 0.0279618 1.55363 3.92026 6.8736
132 2 0.168889 -0.0846426 3.76385 5.28121
133 2 0.147078 -0.959624 2.17685 6.21611
134 2 0.16433 0.989729 2.41001 6.17012
339 2 0.144207 2.77775 2.17084 6.03624
176 2 0.224329 3.35412 2.46543 1.07664
177 2 0.206988 2.95944 4.34707 1.08594
178 2 0.21132 3.01297 3.33428 2.69366
230 3 -0.775597 2.10325 0.621447 1.53116
233 3 -0.836597 -1.46114 4.10433 2.58719
234 3 -0.789084 0.300447 2.71636 0.988383
235 3 -0.856463 -0.202671 5.26898 0.260859
374 2 0.194833 1.35913 0.849885 5.69288
237 3 -0.80635 -1.78134 5.27293 6.2875
255 3 -0.814035 3.92785 3.58944 8.56794
244 3 -0.788843 4.55795 0.452907 2.81463
247 3 -0.801274 6.41696 0.882241 4.82515
252 3 -0.815472 5.63547 2.92555 3.19488
254 3 -0.760566 1.18497 5.02294 2.54914
256 3 -0.845048 5.46127 2.3167 6.81352
258 3 -0.822387 1.9634 5.80695 4.91428
259 3 -0.83966 4.02584 4.68503 6.01053
338 1 -0.645936 2.4447 1.00786 6.03479
16 4 1.24078 -2.9838 6.47034 6.47024
122 2 0.0165441 2.28546 6.53238 7.3807
257 3 -0.804016 -0.239102 4.74655 8.43196
360 2 0.244184 2.81756 6.15334 1.35299
236 3 -0.78904 -4.15325 6.62003 5.19849
7 4 1.35074 -2.06088 2.88479 3.40536
358 1 -0.690475 3.42826 6.3192 0.452353
245 3 -0.762086 7.03863 1.24172 0.602971
241 3 -0.829792 -3.53867 6.59776 8.07945
24 4 1.07651 7.86612 0.205779 1.64476
170 2 0.210162 -0.684193 6.64318 4.88942
10 4 0.981265 1.45343 0.848262 13.123
11 4 1.27829 -0.611578 2.58886 11.7094
162 2 0.200333 5.62031 0.592452 11.9638
17 4 1.0561 -1.15056 4.6361 13.8982
28 4 1.22587 3.82981 2.36631 9.52406
354 1 -0.646001 0.67552 1.02249 16.4208
31 4 1.33999 3.30694 2.62578 14.7675
37 4 1.03276 0.541302 6.28246 9.35177
356 2 0.12876 -0.313876 0.928874 15.7848
71 1 -0.705323 -1.13744 3.1116 15.1031
72 1 -0.69585 -3.74359 4.80478 16.14
106 2 -0.00778206 2.34867 0.445424 11.6688
78 1 -0.689256 0.927639 3.24159 10.5824
79 1 -0.655719 2.09644 3.81628 15.7615
80 1 -0.686031 5.73695 0.690979 13.1055
74 1 -0.668236 -5.08068 6.53355 10.5024
266 3 -0.860132 3.72198 5.22118 11.7211
108 2 0.022779 -2.75993 5.07387 14.4531
112 2 0.0319179 2.82471 2.86467 10.8918
135 2 0.211401 -0.339429 2.46562 14.5468
136 2 0.13661 -2.10754 2.51759 15.3002
137 2 0.212355 -0.730285 3.67768 16.0194
138 2 0.143745 -2.91696 3.99154 15.8323
231 3 -0.81006 -1.76523 1.93651 10.8485
369 2 -0.0234433 -2.72105 4.23221 9.86592
163 2 0.233543 5.77262 1.73806 13.4152
155 2 0.25323 0.431321 3.80098 9.68558
156 2 0.160974 1.32139 2.23946 10.3083
157 2 0.217908 1.54467 3.92627 11.2187
158 2 0.169026 2.2701 3.7149 16.9426
159 2 0.18091 0.945148 3.57 15.4223
160 2 0.172644 2.44904 4.81204 15.3147
14 4 1.37079 -2.46419 6.19952 17.0618
87 1 -0.672194 -0.584057 6.69159 10.888
260 3 -0.872623 3.84034 3.45391 13.5316
182 2 0.249379 -0.8534 5.67714 11.4235
262 3 -0.808932 -0.0599049 5.64766 14.4855
359 2 0.17422 2.19519 5.43959 16.9518
232 3 -0.852071 0.211142 1.62731 12.6852
238 3 -0.81644 -1.19675 4.16151 12.3441
246 3 -0.781854 2.9551 1.15543 8.80375
249 3 -0.830785 2.37435 1.44318 14.2445
250 3 -0.822242 4.38642 2.29861 16.0054
251 3 -0.78171 5.34683 1.83847 10.1257
265 3 -0.759224 2.02523 6.28209 10.0305
355 2 0.19855 1.2389 2.08174 16.1983
144 2 0.171497 -4.46917 5.62694 10.3046
357 2 0.190671 1.33595 0.0955687 16.4229
161 2 0.165353 4.9951 0.120884 13.7973
140 2 0.168061 -4.20997 4.58277 17.1744
370 2 0.026645 -5.11396 6.12565 16.7207
1 4 1.27666 -6.30174 13.1641 2.4861
2 1 -0.666439 -5.80256 11.5811 1.46938
381 2 0.117457 -1.27131 10.2595 0.386213
4 2 0.161786 -5.46304 10.9434 2.3492
5 2 0.172513 -4.98549 11.6575 0.633754
6 3 -0.805122 -7.24808 12.5945 3.73134
345 2 0.119865 -1.97834 11.4062 1.67866
19 4 1.03129 -2.96416 8.09582 1.62613
27 4 1.23471 -1.47976 12.1713 7.62982
73 1 -0.673082 -4.02827 9.05767 0.468177
75 1 -0.712243 -5.03589 9.02948 8.20208
83 1 -0.70326 -0.499197 7.00599 3.84678
84 1 -0.657604 -2.18229 8.19018 6.11551
86 1 -0.648721 0.748019 7.58332 7.99996
88 1 -0.651457 -0.744632 10.2075 3.6827
109 2 0.00641463 -1.73308 9.10143 2.46084
347 2 0.186038 -2.54207 12.354 3.21388
221 2 0.147683 -7.46701 10.4466 7.36726
346 2 0.207794 -3.7794 12.028 1.82058
142 2 0.12396 -3.4891 10.0951 0.684367
143 2 0.207804 -5.13809 9.03422 0.831387
147 2 0.176327 -4.93471 8.803 7.103
343 2 0.14753 -6.34631 11.191 6.31765
172 2 0.185633 -0.61084 8.10729 3.79564
173 2 0.178665 -2.33133 8.57123 5.0543
174 2 0.161801 -1.06446 8.00678 6.35927
175 2 0.206969 -2.66117 8.86484 6.88134
179 2 0.140554 0.558203 6.81568 7.11398
114 2 -0.0129817 0.841525 10.0282 2.44043
185 2 0.10451 -0.566336 11.0298 2.80555
186 2 0.136441 -1.66615 10.3671 4.50171
187 2 0.125967 0.234064 9.51413 4.18044
382 2 0.178724 -3.33459 11.9633 0.168993
239 3 -0.795245 -4.03202 7.4157 2.65303
240 3 -0.854528 -2.22201 6.97701 0.755686
3 2 0.205939 -6.75776 11.2861 1.02617
267 3 -0.820504 1.97606 7.8499 3.0762
270 3 -0.772507 -2.28435 10.8039 8.44373
148 2 0.192729 -4.5883 9.96048 8.4586
320 2 0.00693291 -7.98896 12.2293 8.14693
319 1 -0.659233 -5.31617 12.2543 7.70269
321 2 0.19 -4.86412 12.6309 6.72182
322 2 0.16482 -5.2288 11.0545 7.76781
341 1 -0.663896 -6.93179 10.5372 5.41175
180 2 0.186113 1.51636 8.42965 7.68154
342 2 0.170851 -6.25307 10.0991 4.6715
248 3 -0.784013 -2.71079 13.3673 7.39702
344 1 -0.681283 -2.70219 12.1826 2.07333
20 4 1.30806 -8.19113 11.5222 4.41175
318 4 0.837024 -6.7673 13.4002 7.7216
272 3 -0.813606 -0.487042 11.8749 6.2591
349 2 0.159637 -0.405483 11.7997 0.0278664
181 2 0.160809 -0.27501 8.11326 8.39228
378 2 0.141954 -6.13273 9.01302 8.42911
21 4 1.11208 -4.07273 7.63769 9.1676
22 4 1.29674 -4.84137 8.77172 13.6251
23 4 1.05406 -5.26666 10.6017 11.1495
40 4 1.37581 -0.373687 7.22623 15.0855
43 4 1.43546 -2.45511 10.1695 9.97217
46 4 1.18751 -3.30366 10.8291 15.5138
76 1 -0.671387 -3.37538 7.83158 12.8442
77 1 -0.66433 -5.96185 12.2717 11.6166
89 1 -0.67511 -2.01175 9.98242 16.7022
90 1 -0.671285 -4.73246 11.8171 16.4192
110 2 0.0069637 -6.44879 10.5032 9.74276
184 2 0.250129 0.0707433 7.36017 11.5289
141 2 0.215828 -4.9065 8.63881 16.7991
149 2 0.237559 -3.32991 8.0911 11.7077
332 2 0.118336 -9.04729 11.9691 12.0752
151 2 0.273146 -2.38391 8.0391 13.3891
264 3 -0.830751 -2.05954 7.18425 15.9403
153 2 0.129063 -6.79327 11.9671 12.3397
154 2 0.144029 -6.24621 12.6539 10.5547
152 2 0.171956 -5.0332 12.9655 12.1615
386 2 0.156397 -9.55529 12.8079 15.4469
188 2 0.159337 -0.869056 10.4195 16.4695
189 2 0.277088 -2.05071 8.81652 16.485
190 2 0.177639 -5.68401 11.3112 16.2811
191 2 0.208313 -4.68539 12.7469 15.8324
242 3 -0.821042 -5.71937 7.81966 14.6734
243 3 -0.826995 -5.58455 9.63344 12.3204
263 3 -0.827919 0.99434 7.72438 16.0587
371 2 0.00295557 -8.49616 12.7947 13.7798
269 3 -0.814929 -2.85336 8.33586 9.87673
271 3 -0.821697 -3.72461 10.7347 10.7342
273 3 -0.788613 -0.451477 8.26353 13.9198
274 3 -0.7789 -4.04147 9.7032 14.6499
275 3 -0.830243 -2.59113 11.9614 14.6763
276 3 -0.833106 -1.05367 10.4873 10.7968
183 2 0.254251 -1.49966 7.27892 10.4828
30 4 1.15519 -2.14979 13.2602 13.9563
146 2 0.172885 -5.09174 6.84322 11.6032
150 2 0.157544 -3.82843 6.77304 13.0962
364 2 0.212057 -0.792716 11.6187 12.9206
277 3 -0.812581 1.07044 9.19706 11.6312
323 2 0.223318 -4.82694 12.7562 8.70854
168 2 0.152352 7.47371 3.64492 8.28581
314 3 -0.863702 14.6759 0.00450565 6.8631
48 4 1.30009 9.4365 2.3094 3.68027
50 4 1.50098 13.2802 0.540296 7.31981
51 4 1.55648 12.0635 2.52835 5.21987
55 4 1.30852 10.5183 4.38479 1.92104
196 2 0.156515 8.18682 6.03583 5.33056
58 4 0.858538 10.5982 4.46053 7.44019
91 1 -0.698043 8.165 2.38556 6.82795
92 1 -0.687191 7.5326 5.60516 4.47846
94 1 -0.659178 9.59684 6.33308 6.85746
118 2 0.00863267 8.3852 2.83138 4.94556
325 3 -0.883053 14.2449 1.61787 2.55489
123 2 0.0112543 9.71009 5.43113 0.821987
124 2 0.0481731 8.72201 4.94671 6.95556
125 2 -0.0165476 6.23505 4.7006 7.40597
105 2 -0.0596907 16.2131 0.126132 0.344263
126 2 -0.0235981 6.91587 6.11702 8.48012
366 1 -0.633874 7.99831 6.37567 0.67501
192 2 0.1346 7.85111 3.40714 6.49747
193 2 0.169993 8.99233 1.95802 6.28092
194 2 0.150703 8.29845 2.22453 7.97818
195 2 0.162103 6.91983 4.75193 4.92996
361 2 0.183463 4.49081 6.33322 0.715905
326 3 -0.836324 12.2741 0.997065 0.66005
368 2 0.184094 8.39921 6.30878 1.70732
279 3 -0.772343 13.3819 1.94602 8.51103
203 2 0.118463 10.849 6.37961 7.34023
253 3 -0.813587 6.16649 3.79431 0.740236
278 3 -0.780491 8.77761 0.959585 3.2031
280 3 -0.832033 13.3963 3.14386 4.4894
281 3 -0.836996 10.9195 2.10152 4.22925
282 3 -0.80916 12.4108 1.15149 6.1433
288 3 -0.832765 9.421 3.4556 2.43545
289 3 -0.865453 11.6656 3.68493 1.03396
290 3 -0.806763 11.1575 5.27975 3.22414
291 3 -0.783562 5.36968 5.57935 2.61323
293 3 -0.786078 11.3469 3.60261 6.34627
324 4 1.25219 13.3601 0.481229 1.84593
197 2 0.183675 8.19526 5.19146 3.66364
367 2 0.207716 6.84318 6.47374 0.760086
56 4 1.12075 6.12345 6.66963 3.55051
13 4 1.39522 11.7218 6.60957 3.78513
49 4 1.28888 11.8417 2.44773 0.0838041
9 4 1.20833 13.529 2.64004 10.1537
379 2 0.248382 8.10592 0.229584 17.1509
32 4 1.11732 6.50056 2.88572 10.7249
39 4 1.2823 4.67778 4.43565 12.7072
294 3 -0.827342 4.75453 6.69051 9.96533
52 4 1.23204 12.6989 0.708237 14.3137
53 4 1.51663 8.24415 2.54433 15.5581
54 4 1.24691 11.4413 2.70549 12.3099
60 4 1.47208 9.58319 4.69208 13.5496
317 3 -0.756377 13.9988 0.136077 13.5241
81 1 -0.681452 8.10862 2.01784 11.2262
82 1 -0.687717 7.04913 4.27897 9.17714
301 3 -0.786553 8.6166 5.68232 12.5631
96 1 -0.691219 4.89141 5.75272 15.722
119 2 -0.0178658 12.0481 2.99588 16.3337
120 2 -0.0604813 13.0082 1.38328 15.8308
121 2 0.0146313 9.91156 1.8718 11.9652
127 2 0.0078057 5.45093 5.49531 13.7833
167 2 0.178476 6.02988 4.72365 9.07331
145 2 0.0998899 10.4475 6.39318 9.91578
164 2 0.143701 8.83526 2.34532 10.3247
165 2 0.174155 7.92477 0.951101 11.2505
166 2 0.216578 8.3521 2.56276 12.2396
169 2 0.153756 7.82533 5.01827 9.56367
95 1 -0.675515 10.1628 3.58351 8.94612
205 2 0.15298 10.9077 4.24811 9.6599
204 2 0.143313 9.00292 3.85144 9.13398
207 2 0.164204 4.53284 5.76989 16.8911
208 2 0.202489 5.88014 5.12794 15.6118
209 2 0.139022 4.0714 5.29205 15.0354
261 3 -0.801969 5.97239 3.70024 12.0201
297 3 -0.849552 9.82499 5.46014 14.9241
283 3 -0.791327 7.92095 0.946082 14.9701
284 3 -0.848333 9.41688 2.31581 16.5821
285 3 -0.867615 6.86278 3.06889 16.3105
286 3 -0.851678 12.1696 2.5789 10.9382
287 3 -0.837188 12.09 1.929 13.5332
41 4 1.25862 3.52482 6.4843 10.855
295 3 -0.823129 8.72114 3.40821 14.1559
296 3 -0.815982 11.0249 4.30345 12.7975
26 4 1.58439 5.58612 2.61271 17.0556
352 2 0.159464 8.73075 0.760978 8.71899
206 2 0.202861 10.3872 2.45257 9.09971
139 2 0.185051 12.0037 4.76716 15.3694
383 2 0.192245 7.27844 5.59314 17.1959
201 2 0.120358 9.00237 7.07135 7.44404
42 4 1.20442 2.31735 9.24029 2.42625
44 4 1.03336 0.216932 11.6612 4.84505
63 4 1.26773 7.31049 9.37958 2.05211
64 4 1.51176 3.22758 11.6805 3.9147
65 4 0.986753 6.71735 9.80349 7.9721
350 2 0.187323 0.832326 12.8636 1.18079
67 4 1.47794 5.57323 12.053 5.97612
69 1 -0.668169 10.0343 7.51636 3.9407
93 1 -0.656295 4.83953 7.41059 4.72551
99 1 -0.68326 5.87178 10.1312 1.16236
131 2 0.148898 10.2603 8.22165 4.87506
101 1 -0.656138 2.70964 9.96629 7.09843
129 2 -0.0106513 8.14296 9.15359 7.11075
384 2 0.212993 1.83916 12.473 0.21906
100 1 -0.633613 8.73314 10.3239 8.48514
377 2 0.129729 8.98433 9.67403 5.83892
200 2 0.229726 4.81096 8.50745 4.35124
216 2 0.252708 5.02439 10.3187 1.8955
375 2 0.178989 9.12269 6.77215 4.08735
218 2 0.13575 6.35799 11.1147 0.78858
376 2 0.208161 9.90176 8.11105 3.05648
222 2 0.185571 1.6365 9.81226 6.68622
223 2 0.162722 3.22723 8.98704 7.37856
268 3 -0.814844 2.73092 9.0747 0.884037
302 3 -0.780567 6.84275 7.91015 2.64608
303 3 -0.788338 8.66474 9.01593 0.848996
304 3 -0.779884 7.85003 10.392 3.18486
305 3 -0.795236 3.58499 10.2097 3.19506
306 3 -0.836437 3.14775 12.9029 2.80071
307 3 -0.83371 1.78191 11.5191 4.67614
309 3 -0.803836 2.93471 12.7307 8.03662
311 3 -0.789416 7.21561 12.2142 5.22986
312 3 -0.862794 4.42417 11.8023 4.96908
313 3 -0.813188 5.85607 10.6625 6.88624
373 2 -0.0467089 5.00374 12.9251 1.03503
348 1 -0.6769 -0.210108 12.8523 0.601753
224 2 0.253185 3.42719 10.5329 6.40521
380 2 0.243392 0.677238 12.9359 8.4697
217 2 0.266588 5.47042 9.43181 0.223895
199 2 0.259812 3.81777 6.96097 4.65305
66 4 1.13998 2.67006 11.2648 8.61057
198 2 0.1429 5.42487 7.18539 5.71946
372 2 0.102443 -0.257161 13.0831 4.08159
202 2 0.182818 9.61593 6.76094 5.80082
351 1 -0.659682 -0.357754 13.0887 8.81849
35 4 1.25107 2.12014 8.01071 17.0936
353 2 0.176041 -0.638917 12.7379 9.86939
336 2 0.172268 7.63755 11.1968 14.7054
57 4 1.31762 7.6058 7.95639 17.0634
130 2 0.151076 2.2088 11.225 16.9351
61 4 1.11008 4.92741 7.63999 15.6639
68 4 1.09266 1.30692 11.8413 15.0003
97 1 -0.673762 4.46499 7.79994 13.6219
98 1 -0.659234 7.96332 8.45136 13.1606
102 1 -0.669593 0.984674 11.5388 16.9004
103 1 -0.663208 4.19027 10.995 9.70599
115 2 -0.00346683 3.41031 7.81374 11.9201
116 2 0.00550767 2.55526 8.30384 13.9561
117 2 0.0210995 0.819715 11.7355 12.0463
308 3 -0.844527 6.14353 8.62592 8.86993
210 2 0.1313 3.68458 7.06178 13.4607
211 2 0.165969 5.43588 7.48332 13.1856
212 2 0.162946 4.16973 8.95707 13.4698
59 4 1.22914 6.25051 7.23838 9.60733
214 2 0.237818 8.32518 8.14482 14.1879
215 2 0.195071 6.87167 8.61209 13.0203
128 2 -0.00868309 10.0003 7.58996 11.1083
220 2 0.0604409 7.45246 11.2289 9.07357
47 4 1.27452 0.489465 10.4569 10.9405
226 2 0.0736915 -0.288212 12.2906 15.7274
227 2 0.193523 4.86517 11.797 9.34057
62 4 1.02882 8.47043 7.14352 11.8831
229 2 0.171603 4.00957 10.9983 10.9251
292 3 -0.862478 8.97575 7.28516 16.5309
298 3 -0.796568 6.45938 8.13185 15.8616
299 3 -0.817376 3.83812 8.55817 16.2956
228 2 0.201311 4.40459 9.96649 9.28525
310 3 -0.787207 1.35716 10.8356 9.58874
315 3 -0.87417 1.09231 10.5297 14.2141
316 3 -0.870263 2.1439 13.0645 14.5635
327 4 0.903849 5.50058 12.2544 13.3225
328 1 -0.658376 6.45754 12.1667 11.758
329 1 -0.647027 3.83435 10.9404 12.9531
330 1 -0.658603 6.74916 11.8619 14.8444
331 2 0.150305 5.97857 11.1501 11.2923
45 4 1.10764 1.09716 9.11326 13.4599
333 2 0.133776 4.19911 10.0253 12.3001
334 2 0.181293 3.1367 11.654 12.3861
335 2 0.177093 3.3617 10.7121 13.972
363 2 0.156533 -1.09744 12.9385 11.5089
337 2 0.146483 5.89535 11.3299 15.477
362 1 -0.691424 -0.778844 12.7205 12.6383
300 3 -0.834942 7.26998 7.29013 10.7792
213 2 0.16319 8.55703 9.3249 12.7712
385 2 0.223695 6.26699 13.1728 11.2042
219 2 0.123239 8.88027 9.28771 8.90581
365 2 0.17767 0.0799112 13.32 12.9869
225 2 0.185034 0.322033 10.6193 17.2038
18 4 1.28042 10.1978 6.76313 15.7228
ITEM: TIMESTEP
100
ITEM: NUMBER OF ATOMS
386
ITEM: BOX BOUNDS xy xz yz pp pp pp
-1.0522200000000000e+01 1.6607800000000001e+01 -9.4504999999999999e+00
0.0000000000000000e+00 1.3486815600000000e+01 -1.0717000000000001e+00
0.0000000000000000e+00 1.7350200000000001e+01 3.6615599999999304e-02
ITEM: ATOMS id type q x y z
8 4 1.03581 0.862948 1.09283 0.830302
12 4 1.45247 -0.0181932 4.14897 1.561
107 2 0.0803737 -2.30893 3.0984 7.92288
15 4 1.04577 -1.23139 4.20208 7.19747
25 4 1.21801 5.15926 1.44541 3.87714
29 4 1.2686 6.54246 1.28565 6.41602
34 4 1.30061 1.28426 6.31642 3.52643
171 2 0.229 -1.11783 6.47694 2.95889
36 4 1.21485 4.87123 3.91248 7.10432
38 4 0.998404 2.41132 5.33318 6.25829
70 1 -0.669759 -0.0583441 2.8631 6.32433
85 1 -0.640475 3.4769 3.30626 1.71336
104 2 -0.00887346 -0.797109 2.29667 4.58208
340 2 0.168548 3.34143 0.262866 5.65544
33 4 1.31187 5.36183 3.80186 1.97389
111 2 0.0321053 3.91941 1.80055 5.04357
113 2 0.0225084 1.41669 4.11182 6.8577
132 2 0.123842 0.0141648 3.62253 5.35266
133 2 0.141824 -1.08649 2.14719 6.24477
134 2 0.173938 0.918465 2.19952 6.35744
339 2 0.165557 2.73819 2.03965 5.87402
176 2 0.218013 3.51114 2.45686 0.956923
177 2 0.222187 2.95318 4.21464 1.36385
178 2 0.205936 3.11439 3.01891 2.76561
230 3 -0.807595 2.1146 0.58539 1.6315
233 3 -0.817349 -1.46907 3.95105 2.54827
234 3 -0.818524 0.556144 2.64278 1.15575
235 3 -0.871846 -0.342314 5.09423 0.352777
374 2 0.192898 1.47684 0.6115 5.63787
237 3 -0.814054 -2.058 5.32818 6.37795
255 3 -0.826612 4.12206 3.58877 8.54037
244 3 -0.817481 4.55606 0.368709 2.8466
247 3 -0.770482 6.47467 0.72686 4.84554
252 3 -0.849515 5.57075 2.82307 3.19987
254 3 -0.791318 1.16269 4.9765 2.45473
256 3 -0.851163 5.36813 2.43764 6.55804
258 3 -0.855304 1.88704 5.83829 4.92326
259 3 -0.845761 3.91103 4.81864 6.27065
338 1 -0.669725 2.49943 0.971516 6.04111
16 4 1.31024 -3.00888 6.58438 6.3682
122 2 0.0199975 2.12558 6.60332 7.39564
257 3 -0.808509 -0.35336 4.84857 8.3022
360 2 0.235141 2.293 6.24006 1.07832
236 3 -0.76754 -4.21635 6.53411 5.26283
7 4 1.36479 -2.06815 2.80491 3.39788
358 1 -0.661458 3.36113 6.30066 0.59082
245 3 -0.803273 7.00443 1.24781 0.368653
318 4 0.844824 2.60476 0.144175 7.85488
24 4 1.04975 7.84736 0.17651 1.43913
170 2 0.20185 -0.730157 6.21808 4.77778
10 4 0.976744 1.44315 0.628274 13.2879
11 4 1.21072 -0.484675 2.40641 11.591
162 2 0.179486 5.67101 0.680427 12.1561
17 4 1.04866 -1.18044 4.59696 14.0083
28 4 1.28952 3.8362 2.43148 9.53742
354 1 -0.649524 0.347875 0.969926 16.3912
31 4 1.32999 3.32322 2.5936 14.869
37 4 1.03554 0.545166 6.22745 9.35709
356 2 0.141211 -0.690493 0.824072 15.9447
71 1 -0.724308 -1.09032 3.09493 15.1756
72 1 -0.689891 -3.82339 4.99332 16.128
106 2 -0.00277453 2.43182 0.383687 11.9692
78 1 -0.687373 0.785698 3.11649 10.3503
79 1 -0.664413 1.99742 3.65562 15.7955
80 1 -0.68862 5.61846 0.84989 13.2458
74 1 -0.688103 -5.22384 6.67316 10.4665
266 3 -0.879239 3.87189 5.19561 11.7998
108 2 0.00328286 -2.72628 5.08859 14.4892
112 2 0.0354555 2.74172 3.07718 10.688
135 2 0.234654 -0.428868 2.42618 14.5365
136 2 0.140147 -2.13519 2.78161 15.1773
137 2 0.209047 -0.732032 3.33489 16.1769
138 2 0.139383 -3.16866 4.08358 15.9904
231 3 -0.799336 -1.72852 1.89003 10.7465
369 2 -0.0131253 -2.76551 4.12846 9.93906
163 2 0.249959 5.69634 1.94684 13.5771
155 2 0.246817 0.286429 3.73349 9.44933
156 2 0.158399 1.31897 2.1105 10.1032
157 2 0.186834 1.31917 3.81039 11.1531
158 2 0.158881 2.2239 3.53437 17.0692
159 2 0.194085 0.857244 3.48331 15.5517
160 2 0.181726 2.26654 4.65504 15.3228
14 4 1.32092 -2.38064 6.15608 16.9856
87 1 -0.66771 -0.596186 6.55206 10.8766
260 3 -0.837012 3.91317 3.47112 13.6255
182 2 0.255468 -0.804534 5.53078 11.5066
262 3 -0.79889 -0.00720651 5.6476 14.4576
359 2 0.173799 2.35593 5.59183 17.0887
232 3 -0.813095 0.225317 1.41261 12.7451
238 3 -0.76033 -1.02861 4.0733 12.49
246 3 -0.830608 3.03252 1.246 8.94874
249 3 -0.812939 2.37138 1.34325 14.2898
250 3 -0.831861 4.56532 2.17745 15.7858
251 3 -0.810669 5.31768 2.0005 10.1496
265 3 -0.778566 2.02762 6.14042 10.0035
355 2 0.20062 0.912314 2.03782 16.1145
144 2 0.173273 -4.60908 5.73968 10.4917
139 2 0.173187 -4.26049 5.47203 15.1083
150 2 0.173691 -3.85798 6.50485 12.8695
140 2 0.178176 -4.44176 4.95143 17.0893
370 2 0.033416 -5.06197 6.45361 16.6543
161 2 0.179674 4.69003 0.35101 13.7208
357 2 0.166029 1.04232 0.0223743 16.252
1 4 1.33301 -6.33798 13.1301 2.5101
2 1 -0.658568 -5.86978 11.546 1.43941
381 2 0.124992 -1.43655 10.0889 0.468441
4 2 0.162154 -5.46291 10.8021 2.21718
5 2 0.172511 -5.07996 11.6746 0.536204
6 3 -0.808773 -7.12694 12.6118 3.76398
345 2 0.11301 -1.99722 11.4787 1.97112
19 4 1.00935 -2.91071 8.1197 1.72576
27 4 1.26271 -1.64705 12.1113 7.76305
73 1 -0.6771 -3.94265 9.18197 0.6659
75 1 -0.647337 -5.23306 8.84995 8.26062
83 1 -0.690945 -0.546308 6.82627 3.81277
84 1 -0.682188 -1.85257 8.12523 6.14503
86 1 -0.658918 0.629375 7.65326 8.12137
88 1 -0.635762 -0.571183 10.0445 3.80606
109 2 0.0133586 -1.68487 9.13173 2.65953
347 2 0.24265 -2.68367 12.8708 3.27366
221 2 0.151309 -7.44952 10.7067 7.38795
346 2 0.209898 -3.81875 12.0783 1.98426
142 2 0.121012 -3.56044 10.1949 1.13725
143 2 0.226953 -5.07083 9.01803 0.688305
147 2 0.184997 -5.48574 8.56 7.1757
343 2 0.158839 -6.31476 11.3481 6.32286
172 2 0.172852 -0.559829 7.99979 3.95171
173 2 0.167505 -2.20018 8.83597 5.35847
174 2 0.172488 -0.838593 7.79958 5.95414
175 2 0.204953 -2.00697 8.58267 7.19165
179 2 0.154058 0.164985 7.25689 7.14852
114 2 -0.0228684 0.786538 10.0295 2.27232
185 2 0.0662628 -0.64849 11.2421 3.10507
186 2 0.169603 -1.41246 9.90944 4.60393
187 2 0.135368 0.51324 9.62002 4.05455
382 2 0.166027 -3.38111 12.0385 0.280374
239 3 -0.786373 -3.93784 7.29476 2.76057
240 3 -0.8152 -2.12188 7.18046 0.682893
3 2 0.204128 -6.90322 11.2925 1.15033
267 3 -0.827514 2.03758 7.68298 2.96182
270 3 -0.833187 -2.2222 10.8436 8.43501
148 2 0.149403 -4.88337 10.0568 8.37521
320 2 0.0148292 -8.15475 12.4692 8.40181
319 1 -0.666375 -5.34836 12.3943 7.85705
321 2 0.207391 -4.8704 12.5022 6.86156
322 2 0.152727 -5.51259 11.2933 8.15983
341 1 -0.660002 -6.80021 10.6776 5.45125
180 2 0.182228 1.44294 8.46918 7.8797
342 2 0.178439 -6.0628 10.3256 4.73581
248 3 -0.772234 -2.76234 13.3139 7.19339
344 1 -0.684975 -2.73966 12.3243 2.19708
20 4 1.32259 -8.23868 11.5373 4.4562
100 1 -0.638783 -7.87605 10.5631 8.50219
272 3 -0.743414 -0.717192 11.7866 6.13024
241 3 -0.81096 -3.60297 6.77799 8.03133
323 2 0.242562 -4.6538 12.9757 8.58324
21 4 1.13643 -4.01343 7.69219 9.19919
22 4 1.27066 -4.76194 8.72109 13.6151
23 4 1.04832 -5.30275 10.5895 11.0999
40 4 1.40214 -0.258553 7.16763 15.0962
43 4 1.43577 -2.37464 10.2462 9.98631
46 4 1.15959 -3.31208 10.9319 15.5351
76 1 -0.698663 -3.48792 7.5769 12.8487
77 1 -0.654416 -5.89491 12.2121 11.6783
89 1 -0.681469 -2.06456 9.97573 16.774
90 1 -0.639849 -4.72674 11.8805 16.4244
110 2 -0.00154167 -6.37915 10.6072 9.70886
184 2 0.230707 0.200734 7.25519 11.356
141 2 0.192516 -4.52327 8.88568 16.9985
149 2 0.255833 -3.20045 7.86756 11.7736
181 2 0.164259 -0.25527 8.19106 8.78809
151 2 0.226893 -2.62511 7.7584 13.6056
264 3 -0.842475 -1.93812 7.09348 15.7887
153 2 0.108102 -6.78321 11.9773 12.4111
154 2 0.142744 -6.32126 12.6046 10.6847
152 2 0.163418 -5.03887 13.0178 12.2194
386 2 0.16083 -9.69254 12.6971 15.4339
188 2 0.160693 -1.00764 10.3746 16.6479
189 2 0.263042 -2.04728 8.84737 16.4386
190 2 0.170691 -5.58031 11.1141 16.2644
191 2 0.217556 -4.88305 12.8491 15.8464
242 3 -0.84953 -5.81561 7.89809 14.4986
243 3 -0.800855 -5.61732 9.45607 12.0587
263 3 -0.863771 0.814838 7.69826 16.1946
371 2 -0.00869098 -8.51331 12.5487 13.9178
269 3 -0.810731 -2.84192 8.39536 10.0389
271 3 -0.788712 -3.72926 10.9039 10.7253
273 3 -0.786006 -0.14776 8.22615 13.7841
274 3 -0.793669 -4.0784 9.79925 14.6137
275 3 -0.833266 -2.58719 12.1422 14.8246
276 3 -0.852609 -1.03757 10.4067 10.7363
183 2 0.246491 -1.49963 7.16106 10.5731
30 4 1.17568 -2.2891 13.4019 13.9629
146 2 0.195923 -5.33957 7.111 11.4921
378 2 0.115466 -6.11874 8.66665 8.98629
364 2 0.202433 -0.830034 11.8156 12.7727
349 2 0.168437 -1.55701 11.8432 17.306
168 2 0.130918 7.51407 3.6104 8.26307
49 4 1.279 11.9345 2.57364 0.019556
48 4 1.2506 9.41684 2.29407 3.62448
50 4 1.52503 13.2404 0.484953 7.23672
51 4 1.55667 12.1324 2.59744 5.15289
55 4 1.34557 10.4391 4.40827 1.87425
196 2 0.161125 8.322 6.04955 5.47389
58 4 0.82497 10.6064 4.51871 7.43345
91 1 -0.690902 8.19462 2.34174 6.86262
92 1 -0.689552 7.60208 5.69471 4.58983
94 1 -0.649565 9.66589 6.51399 6.94377
118 2 -0.00013416 8.42667 2.80214 4.96711
325 3 -0.883117 14.2051 1.48566 2.59738
123 2 0.00487713 9.67929 5.40268 0.707406
124 2 0.0282761 8.85626 4.98285 6.85706
125 2 -0.0300442 6.29935 4.8178 7.44048
383 2 0.203221 8.09491 5.41703 0.143159
126 2 -0.0169377 6.73317 6.1029 8.49682
366 1 -0.681354 7.95527 6.31662 0.814992
192 2 0.118316 8.02417 3.41851 6.42172
193 2 0.157999 8.97844 1.6776 6.25912
194 2 0.157053 8.47143 2.39534 7.93997
195 2 0.144547 6.83837 4.96616 5.03063
361 2 0.245855 4.16635 6.07369 1.39421
326 3 -0.82971 12.3141 1.22614 0.795027
368 2 0.154945 8.52042 6.18054 1.84124
279 3 -0.776851 13.5021 1.88554 8.56623
203 2 0.122864 10.7844 6.28473 7.57978
253 3 -0.834832 5.97097 3.65752 0.541763
278 3 -0.770329 8.86762 0.924793 2.89136
280 3 -0.824032 13.3532 3.23482 4.3092
281 3 -0.827574 10.8596 2.06602 4.3076
282 3 -0.845562 12.7415 1.3153 6.00469
288 3 -0.842858 9.31759 3.54482 2.47655
289 3 -0.839181 11.612 3.72527 1.08803
290 3 -0.806485 11.0586 5.30398 3.04981
291 3 -0.762745 5.43546 5.53883 2.68364
293 3 -0.763069 11.4262 3.6742 6.38611
324 4 1.29228 13.3972 0.439417 1.8153
197 2 0.188276 8.17198 5.13744 3.80803
367 2 0.209605 6.82548 6.61361 0.877736
56 4 1.11425 6.16587 6.67055 3.61711
13 4 1.35744 11.6187 6.65354 3.72701
105 2 -0.0538763 16.1832 0.0630659 1.2154
9 4 1.23678 13.5335 2.50205 10.0919
379 2 0.224745 8.06362 0.281608 16.9171
32 4 1.15123 6.49808 2.90446 10.79
39 4 1.30823 4.81879 4.46358 12.7662
352 2 0.163538 8.29844 0.741942 8.81391
52 4 1.25365 12.7816 0.768353 14.3246
53 4 1.50502 8.2973 2.57238 15.3703
54 4 1.2443 11.2679 2.69081 12.4637
60 4 1.46952 9.4105 4.78049 13.6559
317 3 -0.772682 14.0991 0.0880544 13.7196
81 1 -0.673937 8.11495 1.86837 11.1169
82 1 -0.681557 7.07411 4.2942 9.25041
301 3 -0.795622 8.60505 5.79979 12.6071
96 1 -0.678928 5.07932 5.81618 15.6988
119 2 -0.0224906 12.2265 3.0437 16.4749
120 2 -0.0501045 13.5396 1.25445 15.7911
121 2 0.0063641 9.84974 1.82318 12.0544
127 2 0.00997362 5.62056 5.62891 13.8162
167 2 0.181223 5.9946 4.60808 9.26848
145 2 0.136799 10.4681 6.63415 9.94319
164 2 0.162391 8.96039 2.36774 10.449
165 2 0.151544 7.89301 0.708059 10.7829
166 2 0.213761 8.05247 2.03271 12.2592
169 2 0.169034 7.80489 5.01382 9.72289
95 1 -0.677575 10.1706 3.52878 9.04165
205 2 0.157453 10.9189 4.22989 9.66267
204 2 0.148674 9.00234 3.75649 9.16868
207 2 0.193689 4.59299 5.94103 16.8221
208 2 0.221706 6.04831 5.30257 15.8057
209 2 0.150459 4.32409 5.31022 15.077
261 3 -0.835732 6.00382 3.75917 12.0028
297 3 -0.858326 9.88257 5.61019 14.9592
283 3 -0.847878 7.89977 1.20482 14.7193
284 3 -0.852497 9.61943 2.39537 16.3567
285 3 -0.840532 6.95892 3.34831 16.3183
286 3 -0.788366 12.2589 2.50978 11.071
287 3 -0.847368 12.0858 1.99041 13.6088
41 4 1.2377 3.47069 6.405 10.9056
295 3 -0.856074 8.55042 3.50456 14.0512
296 3 -0.790545 10.9069 4.19273 12.7296
26 4 1.5675 5.67643 2.55764 16.9006
206 2 0.201561 10.4042 2.47053 8.98453
365 2 0.153048 9.40869 0.0759631 12.6766
201 2 0.136336 9.06151 7.24738 7.51585
42 4 1.18949 2.27392 9.15114 2.38696
44 4 1.00094 0.207776 11.7842 4.80786
63 4 1.2585 7.40753 9.43133 2.11112
64 4 1.51539 3.27151 11.5969 3.88112
65 4 1.00292 6.71172 9.90219 8.07425
350 2 0.193905 0.856253 13.1322 0.748846
67 4 1.47102 5.63414 12.0886 6.01399
69 1 -0.684788 10.0936 7.72305 3.95449
93 1 -0.635748 4.72909 7.35987 4.70999
99 1 -0.667962 5.88285 9.97497 1.17605
131 2 0.152865 10.2854 8.34705 4.90395
101 1 -0.671009 2.96105 9.7707 7.26533
129 2 0.00362569 8.1945 9.37862 7.1738
384 2 0.177327 2.05116 12.5007 0.115651
372 2 0.0959323 -0.113903 13.1397 3.84398
377 2 0.136548 9.14914 9.83439 5.78268
200 2 0.249958 4.61228 8.45793 4.48288
216 2 0.242193 5.02955 10.2596 1.92223
375 2 0.171734 9.11873 6.90392 4.10376
218 2 0.132593 6.22334 10.9352 0.661519
376 2 0.200337 10.04 8.31877 3.0455
222 2 0.171635 1.92775 9.76912 6.77046
223 2 0.181768 3.21829 8.78978 7.7813
268 3 -0.808741 2.90187 9.08783 0.911814
302 3 -0.754661 6.78335 8.05961 2.92829
303 3 -0.790605 8.62651 9.03303 0.981611
304 3 -0.804041 7.86407 10.5925 3.2951
305 3 -0.81082 3.42572 10.1487 3.31779
306 3 -0.845938 3.33944 12.7899 2.76379
307 3 -0.799963 1.80584 11.6521 4.80046
309 3 -0.773105 2.76147 12.8946 7.84407
311 3 -0.838458 7.20106 12.1458 5.39674
312 3 -0.829029 4.55212 11.7851 4.87408
313 3 -0.777725 5.75465 10.6179 7.04173
373 2 -0.060862 5.0308 13.0888 0.780218
348 1 -0.678513 -0.229624 12.9202 0.347116
224 2 0.2565 3.69551 10.0919 6.47931
380 2 0.219239 0.366308 13.2359 8.14472
217 2 0.25978 5.46787 9.26018 0.43213
314 3 -0.862859 5.21106 13.3102 7.0378
66 4 1.11683 2.62127 11.1575 8.59761
198 2 0.14269 5.35089 7.22544 5.6921
202 2 0.178396 9.92339 6.86723 5.82777
199 2 0.266444 3.79219 6.73942 4.72918
351 1 -0.67666 -0.506853 13.1904 8.83655
35 4 1.28597 2.12833 8.00151 17.0791
353 2 0.169699 -0.192611 12.8804 9.8885
336 2 0.153884 7.47499 11.1331 14.3699
57 4 1.22189 7.65726 7.81865 17.2677
130 2 0.152755 2.3338 11.0889 16.8057
61 4 1.09544 4.9691 7.69757 15.4095
68 4 1.05876 1.27962 11.8778 14.9384
97 1 -0.700378 4.42242 7.67348 13.4557
98 1 -0.658772 7.78053 8.41965 13.1082
102 1 -0.668985 1.1319 11.5179 16.8113
103 1 -0.675871 4.09191 11.0026 9.84287
115 2 0.0174833 3.2921 7.80666 11.8495
116 2 0.00100699 2.56241 8.19095 13.8491
117 2 0.00406674 0.589154 11.9497 11.717
308 3 -0.822651 6.11497 8.63914 8.82893
210 2 0.126284 3.55783 6.83025 13.2478
211 2 0.158096 5.45777 7.39782 12.9642
212 2 0.149042 4.17404 8.77697 13.2626
59 4 1.2453 6.08918 7.19918 9.60361
214 2 0.232658 7.26541 8.02803 14.0218
215 2 0.156007 6.98534 9.06819 12.5139
128 2 0.000213421 9.7879 7.73798 10.9418
220 2 0.0501571 7.29193 11.2232 9.26205
47 4 1.21479 0.580789 10.5368 10.7923
226 2 0.0571689 -0.144409 12.4957 15.6947
227 2 0.187229 4.69013 11.8948 9.6452
62 4 1.05864 8.35908 7.1865 11.8366
229 2 0.174269 3.99308 10.907 10.9805
292 3 -0.842589 9.2011 7.55792 16.7018
298 3 -0.768738 6.40125 8.18446 15.8741
299 3 -0.821831 3.72404 8.10669 16.3581