LAMMPS (2 Aug 2023 - Update 2)
  using 2 OpenMP thread(s) per MPI task
Reading data file ...
  triclinic box = (0 0 0) to (15.724 13.9031 17.2465) with tilt (-7.584 0.1778 0.4371)
WARNING: Triclinic box skew is large. LAMMPS will run inefficiently. (src/domain.cpp:220)
  2 by 2 by 2 MPI processor grid
  reading atoms ...
  366 atoms
Finding 1-2 1-3 1-4 neighbors ...
  special bond factors lj:    0        0        0       
  special bond factors coul:  0        0        0       
     0 = max # of 1-2 neighbors
     0 = max # of 1-3 neighbors
     0 = max # of 1-4 neighbors
     1 = max # of special neighbors
  special bonds CPU = 0.001 seconds
  read_data CPU = 0.007 seconds
*****Minimization starts.*****

CITE-CITE-CITE-CITE-CITE-CITE-CITE-CITE-CITE-CITE-CITE-CITE-CITE

Your simulation uses code contributions which should be cited:
- pair reaxff command: doi:10.1016/j.parco.2011.08.005
- fix qeq/reaxff command: doi:10.1016/j.parco.2011.08.005
The log file lists these citations in BibTeX format.

CITE-CITE-CITE-CITE-CITE-CITE-CITE-CITE-CITE-CITE-CITE-CITE-CITE

WARNING: Fix qeq/reaxff group is not charge neutral, net charge = -29.52 (src/REAXFF/fix_qeq_reaxff.cpp:392)
Neighbor list info ...
  update: every = 1 steps, delay = 0 steps, check = yes
  max neighbors/atom: 2000, page size: 100000
  master list distance cutoff = 12
  ghost atom cutoff = 12
  binsize = 6, bins = 4 3 3
  2 neighbor lists, perpetual/occasional/extra = 2 0 0
  (1) pair reaxff, perpetual
      attributes: half, newton off, ghost
      pair build: half/bin/newtoff/ghost
      stencil: full/ghost/bin/3d
      bin: standard
  (2) fix qeq/reaxff, perpetual, copy from (1)
      attributes: half, newton off
      pair build: copy
      stencil: none
      bin: none
Setting up cg style minimization ...
  Unit style    : real
  Current step  : 0
Per MPI rank memory allocation (min/avg/max) = 134.1 | 136.4 | 139.3 Mbytes
   Step          Temp          E_pair         E_mol          TotEng         Press     
         0   0             -43579.409      0             -43579.409      39442.068    
        34   0             -44450.244      0             -44450.244     -6882.8882    
Loop time of 4.99909 on 16 procs for 34 steps with 366 atoms

97.8% CPU use with 8 MPI tasks x 2 OpenMP threads

Minimization stats:
  Stopping criterion = energy tolerance
  Energy initial, next-to-last, final = 
     -43579.4088464082  -44450.2250279336    -44450.24409945
  Force two-norm initial, final = 1077.9481 171.86443
  Force max component initial, final = 155.70774 59.280428
  Final line search alpha, max atom move = 0.0014659617 0.08690284
  Iterations, force evaluations = 34 93

MPI task timing breakdown:
Section |  min time  |  avg time  |  max time  |%varavg| %total
---------------------------------------------------------------
Pair    | 3.0543     | 3.8631     | 4.1528     |  17.2 | 77.28
Bond    | 4.528e-05  | 5.8763e-05 | 7.451e-05  |   0.0 |  0.00
Neigh   | 0          | 0          | 0          |   0.0 |  0.00
Comm    | 0.071673   | 0.36184    | 1.1707     |  56.2 |  7.24
Output  | 0          | 0          | 0          |   0.0 |  0.00
Modify  | 0.76802    | 0.7683     | 0.76858    |   0.0 | 15.37
Other   |            | 0.005787   |            |       |  0.12

Nlocal:          45.75 ave          50 max          38 min
Histogram: 1 0 0 0 0 2 1 1 1 2
Nghost:        3435.12 ave        3497 max        3372 min
Histogram: 2 0 0 0 2 2 0 0 0 2
Neighs:        31070.1 ave       33753 max       26028 min
Histogram: 1 0 0 0 1 1 1 1 1 2

Total # of neighbors = 248561
Ave neighs/atom = 679.12842
Ave special neighs/atom = 0
Neighbor list builds = 0
Dangerous builds = 0
System init for write_data ...
WARNING: New thermo_style command, previous thermo_modify settings will be lost (src/output.cpp:903)
Neighbor list info ...
  update: every = 10 steps, delay = 0 steps, check = no
  max neighbors/atom: 2000, page size: 100000
  master list distance cutoff = 12
  ghost atom cutoff = 12
  binsize = 6, bins = 4 3 3
  2 neighbor lists, perpetual/occasional/extra = 2 0 0
  (1) pair reaxff, perpetual
      attributes: half, newton off, ghost
      pair build: half/bin/newtoff/ghost
      stencil: full/ghost/bin/3d
      bin: standard
  (2) fix qeq/reaxff, perpetual, copy from (1)
      attributes: half, newton off
      pair build: copy
      stencil: none
      bin: none
Setting up Verlet run ...
  Unit style    : real
  Current step  : 0
  Time step     : 0.5
Per MPI rank memory allocation (min/avg/max) = 132.5 | 134.7 | 137 Mbytes
   Step          Temp          PotEng         Press         Density         Volume    
         0   300           -44450.244     -2925.6567      1.8952586      3770.2978    
       100   211.51853     -44315.675      1417.8722      1.8952586      3770.2978    
       200   279.65353     -44331.936     -1531.2822      1.8952586      3770.2978    
       300   313.16252     -44316.761      230.56092      1.8952586      3770.2978    
       400   321.38101     -44299.088     -5182.627       1.8952586      3770.2978    
       500   306.8514      -44298.448      3737.3861      1.8952586      3770.2978    
       600   268.38665     -44284.611     -402.15151      1.8952586      3770.2978    
       700   297.99642     -44315.286      245.62049      1.8952586      3770.2978    
       800   310.37494     -44327.958     -16607.172      1.8952586      3770.2978    
       900   284.06023     -44314.571     -5691.7078      1.8952586      3770.2978    
      1000   291.84427     -44325.318     -8981.3946      1.8952586      3770.2978    
      1100   308.97139     -44328.705     -7432.999       1.8952586      3770.2978    
      1200   305.38088     -44315.331      2991.2348      1.8952586      3770.2978    
      1300   314.83245     -44329.205     -6582.7665      1.8952586      3770.2978    
      1400   295.48678     -44338.266     -1181.329       1.8952586      3770.2978    
      1500   297.17897     -44351.275      14186.339      1.8952586      3770.2978    
      1600   294.76839     -44346.175      760.26694      1.8952586      3770.2978    
      1700   309.74377     -44330.784     -6260.831       1.8952586      3770.2978    
      1800   305.89436     -44305.47      -6630.6153      1.8952586      3770.2978    
      1900   321.37201     -44342.197     -2454.748       1.8952586      3770.2978    
      2000   280.14242     -44321.068     -1679.6449      1.8952586      3770.2978    
      2100   302.52374     -44345.803     -15856.231      1.8952586      3770.2978    
      2200   306.77674     -44348.802     -3155.0116      1.8952586      3770.2978    
      2300   299.30242     -44362.163      204.67205      1.8952586      3770.2978    
      2400   291.71545     -44382.088     -4670.0099      1.8952586      3770.2978    
      2500   300.28191     -44377.467     -2681.3207      1.8952586      3770.2978    
      2600   302.581       -44361.409     -12639.882      1.8952586      3770.2978    
      2700   297.67212     -44349.452     -11881.564      1.8952586      3770.2978    
      2800   308.79118     -44361.039     -5814.1389      1.8952586      3770.2978    
      2900   302.30426     -44374.251     -4145.4049      1.8952586      3770.2978    
      3000   274.65321     -44378.944     -11382.834      1.8952586      3770.2978    
      3100   275.20511     -44375.543     -1670.0861      1.8952586      3770.2978    
      3200   294.09365     -44377.213     -17563.43       1.8952586      3770.2978    
      3300   304.92727     -44366.839      1027.7207      1.8952586      3770.2978    
      3400   310.88016     -44364.391      5395.4544      1.8952586      3770.2978    
      3500   304.49138     -44368.946      2522.8655      1.8952586      3770.2978    
      3600   291.8715      -44385.862      259.13749      1.8952586      3770.2978    
      3700   287.15477     -44403.838     -2032.0153      1.8952586      3770.2978    
      3800   284.26547     -44383.447     -3565.6562      1.8952586      3770.2978    
      3900   296.74032     -44373.921     -7967.4285      1.8952586      3770.2978    
      4000   286.8937      -44347.923     -8884.3127      1.8952586      3770.2978    
      4100   306.73387     -44361.16      -6938.6046      1.8952586      3770.2978    
      4200   298.34599     -44368.575     -5206.8038      1.8952586      3770.2978    
      4300   290.97871     -44396.294     -267.7775       1.8952586      3770.2978    
      4400   287.37048     -44391.718     -7498.2151      1.8952586      3770.2978    
      4500   302.35022     -44388.882     -13792.826      1.8952586      3770.2978    
      4600   300.51176     -44370.254     -4656.1347      1.8952586      3770.2978    
      4700   304.28003     -44368.952     -6914.345       1.8952586      3770.2978    
      4800   298.38596     -44393.209     -2267.097       1.8952586      3770.2978    
      4900   284.61603     -44388.918      3320.6663      1.8952586      3770.2978    
      5000   303.87792     -44402.424     -9577.5289      1.8952586      3770.2978    
Loop time of 283.281 on 16 procs for 5000 steps with 366 atoms

Performance: 0.762 ns/day, 31.476 hours/ns, 17.650 timesteps/s, 6.460 katom-step/s
99.3% CPU use with 8 MPI tasks x 2 OpenMP threads

MPI task timing breakdown:
Section |  min time  |  avg time  |  max time  |%varavg| %total
---------------------------------------------------------------
Pair    | 209.94     | 217.83     | 222.28     |  23.0 | 76.90
Bond    | 0.0016746  | 0.0019597  | 0.002231   |   0.5 |  0.00
Neigh   | 17.462     | 18.033     | 18.568     |   7.6 |  6.37
Comm    | 19.23      | 23.766     | 31.778     |  70.8 |  8.39
Output  | 0.003375   | 0.0040247  | 0.0085297  |   2.7 |  0.00
Modify  | 22.163     | 22.689     | 23.281     |   7.1 |  8.01
Other   |            | 0.9544     |            |       |  0.34

Nlocal:          45.75 ave          51 max          42 min
Histogram: 3 0 0 1 1 0 0 2 0 1
Nghost:        3454.88 ave        3540 max        3376 min
Histogram: 1 0 2 1 0 1 2 0 0 1
Neighs:        31079.5 ave       34391 max       28591 min
Histogram: 3 0 0 1 1 0 0 2 0 1

Total # of neighbors = 248636
Ave neighs/atom = 679.33333
Ave special neighs/atom = 0
Neighbor list builds = 500
Dangerous builds not checked
System init for write_data ...
System init for write_restart ...
  using 2 OpenMP thread(s) per MPI task
Reading restart file ...
  restart file = 2 Aug 2023, LAMMPS = 2 Aug 2023
  restoring atom style full from restart
  triclinic box = (0 0 0) to (15.724 13.9031 17.2465) with tilt (-7.584 0.1778 0.4371)
WARNING: Triclinic box skew is large. LAMMPS will run inefficiently. (src/domain.cpp:220)
  2 by 2 by 2 MPI processor grid
  pair style reaxff stores no restart info
  366 atoms
Finding 1-2 1-3 1-4 neighbors ...
  special bond factors lj:    0        0        0       
  special bond factors coul:  0        0        0       
     0 = max # of 1-2 neighbors
     0 = max # of 1-3 neighbors
     0 = max # of 1-4 neighbors
     1 = max # of special neighbors
  special bonds CPU = 0.000 seconds
  read_restart CPU = 0.003 seconds
*****debug*****
xy = -7.5839999999999996305, deltaxy = 0.7584
xz = 0.17780000000000001359, deltaxz = -0.01778
yz = 0.43709999999999998854, deltayz = -0.04371
*****
*****Negative-deform 1 starts.*****
Resetting global fix info from restart file:
  fix style: nvt, fix ID: fnvt
All restart file global fix info was re-assigned
Neighbor list info ...
  update: every = 10 steps, delay = 0 steps, check = no
  max neighbors/atom: 2000, page size: 100000
  master list distance cutoff = 12
  ghost atom cutoff = 12
  binsize = 6, bins = 4 3 3
  2 neighbor lists, perpetual/occasional/extra = 2 0 0
  (1) pair reaxff, perpetual
      attributes: half, newton off, ghost
      pair build: half/bin/newtoff/ghost
      stencil: full/ghost/bin/3d
      bin: standard
  (2) fix qeq/reaxff, perpetual, copy from (1)
      attributes: half, newton off
      pair build: copy
      stencil: none
      bin: none
Setting up Verlet run ...
  Unit style    : real
  Current step  : 0
  Time step     : 0.5
Per MPI rank memory allocation (min/avg/max) = 132.7 | 135.6 | 139.3 Mbytes
   Step          Temp          PotEng         Press          Volume           Lx             Ly             Lz      
         0   303.87792     -44402.424     -9577.422       3770.2978      15.724         13.9031        17.2465      
       100   294.57884     -44382.849     -6611.6291      3762.7572      15.692552      13.9031        17.2465      
       200   287.32226     -44356.381      1979.1457      3755.2166      15.661104      13.9031        17.2465      
       300   304.69786     -44346.057     -6435.9511      3747.676       15.629656      13.9031        17.2465      
       400   312.0213      -44368.092     -5952.5113      3740.1354      15.598208      13.9031        17.2465      
       500   323.90512     -44411.046     -6710.3843      3732.5948      15.56676       13.9031        17.2465      
       600   288.99447     -44385.675     -2596.6061      3725.0542      15.535312      13.9031        17.2465      
       700   280.25209     -44385.193     -7372.5452      3717.5136      15.503864      13.9031        17.2465      
       800   311.04184     -44409.649     -767.51193      3709.973       15.472416      13.9031        17.2465      
       900   315.05814     -44389.176     -1334.5419      3702.4324      15.440968      13.9031        17.2465      
      1000   329.80518     -44380.962      1746.9133      3694.8918      15.40952       13.9031        17.2465      
      1100   308.31579     -44392.566      10266.428      3687.3512      15.378072      13.9031        17.2465      
      1200   308.00032     -44408.465      9393.0808      3679.8107      15.346624      13.9031        17.2465      
      1300   285.50319     -44390.718      3100.9254      3672.2701      15.315176      13.9031        17.2465      
      1400   287.43084     -44387.622      2775.3301      3664.7295      15.283728      13.9031        17.2465      
      1500   294.74106     -44373.224      11264.073      3657.1889      15.25228       13.9031        17.2465      
      1600   325.02576     -44370.406      13511.306      3649.6483      15.220832      13.9031        17.2465      
      1700   302.60259     -44350.611      16364.645      3642.1077      15.189384      13.9031        17.2465      
      1800   303.53734     -44360.982      6753.3293      3634.5671      15.157936      13.9031        17.2465      
      1900   319.02386     -44378.02       11517.469      3627.0265      15.126488      13.9031        17.2465      
      2000   314.72212     -44384.264      10313.527      3619.4859      15.09504       13.9031        17.2465      
      2100   309.41285     -44386.356      16704.121      3611.9453      15.063592      13.9031        17.2465      
      2200   305.38243     -44382.345      16536.675      3604.4047      15.032144      13.9031        17.2465      
      2300   302.8928      -44381.431      15407.021      3596.8641      15.000696      13.9031        17.2465      
      2400   290.8978      -44394.282      12120.975      3589.3235      14.969248      13.9031        17.2465      
      2500   308.99109     -44426.646      12298.184      3581.7829      14.9378        13.9031        17.2465      
      2600   300.35917     -44403.884      10432.003      3574.2423      14.906352      13.9031        17.2465      
      2700   296.23355     -44369.266      19533.642      3566.7017      14.874904      13.9031        17.2465      
      2800   296.00572     -44345.639      23481.063      3559.1611      14.843456      13.9031        17.2465      
      2900   299.69447     -44356.499      25472.519      3551.6205      14.812008      13.9031        17.2465      
      3000   290.49721     -44385.191      25573.03       3544.0799      14.78056       13.9031        17.2465      
      3100   289.79896     -44379.27       13654.287      3536.5393      14.749112      13.9031        17.2465      
      3200   294.7501      -44369.346      21749.963      3528.9987      14.717664      13.9031        17.2465      
      3300   294.12847     -44363.955      25817.575      3521.4581      14.686216      13.9031        17.2465      
      3400   293.06694     -44376.008      38715.133      3513.9175      14.654768      13.9031        17.2465      
      3500   287.05065     -44376.248      23151.96       3506.377       14.62332       13.9031        17.2465      
      3600   286.02049     -44363.585      23709.146      3498.8364      14.591872      13.9031        17.2465      
      3700   315.80004     -44347.13       28666.578      3491.2958      14.560424      13.9031        17.2465      
      3800   297.83768     -44315.703      32151.637      3483.7552      14.528976      13.9031        17.2465      
      3900   311.4309      -44344.162      47825.202      3476.2146      14.497528      13.9031        17.2465      
      4000   309.97881     -44333.991      36091.444      3468.674       14.46608       13.9031        17.2465      
      4100   293.88065     -44323.415      40677.636      3461.1334      14.434632      13.9031        17.2465      
      4200   302.90702     -44335.585      36074.936      3453.5928      14.403184      13.9031        17.2465      
      4300   286.29046     -44317.419      35798.705      3446.0522      14.371736      13.9031        17.2465      
      4400   290.45032     -44309.406      45981.26       3438.5116      14.340288      13.9031        17.2465      
      4500   308.21235     -44305.542      45220          3430.971       14.30884       13.9031        17.2465      
      4600   299.97174     -44285.312      34118.823      3423.4304      14.277392      13.9031        17.2465      
      4700   303.51021     -44280.223      47038.392      3415.8898      14.245944      13.9031        17.2465      
      4800   297.79424     -44285.215      37203.171      3408.3492      14.214496      13.9031        17.2465      
      4900   311.97229     -44307.892      54555.168      3400.8086      14.183048      13.9031        17.2465      
      5000   307.58852     -44295.802      52029.396      3393.268       14.1516        13.9031        17.2465      
Loop time of 305.668 on 16 procs for 5000 steps with 366 atoms

Performance: 0.707 ns/day, 33.963 hours/ns, 16.358 timesteps/s, 5.987 katom-step/s
99.4% CPU use with 8 MPI tasks x 2 OpenMP threads

MPI task timing breakdown:
Section |  min time  |  avg time  |  max time  |%varavg| %total
---------------------------------------------------------------
Pair    | 226.84     | 236.7      | 240.72     |  28.5 | 77.44
Bond    | 0.0015929  | 0.0019424  | 0.0023121  |   0.6 |  0.00
Neigh   | 18.128     | 18.731     | 19.36      |   9.0 |  6.13
Comm    | 20.577     | 24.571     | 34.462     |  88.7 |  8.04
Output  | 0.030786   | 0.035677   | 0.041868   |   2.0 |  0.01
Modify  | 24.085     | 24.663     | 25.257     |   7.7 |  8.07
Other   |            | 0.9622     |            |       |  0.31

Nlocal:          45.75 ave          53 max          41 min
Histogram: 2 1 1 0 1 1 1 0 0 1
Nghost:        3660.75 ave        3750 max        3582 min
Histogram: 1 1 1 1 0 1 1 1 0 1
Neighs:        34562.9 ave       39953 max       31251 min
Histogram: 2 1 1 0 1 1 1 0 0 1

Total # of neighbors = 276503
Ave neighs/atom = 755.47268
Ave special neighs/atom = 0
Neighbor list builds = 500
Dangerous builds not checked
  using 2 OpenMP thread(s) per MPI task
Reading restart file ...
  restart file = 2 Aug 2023, LAMMPS = 2 Aug 2023
  restoring atom style full from restart
  triclinic box = (0 0 0) to (15.724 13.9031 17.2465) with tilt (-7.584 0.1778 0.4371)
WARNING: Triclinic box skew is large. LAMMPS will run inefficiently. (src/domain.cpp:220)
  2 by 2 by 2 MPI processor grid
  pair style reaxff stores no restart info
  366 atoms
Finding 1-2 1-3 1-4 neighbors ...
  special bond factors lj:    0        0        0       
  special bond factors coul:  0        0        0       
     0 = max # of 1-2 neighbors
     0 = max # of 1-3 neighbors
     0 = max # of 1-4 neighbors
     1 = max # of special neighbors
  special bonds CPU = 0.000 seconds
  read_restart CPU = 0.004 seconds
*****Positive-deform 1 starts.*****
Resetting global fix info from restart file:
  fix style: nvt, fix ID: fnvt
All restart file global fix info was re-assigned
Neighbor list info ...
  update: every = 10 steps, delay = 0 steps, check = no
  max neighbors/atom: 2000, page size: 100000
  master list distance cutoff = 12
  ghost atom cutoff = 12
  binsize = 6, bins = 4 3 3
  2 neighbor lists, perpetual/occasional/extra = 2 0 0
  (1) pair reaxff, perpetual
      attributes: half, newton off, ghost
      pair build: half/bin/newtoff/ghost
      stencil: full/ghost/bin/3d
      bin: standard
  (2) fix qeq/reaxff, perpetual, copy from (1)
      attributes: half, newton off
      pair build: copy
      stencil: none
      bin: none
Setting up Verlet run ...
  Unit style    : real
  Current step  : 0
  Time step     : 0.5
Per MPI rank memory allocation (min/avg/max) = 132.7 | 135.6 | 139.3 Mbytes
   Step          Temp          PotEng         Press          Volume           Lx             Ly             Lz      
         0   303.87792     -44402.424     -9577.422       3770.2978      15.724         13.9031        17.2465      
       100   294.13493     -44382.632     -6726.7652      3777.8384      15.755448      13.9031        17.2465      
       200   286.14816     -44349.998      841.05225      3785.379       15.786896      13.9031        17.2465      
       300   316.54396     -44359.357     -6896.4989      3792.9196      15.818344      13.9031        17.2465      
       400   324.04358     -44370.691     -7825.0112      3800.4602      15.849792      13.9031        17.2465      
       500   323.93418     -44407.96      -14254.142      3808.0008      15.88124       13.9031        17.2465      
       600   297.1502      -44387.749     -14121.936      3815.5414      15.912688      13.9031        17.2465      
       700   282.21661     -44371.241     -15959.797      3823.082       15.944136      13.9031        17.2465      
       800   322.14499     -44392.521     -11263.578      3830.6226      15.975584      13.9031        17.2465      
       900   325.83524     -44370.868     -16762.234      3838.1632      16.007032      13.9031        17.2465      
      1000   309.93269     -44360.419     -16794.627      3845.7038      16.03848       13.9031        17.2465      
      1100   323.37321     -44402.094     -16079.542      3853.2443      16.069928      13.9031        17.2465      
      1200   277.33525     -44355.867     -17962.665      3860.7849      16.101376      13.9031        17.2465      
      1300   292.43247     -44359.065     -12792.72       3868.3255      16.132824      13.9031        17.2465      
      1400   313.99541     -44364.631     -17953.236      3875.8661      16.164272      13.9031        17.2465      
      1500   293.43716     -44351.17      -15187.917      3883.4067      16.19572       13.9031        17.2465      
      1600   280.40858     -44353.632      380.7182       3890.9473      16.227168      13.9031        17.2465      
      1700   292.2134      -44361.223     -13247.49       3898.4879      16.258616      13.9031        17.2465      
      1800   305.60753     -44339.915     -32530.473      3906.0285      16.290064      13.9031        17.2465      
      1900   317.8482      -44320.845     -12387.764      3913.5691      16.321512      13.9031        17.2465      
      2000   324.65714     -44335.755     -27848.404      3921.1097      16.35296       13.9031        17.2465      
      2100   306.6048      -44324.972     -13614.348      3928.6503      16.384408      13.9031        17.2465      
      2200   290.21407     -44315.228     -32036.566      3936.1909      16.415856      13.9031        17.2465      
      2300   297.20782     -44328.209     -29074.966      3943.7315      16.447304      13.9031        17.2465      
      2400   287.77745     -44333.096     -26886.317      3951.2721      16.478752      13.9031        17.2465      
      2500   258.64894     -44324.169     -30976.049      3958.8127      16.5102        13.9031        17.2465      
      2600   276.31143     -44321.432     -29716.53       3966.3533      16.541648      13.9031        17.2465      
      2700   302.59085     -44319.65      -28418.258      3973.8939      16.573096      13.9031        17.2465      
      2800   305.92632     -44311.869     -35450.982      3981.4345      16.604544      13.9031        17.2465      
      2900   299.39031     -44283.68      -26562.393      3988.9751      16.635992      13.9031        17.2465      
      3000   287.98745     -44255.11      -26408.219      3996.5157      16.66744       13.9031        17.2465      
      3100   320.00456     -44288.661     -25434.061      4004.0563      16.698888      13.9031        17.2465      
      3200   303.24656     -44299.339     -21045.307      4011.5969      16.730336      13.9031        17.2465      
      3300   302.94792     -44296.463     -21602.975      4019.1375      16.761784      13.9031        17.2465      
      3400   308.89758     -44289.851     -28870.077      4026.678       16.793232      13.9031        17.2465      
      3500   313.424       -44267.731     -23652.187      4034.2186      16.82468       13.9031        17.2465      
      3600   309.53278     -44236.581     -29986.645      4041.7592      16.856128      13.9031        17.2465      
      3700   300.66298     -44240.419     -28304.394      4049.2998      16.887576      13.9031        17.2465      
      3800   291.51505     -44258.272     -25011.07       4056.8404      16.919024      13.9031        17.2465      
      3900   277.33627     -44230.649     -39431.473      4064.381       16.950472      13.9031        17.2465      
      4000   305.85564     -44234.368     -29814.281      4071.9216      16.98192       13.9031        17.2465      
      4100   298.3998      -44207.448     -20443.665      4079.4622      17.013368      13.9031        17.2465      
      4200   304.78996     -44206.364     -36903.149      4087.0028      17.044816      13.9031        17.2465      
      4300   313.881       -44214.931     -32623.479      4094.5434      17.076264      13.9031        17.2465      
      4400   293.24656     -44190.662     -36756.747      4102.084       17.107712      13.9031        17.2465      
      4500   308.66045     -44208.365     -48034.445      4109.6246      17.13916       13.9031        17.2465      
      4600   294.99036     -44197.48      -27688.618      4117.1652      17.170608      13.9031        17.2465      
      4700   293.69323     -44197.737     -37866.469      4124.7058      17.202056      13.9031        17.2465      
      4800   312.23144     -44200.808     -30029.432      4132.2464      17.233504      13.9031        17.2465      
      4900   327.62537     -44171.054     -29318.344      4139.787       17.264952      13.9031        17.2465      
      5000   315.18591     -44155.393     -36646.92       4147.3276      17.2964        13.9031        17.2465      
Loop time of 264.648 on 16 procs for 5000 steps with 366 atoms

Performance: 0.816 ns/day, 29.405 hours/ns, 18.893 timesteps/s, 6.915 katom-step/s
99.3% CPU use with 8 MPI tasks x 2 OpenMP threads

MPI task timing breakdown:
Section |  min time  |  avg time  |  max time  |%varavg| %total
---------------------------------------------------------------
Pair    | 197.94     | 203.43     | 207.65     |  22.3 | 76.87
Bond    | 0.0015982  | 0.0018907  | 0.0022619  |   0.5 |  0.00
Neigh   | 15.004     | 15.319     | 15.639     |   4.9 |  5.79
Comm    | 17.891     | 21.977     | 27.563     |  68.6 |  8.30
Output  | 0.036546   | 0.043858   | 0.051756   |   2.2 |  0.02
Modify  | 22.507     | 22.84      | 23.228     |   4.9 |  8.63
Other   |            | 1.039      |            |       |  0.39

Nlocal:          45.75 ave          53 max          33 min
Histogram: 1 0 0 0 0 2 2 1 0 2
Nghost:        3243.62 ave        3299 max        3192 min
Histogram: 1 0 1 2 1 0 0 2 0 1
Neighs:        28146.9 ave       32487 max       20568 min
Histogram: 1 0 0 0 1 1 2 1 0 2

Total # of neighbors = 225175
Ave neighs/atom = 615.23224
Ave special neighs/atom = 0
Neighbor list builds = 500
Dangerous builds not checked
  using 2 OpenMP thread(s) per MPI task
Reading restart file ...
  restart file = 2 Aug 2023, LAMMPS = 2 Aug 2023
  restoring atom style full from restart
  triclinic box = (0 0 0) to (15.724 13.9031 17.2465) with tilt (-7.584 0.1778 0.4371)
WARNING: Triclinic box skew is large. LAMMPS will run inefficiently. (src/domain.cpp:220)
  2 by 2 by 2 MPI processor grid
  pair style reaxff stores no restart info
  366 atoms
Finding 1-2 1-3 1-4 neighbors ...
  special bond factors lj:    0        0        0       
  special bond factors coul:  0        0        0       
     0 = max # of 1-2 neighbors
     0 = max # of 1-3 neighbors
     0 = max # of 1-4 neighbors
     1 = max # of special neighbors
  special bonds CPU = 0.000 seconds
  read_restart CPU = 0.003 seconds
*****debug*****
xy = -7.5839999999999996305, deltaxy = 0.7584
xz = 0.17780000000000001359, deltaxz = -0.01778
yz = 0.43709999999999998854, deltayz = -0.04371
*****
*****Negative-deform 2 starts.*****
Resetting global fix info from restart file:
  fix style: nvt, fix ID: fnvt
All restart file global fix info was re-assigned
Neighbor list info ...
  update: every = 10 steps, delay = 0 steps, check = no
  max neighbors/atom: 2000, page size: 100000
  master list distance cutoff = 12
  ghost atom cutoff = 12
  binsize = 6, bins = 4 3 3
  2 neighbor lists, perpetual/occasional/extra = 2 0 0
  (1) pair reaxff, perpetual
      attributes: half, newton off, ghost
      pair build: half/bin/newtoff/ghost
      stencil: full/ghost/bin/3d
      bin: standard
  (2) fix qeq/reaxff, perpetual, copy from (1)
      attributes: half, newton off
      pair build: copy
      stencil: none
      bin: none
Setting up Verlet run ...
  Unit style    : real
  Current step  : 0
  Time step     : 0.5
Per MPI rank memory allocation (min/avg/max) = 132.7 | 135.6 | 139.3 Mbytes
   Step          Temp          PotEng         Press          Volume           Lx             Ly             Lz      
         0   303.87792     -44402.424     -9577.422       3770.2978      15.724         13.9031        17.2465      
       100   294.2805      -44382.546     -6646.4035      3762.7572      15.724         13.875294      17.2465      
       200   293.56441     -44361.252      2703.7546      3755.2166      15.724         13.847488      17.2465      
       300   313.72939     -44362.107     -3154.7374      3747.676       15.724         13.819681      17.2465      
       400   302.72446     -44358.035     -3390.108       3740.1354      15.724         13.791875      17.2465      
       500   302.65892     -44397.146      2552.4328      3732.5948      15.724         13.764069      17.2465      
       600   292.69335     -44400.463      3978.5148      3725.0542      15.724         13.736263      17.2465      
       700   299.86476     -44409.229     -1637.6988      3717.5136      15.724         13.708457      17.2465      
       800   297.18594     -44395.636      7967.9889      3709.973       15.724         13.68065       17.2465      
       900   300.09748     -44360.224      9243.7724      3702.4324      15.724         13.652844      17.2465      
      1000   320.34735     -44376.763     -3063.8438      3694.8918      15.724         13.625038      17.2465      
      1100   303.35492     -44380.868      4832.0533      3687.3512      15.724         13.597232      17.2465      
      1200   306.34173     -44393.297      19159.917      3679.8107      15.724         13.569426      17.2465      
      1300   316.33712     -44424.647      953.66763      3672.2701      15.724         13.541619      17.2465      
      1400   305.64699     -44425.97       8197.9979      3664.7295      15.724         13.513813      17.2465      
      1500   272.82212     -44385.521      13497.422      3657.1889      15.724         13.486007      17.2465      
      1600   321.98439     -44400.779      12550.04       3649.6483      15.724         13.458201      17.2465      
      1700   330.73981     -44391.95       17963.237      3642.1077      15.724         13.430395      17.2465      
      1800   303.06678     -44371.973      23664.556      3634.5671      15.724         13.402588      17.2465      
      1900   307.02305     -44390.499      18412.149      3627.0265      15.724         13.374782      17.2465      
      2000   296.17711     -44385.467      5620.6582      3619.4859      15.724         13.346976      17.2465      
      2100   315.54997     -44416.735      24962.22       3611.9453      15.724         13.31917       17.2465      
      2200   286.85776     -44413.913      14720.205      3604.4047      15.724         13.291364      17.2465      
      2300   297.16435     -44418.795      21006.031      3596.8641      15.724         13.263557      17.2465      
      2400   286.50784     -44391.826      20976.996      3589.3235      15.724         13.235751      17.2465      
      2500   308.29802     -44389.052      24778.099      3581.7829      15.724         13.207945      17.2465      
      2600   284.63641     -44357.893      14880.121      3574.2423      15.724         13.180139      17.2465      
      2700   305.75433     -44379.947      27634.607      3566.7017      15.724         13.152333      17.2465      
      2800   295.08861     -44364.865      22791.856      3559.1611      15.724         13.124526      17.2465      
      2900   308.08225     -44360.183      28801.769      3551.6205      15.724         13.09672       17.2465      
      3000   302.92934     -44346.2        19733.821      3544.0799      15.724         13.068914      17.2465      
      3100   282.68483     -44339.605      22030.169      3536.5393      15.724         13.041108      17.2465      
      3200   279.46823     -44348.106      36659.098      3528.9987      15.724         13.013302      17.2465      
      3300   309.65749     -44378.845      28458.87       3521.4581      15.724         12.985495      17.2465      
      3400   269.76464     -44341.288      29662.458      3513.9175      15.724         12.957689      17.2465      
      3500   276.35473     -44362.426      28216.308      3506.377       15.724         12.929883      17.2465      
      3600   265.81613     -44344.87       23725.732      3498.8364      15.724         12.902077      17.2465      
      3700   319.86146     -44349.174      40988.136      3491.2958      15.724         12.874271      17.2465      
      3800   317.30272     -44333.296      40745.361      3483.7552      15.724         12.846464      17.2465      
      3900   311.87665     -44328.904      40881.791      3476.2146      15.724         12.818658      17.2465      
      4000   304.30742     -44330.287      41539.584      3468.674       15.724         12.790852      17.2465      
      4100   291.2337      -44310.846      53528.124      3461.1334      15.724         12.763046      17.2465      
      4200   296.33614     -44315.335      41929.234      3453.5928      15.724         12.73524       17.2465      
      4300   291.6292      -44337.212      36996.862      3446.0522      15.724         12.707433      17.2465      
      4400   284.72319     -44316.943      40895.516      3438.5116      15.724         12.679627      17.2465      
      4500   315.63734     -44312.366      46448.15       3430.971       15.724         12.651821      17.2465      
      4600   311.29459     -44287.784      45185.91       3423.4304      15.724         12.624015      17.2465      
      4700   294.95722     -44287.039      46023.725      3415.8898      15.724         12.596209      17.2465      
      4800   281.67285     -44282.838      53260.141      3408.3492      15.724         12.568402      17.2465      
      4900   309.70024     -44293.083      52715.173      3400.8086      15.724         12.540596      17.2465      
      5000   305.97163     -44285.362      38063.122      3393.268       15.724         12.51279       17.2465      
Loop time of 309.206 on 16 procs for 5000 steps with 366 atoms

Performance: 0.699 ns/day, 34.356 hours/ns, 16.170 timesteps/s, 5.918 katom-step/s
99.4% CPU use with 8 MPI tasks x 2 OpenMP threads

MPI task timing breakdown:
Section |  min time  |  avg time  |  max time  |%varavg| %total
---------------------------------------------------------------
Pair    | 235.61     | 240.25     | 245.81     |  23.7 | 77.70
Bond    | 0.0016299  | 0.00197    | 0.0023044  |   0.6 |  0.00
Neigh   | 18.693     | 19.34      | 19.978     |   8.6 |  6.25
Comm    | 18.503     | 24.082     | 28.865     |  76.3 |  7.79
Output  | 0.02998    | 0.036036   | 0.043183   |   2.2 |  0.01
Modify  | 23.801     | 24.556     | 25.27      |   8.6 |  7.94
Other   |            | 0.9426     |            |       |  0.30

Nlocal:          45.75 ave          54 max          40 min
Histogram: 2 1 0 1 0 2 0 1 0 1
Nghost:        3772.88 ave        3885 max        3655 min
Histogram: 1 0 1 2 0 1 0 1 1 1
Neighs:        34527.5 ave       40135 max       30539 min
Histogram: 2 1 0 1 1 1 0 1 0 1

Total # of neighbors = 276220
Ave neighs/atom = 754.69945
Ave special neighs/atom = 0
Neighbor list builds = 500
Dangerous builds not checked
  using 2 OpenMP thread(s) per MPI task
Reading restart file ...
  restart file = 2 Aug 2023, LAMMPS = 2 Aug 2023
  restoring atom style full from restart
  triclinic box = (0 0 0) to (15.724 13.9031 17.2465) with tilt (-7.584 0.1778 0.4371)
WARNING: Triclinic box skew is large. LAMMPS will run inefficiently. (src/domain.cpp:220)
  2 by 2 by 2 MPI processor grid
  pair style reaxff stores no restart info
  366 atoms
Finding 1-2 1-3 1-4 neighbors ...
  special bond factors lj:    0        0        0       
  special bond factors coul:  0        0        0       
     0 = max # of 1-2 neighbors
     0 = max # of 1-3 neighbors
     0 = max # of 1-4 neighbors
     1 = max # of special neighbors
  special bonds CPU = 0.000 seconds
  read_restart CPU = 0.003 seconds
*****Positive-deform 2 starts.*****
Resetting global fix info from restart file:
  fix style: nvt, fix ID: fnvt
All restart file global fix info was re-assigned
Neighbor list info ...
  update: every = 10 steps, delay = 0 steps, check = no
  max neighbors/atom: 2000, page size: 100000
  master list distance cutoff = 12
  ghost atom cutoff = 12
  binsize = 6, bins = 4 3 3
  2 neighbor lists, perpetual/occasional/extra = 2 0 0
  (1) pair reaxff, perpetual
      attributes: half, newton off, ghost
      pair build: half/bin/newtoff/ghost
      stencil: full/ghost/bin/3d
      bin: standard
  (2) fix qeq/reaxff, perpetual, copy from (1)
      attributes: half, newton off
      pair build: copy
      stencil: none
      bin: none
Setting up Verlet run ...
  Unit style    : real
  Current step  : 0
  Time step     : 0.5
Per MPI rank memory allocation (min/avg/max) = 132.7 | 135.6 | 139.3 Mbytes
   Step          Temp          PotEng         Press          Volume           Lx             Ly             Lz      
         0   303.87792     -44402.424     -9577.422       3770.2978      15.724         13.9031        17.2465      
       100   294.31834     -44382.899     -6649.3785      3777.8384      15.724         13.930906      17.2465      
       200   285.62531     -44352.724      1809.3115      3785.379       15.724         13.958712      17.2465      
       300   299.47607     -44339.324     -17522.876      3792.9196      15.724         13.986519      17.2465      
       400   317.91773     -44358.053     -9664.6568      3800.4602      15.724         14.014325      17.2465      
       500   317.4616      -44398.231     -11040.495      3808.0008      15.724         14.042131      17.2465      
       600   289.40395     -44381.343     -4065.7177      3815.5414      15.724         14.069937      17.2465      
       700   297.07778     -44380.606     -18740.494      3823.082       15.724         14.097743      17.2465      
       800   296.5665      -44352.71      -6059.9406      3830.6226      15.724         14.12555       17.2465      
       900   314.46741     -44344.075     -16158.164      3838.1632      15.724         14.153356      17.2465      
      1000   334.8604      -44373.682     -21875.052      3845.7038      15.724         14.181162      17.2465      
      1100   281.80506     -44337.068     -26538.036      3853.2443      15.724         14.208968      17.2465      
      1200   307.53159     -44368.89      -15779.561      3860.7849      15.724         14.236774      17.2465      
      1300   304.60024     -44369.274     -19017.69       3868.3255      15.724         14.264581      17.2465      
      1400   280.9153      -44348.386     -15093.691      3875.8661      15.724         14.292387      17.2465      
      1500   286.5616      -44349.514     -13041.566      3883.4067      15.724         14.320193      17.2465      
      1600   300.93478     -44338.117     -10889.079      3890.9473      15.724         14.347999      17.2465      
      1700   317.12252     -44330.996     -17368.991      3898.4879      15.724         14.375805      17.2465      
      1800   303.56252     -44327.256     -12608.284      3906.0285      15.724         14.403612      17.2465      
      1900   289.22137     -44339.78      -9387.4314      3913.5691      15.724         14.431418      17.2465      
      2000   302.11839     -44347.866     -25491.204      3921.1097      15.724         14.459224      17.2465      
      2100   299.96553     -44327.62      -30368.372      3928.6503      15.724         14.48703       17.2465      
      2200   305.56015     -44316.45      -25604.581      3936.1909      15.724         14.514836      17.2465      
      2300   301.11877     -44286.346     -22119.898      3943.7315      15.724         14.542643      17.2465      
      2400   342.32416     -44317.541     -13542.78       3951.2721      15.724         14.570449      17.2465      
      2500   332.81057     -44340.918     -16274.599      3958.8127      15.724         14.598255      17.2465      
      2600   288.25902     -44304.845     -14971.096      3966.3533      15.724         14.626061      17.2465      
      2700   301.87241     -44311.45      -12181.488      3973.8939      15.724         14.653867      17.2465      
      2800   315.28994     -44316.91      -20963.316      3981.4345      15.724         14.681674      17.2465      
      2900   306.7081      -44322.503     -25047.221      3988.9751      15.724         14.70948       17.2465      
      3000   287.88366     -44318.865     -30612.287      3996.5157      15.724         14.737286      17.2465      
      3100   291.76749     -44306.858     -25695.174      4004.0563      15.724         14.765092      17.2465      
      3200   310.36576     -44278.694     -28791.53       4011.5969      15.724         14.792898      17.2465      
      3300   315.86887     -44282.684     -27840.598      4019.1375      15.724         14.820705      17.2465      
      3400   301.61362     -44282.479     -40403.009      4026.678       15.724         14.848511      17.2465      
      3500   304.22939     -44289.496     -28614.878      4034.2186      15.724         14.876317      17.2465      
      3600   289.16928     -44265.912     -33499.598      4041.7592      15.724         14.904123      17.2465      
      3700   296.67673     -44234.353     -19270.346      4049.2998      15.724         14.931929      17.2465      
      3800   328.01808     -44238.624     -30435.995      4056.8404      15.724         14.959736      17.2465      
      3900   317.38861     -44245.034     -16980.701      4064.381       15.724         14.987542      17.2465      
      4000   306.98651     -44255.64      -27829.747      4071.9216      15.724         15.015348      17.2465      
      4100   303.94935     -44252.452     -31672.677      4079.4622      15.724         15.043154      17.2465      
      4200   280.65852     -44219.067     -30919.355      4087.0028      15.724         15.07096       17.2465      
      4300   307.89042     -44232.321     -30056.888      4094.5434      15.724         15.098767      17.2465      
      4400   300.91429     -44210.116     -42251.602      4102.084       15.724         15.126573      17.2465      
      4500   315.80064     -44226.724     -28817.054      4109.6246      15.724         15.154379      17.2465      
      4600   294.66077     -44220.002     -26618.501      4117.1652      15.724         15.182185      17.2465      
      4700   280.69544     -44206.415     -45561.419      4124.7058      15.724         15.209991      17.2465      
      4800   304.3456      -44205.298     -27771.166      4132.2464      15.724         15.237798      17.2465      
      4900   323.00338     -44177.181     -28360.479      4139.787       15.724         15.265604      17.2465      
      5000   322.77688     -44175.782     -32993.639      4147.3276      15.724         15.29341       17.2465      
Loop time of 260.913 on 16 procs for 5000 steps with 366 atoms

Performance: 0.828 ns/day, 28.990 hours/ns, 19.163 timesteps/s, 7.014 katom-step/s
99.4% CPU use with 8 MPI tasks x 2 OpenMP threads

MPI task timing breakdown:
Section |  min time  |  avg time  |  max time  |%varavg| %total
---------------------------------------------------------------
Pair    | 192.11     | 198.62     | 202.77     |  22.2 | 76.13
Bond    | 0.0016124  | 0.0019101  | 0.0022741  |   0.5 |  0.00
Neigh   | 16.185     | 16.706     | 17.275     |   8.4 |  6.40
Comm    | 17.778     | 21.999     | 28.577     |  67.2 |  8.43
Output  | 0.031473   | 0.036935   | 0.042585   |   1.7 |  0.01
Modify  | 22.084     | 22.652     | 23.226     |   8.2 |  8.68
Other   |            | 0.8937     |            |       |  0.34

Nlocal:          45.75 ave          52 max          33 min
Histogram: 1 0 0 0 0 1 2 2 0 2
Nghost:        3122.25 ave        3163 max        3096 min
Histogram: 2 1 1 1 0 0 2 0 0 1
Neighs:        28178.9 ave       31774 max       20525 min
Histogram: 1 0 0 0 0 1 1 2 1 2

Total # of neighbors = 225431
Ave neighs/atom = 615.93169
Ave special neighs/atom = 0
Neighbor list builds = 500
Dangerous builds not checked
  using 2 OpenMP thread(s) per MPI task
Reading restart file ...
  restart file = 2 Aug 2023, LAMMPS = 2 Aug 2023
  restoring atom style full from restart
  triclinic box = (0 0 0) to (15.724 13.9031 17.2465) with tilt (-7.584 0.1778 0.4371)
WARNING: Triclinic box skew is large. LAMMPS will run inefficiently. (src/domain.cpp:220)
  2 by 2 by 2 MPI processor grid
  pair style reaxff stores no restart info
  366 atoms
Finding 1-2 1-3 1-4 neighbors ...
  special bond factors lj:    0        0        0       
  special bond factors coul:  0        0        0       
     0 = max # of 1-2 neighbors
     0 = max # of 1-3 neighbors
     0 = max # of 1-4 neighbors
     1 = max # of special neighbors
  special bonds CPU = 0.000 seconds
  read_restart CPU = 0.004 seconds
*****debug*****
xy = -7.5839999999999996305, deltaxy = 0.7584
xz = 0.17780000000000001359, deltaxz = -0.01778
yz = 0.43709999999999998854, deltayz = -0.04371
*****
*****Negative-deform 3 starts.*****
Resetting global fix info from restart file:
  fix style: nvt, fix ID: fnvt
All restart file global fix info was re-assigned
Neighbor list info ...
  update: every = 10 steps, delay = 0 steps, check = no
  max neighbors/atom: 2000, page size: 100000
  master list distance cutoff = 12
  ghost atom cutoff = 12
  binsize = 6, bins = 4 3 3
  2 neighbor lists, perpetual/occasional/extra = 2 0 0
  (1) pair reaxff, perpetual
      attributes: half, newton off, ghost
      pair build: half/bin/newtoff/ghost
      stencil: full/ghost/bin/3d
      bin: standard
  (2) fix qeq/reaxff, perpetual, copy from (1)
      attributes: half, newton off
      pair build: copy
      stencil: none
      bin: none
Setting up Verlet run ...
  Unit style    : real
  Current step  : 0
  Time step     : 0.5
Per MPI rank memory allocation (min/avg/max) = 132.7 | 135.6 | 139.3 Mbytes
   Step          Temp          PotEng         Press          Volume           Lx             Ly             Lz      
         0   303.87792     -44402.424     -9577.422       3770.2978      15.724         13.9031        17.2465      
       100   294.6617      -44382.541     -6579.0132      3762.7572      15.724         13.9031        17.212007    
       200   291.57259     -44359.089      6583.124       3755.2166      15.724         13.9031        17.177514    
       300   308.77821     -44350.911     -646.61292      3747.676       15.724         13.9031        17.143021    
       400   316.72984     -44380.599      4709.1545      3740.1354      15.724         13.9031        17.108528    
       500   338.5891      -44423.642     -202.15452      3732.5948      15.724         13.9031        17.074035    
       600   301.03528     -44401.562      3499.746       3725.0542      15.724         13.9031        17.039542    
       700   290.67941     -44395.739      4313.5837      3717.5136      15.724         13.9031        17.005049    
       800   299.4872      -44400.591      11242.097      3709.973       15.724         13.9031        16.970556    
       900   320.53404     -44413.544      12542.484      3702.4324      15.724         13.9031        16.936063    
      1000   304.23317     -44393.554     -893.16788      3694.8918      15.724         13.9031        16.90157     
      1100   288.65368     -44399.921     -3471.1152      3687.3512      15.724         13.9031        16.867077    
      1200   298.13214     -44420.271      4898.5101      3679.8107      15.724         13.9031        16.832584    
      1300   305.44842     -44426.041      2114.2719      3672.2701      15.724         13.9031        16.798091    
      1400   311.09129     -44407.646      15830.697      3664.7295      15.724         13.9031        16.763598    
      1500   318.57081     -44372.703      21830.396      3657.1889      15.724         13.9031        16.729105    
      1600   313.65215     -44374.949      9236.2433      3649.6483      15.724         13.9031        16.694612    
      1700   300.9615      -44391.108      13704.876      3642.1077      15.724         13.9031        16.660119    
      1800   295.91797     -44390.845      11113.881      3634.5671      15.724         13.9031        16.625626    
      1900   297.83167     -44395.186      18530.908      3627.0265      15.724         13.9031        16.591133    
      2000   310.30737     -44410.257      11201.371      3619.4859      15.724         13.9031        16.55664     
      2100   298.66746     -44397.698      12725.295      3611.9453      15.724         13.9031        16.522147    
      2200   302.24045     -44409.516      24579.258      3604.4047      15.724         13.9031        16.487654    
      2300   286.21694     -44403.17       24900.929      3596.8641      15.724         13.9031        16.453161    
      2400   286.66076     -44394.964      25595.001      3589.3235      15.724         13.9031        16.418668    
      2500   289.82714     -44370.27       10172.789      3581.7829      15.724         13.9031        16.384175    
      2600   307.98168     -44361.039      18277.166      3574.2423      15.724         13.9031        16.349682    
      2700   307.69259     -44353.881      26679.545      3566.7017      15.724         13.9031        16.315189    
      2800   302.16625     -44372.117      32077.377      3559.1611      15.724         13.9031        16.280696    
      2900   300.48583     -44365.967      18820.388      3551.6205      15.724         13.9031        16.246203    
      3000   299.94883     -44365.502      16463.02       3544.0799      15.724         13.9031        16.21171     
      3100   296.33016     -44356.508      32624.637      3536.5393      15.724         13.9031        16.177217    
      3200   297.32232     -44356.333      37444.525      3528.9987      15.724         13.9031        16.142724    
      3300   289.01803     -44352.443      31662.011      3521.4581      15.724         13.9031        16.108231    
      3400   296.65475     -44369.553      27967.148      3513.9175      15.724         13.9031        16.073738    
      3500   296.0953      -44362.525      29968.433      3506.377       15.724         13.9031        16.039245    
      3600   304.552       -44326.379      34163.489      3498.8364      15.724         13.9031        16.004752    
      3700   304.12762     -44303.101      43020.263      3491.2958      15.724         13.9031        15.970259    
      3800   307.26042     -44313.318      36040.207      3483.7552      15.724         13.9031        15.935766    
      3900   302.25806     -44312.115      43836.629      3476.2146      15.724         13.9031        15.901273    
      4000   300.47027     -44313.31       52064.364      3468.674       15.724         13.9031        15.86678     
      4100   289.94172     -44296.518      35645.474      3461.1334      15.724         13.9031        15.832287    
      4200   287.34945     -44285.37       36352.534      3453.5928      15.724         13.9031        15.797794    
      4300   272.617       -44285.765      50539.808      3446.0522      15.724         13.9031        15.763301    
      4400   286.17795     -44317.05       45908.617      3438.5116      15.724         13.9031        15.728808    
      4500   308.77198     -44309.411      44868.79       3430.971       15.724         13.9031        15.694315    
      4600   308.44094     -44277.084      34795.948      3423.4304      15.724         13.9031        15.659822    
      4700   303.18897     -44262.616      51696.128      3415.8898      15.724         13.9031        15.625329    
      4800   308.40004     -44269.092      41331.582      3408.3492      15.724         13.9031        15.590836    
      4900   294.77472     -44263.068      53466.756      3400.8086      15.724         13.9031        15.556343    
      5000   285.89889     -44263.094      45312.851      3393.268       15.724         13.9031        15.52185     
Loop time of 306.328 on 16 procs for 5000 steps with 366 atoms

Performance: 0.705 ns/day, 34.036 hours/ns, 16.322 timesteps/s, 5.974 katom-step/s
99.4% CPU use with 8 MPI tasks x 2 OpenMP threads

MPI task timing breakdown:
Section |  min time  |  avg time  |  max time  |%varavg| %total
---------------------------------------------------------------
Pair    | 229.94     | 236.34     | 242.8      |  25.5 | 77.15
Bond    | 0.001577   | 0.0019238  | 0.002278   |   0.6 |  0.00
Neigh   | 18.327     | 18.805     | 19.323     |   7.9 |  6.14
Comm    | 18.441     | 24.867     | 31.363     |  78.8 |  8.12
Output  | 0.028019   | 0.032271   | 0.037937   |   1.8 |  0.01
Modify  | 25.013     | 25.464     | 25.922     |   6.4 |  8.31
Other   |            | 0.8222     |            |       |  0.27

Nlocal:          45.75 ave          50 max          38 min
Histogram: 1 0 0 0 1 1 1 1 1 2
Nghost:        3718.62 ave        3778 max        3665 min
Histogram: 1 1 1 1 0 0 2 1 0 1
Neighs:          34604 ave       37619 max       29026 min
Histogram: 1 0 0 0 1 1 1 1 1 2

Total # of neighbors = 276832
Ave neighs/atom = 756.37158
Ave special neighs/atom = 0
Neighbor list builds = 500
Dangerous builds not checked
  using 2 OpenMP thread(s) per MPI task
Reading restart file ...
  restart file = 2 Aug 2023, LAMMPS = 2 Aug 2023
  restoring atom style full from restart
  triclinic box = (0 0 0) to (15.724 13.9031 17.2465) with tilt (-7.584 0.1778 0.4371)
WARNING: Triclinic box skew is large. LAMMPS will run inefficiently. (src/domain.cpp:220)
  2 by 2 by 2 MPI processor grid
  pair style reaxff stores no restart info
  366 atoms
Finding 1-2 1-3 1-4 neighbors ...
  special bond factors lj:    0        0        0       
  special bond factors coul:  0        0        0       
     0 = max # of 1-2 neighbors
     0 = max # of 1-3 neighbors
     0 = max # of 1-4 neighbors
     1 = max # of special neighbors
  special bonds CPU = 0.000 seconds
  read_restart CPU = 0.003 seconds
*****Positive-deform 3 starts.*****
Resetting global fix info from restart file:
  fix style: nvt, fix ID: fnvt
All restart file global fix info was re-assigned
Neighbor list info ...
  update: every = 10 steps, delay = 0 steps, check = no
  max neighbors/atom: 2000, page size: 100000
  master list distance cutoff = 12
  ghost atom cutoff = 12
  binsize = 6, bins = 4 3 3
  2 neighbor lists, perpetual/occasional/extra = 2 0 0
  (1) pair reaxff, perpetual
      attributes: half, newton off, ghost
      pair build: half/bin/newtoff/ghost
      stencil: full/ghost/bin/3d
      bin: standard
  (2) fix qeq/reaxff, perpetual, copy from (1)
      attributes: half, newton off
      pair build: copy
      stencil: none
      bin: none
Setting up Verlet run ...
  Unit style    : real
  Current step  : 0
  Time step     : 0.5
Per MPI rank memory allocation (min/avg/max) = 132.7 | 135.6 | 139.3 Mbytes
   Step          Temp          PotEng         Press          Volume           Lx             Ly             Lz      
         0   303.87792     -44402.424     -9577.422       3770.2978      15.724         13.9031        17.2465      
       100   293.96983     -44382.875     -6682.2341      3777.8384      15.724         13.9031        17.280993    
       200   289.87404     -44353.397     -1922.6104      3785.379       15.724         13.9031        17.315486    
       300   312.38405     -44353.859     -12225.709      3792.9196      15.724         13.9031        17.349979    
       400   308.5065      -44356.77      -6271.3582      3800.4602      15.724         13.9031        17.384472    
       500   317.807       -44397.48      -12430.068      3808.0008      15.724         13.9031        17.418965    
       600   281.05651     -44367.564     -13014.912      3815.5414      15.724         13.9031        17.453458    
       700   285.81679     -44364.745     -5934.3089      3823.082       15.724         13.9031        17.487951    
       800   302.76958     -44385.236     -9643.3964      3830.6226      15.724         13.9031        17.522444    
       900   293.64627     -44382.184     -16880.11       3838.1632      15.724         13.9031        17.556937    
      1000   302.47423     -44395.79      -10633.81       3845.7038      15.724         13.9031        17.59143     
      1100   270.95004     -44373.821     -16168.161      3853.2443      15.724         13.9031        17.625923    
      1200   302.36859     -44390.288     -25177.638      3860.7849      15.724         13.9031        17.660416    
      1300   306.22429     -44349.807     -22578.302      3868.3255      15.724         13.9031        17.694909    
      1400   294.22195     -44321.751     -10642.443      3875.8661      15.724         13.9031        17.729402    
      1500   296.64116     -44334.072     -27785.214      3883.4067      15.724         13.9031        17.763895    
      1600   311.15058     -44365.06      -26181.957      3890.9473      15.724         13.9031        17.798388    
      1700   295.97592     -44349.672     -22887.192      3898.4879      15.724         13.9031        17.832881    
      1800   311.7067      -44373.906     -27648.398      3906.0285      15.724         13.9031        17.867374    
      1900   295.95014     -44359.881     -14177.59       3913.5691      15.724         13.9031        17.901867    
      2000   286.75911     -44368.418     -15877.19       3921.1097      15.724         13.9031        17.93636     
      2100   270.26217     -44364.195     -24284.014      3928.6503      15.724         13.9031        17.970853    
      2200   283.49188     -44354.212     -27646.72       3936.1909      15.724         13.9031        18.005346    
      2300   303.85588     -44348.953     -25168.621      3943.7315      15.724         13.9031        18.039839    
      2400   295.93405     -44327.316     -27231.029      3951.2721      15.724         13.9031        18.074332    
      2500   322.14782     -44342.411     -29991.479      3958.8127      15.724         13.9031        18.108825    
      2600   307.61543     -44345.934     -26025.066      3966.3533      15.724         13.9031        18.143318    
      2700   292.8287      -44330.106     -29426.793      3973.8939      15.724         13.9031        18.177811    
      2800   292.49927     -44317.068     -21086.357      3981.4345      15.724         13.9031        18.212304    
      2900   291.49919     -44299.186     -43193.118      3988.9751      15.724         13.9031        18.246797    
      3000   301.7063      -44295.465     -28876.251      3996.5157      15.724         13.9031        18.28129     
      3100   282.36246     -44273.214     -21274.445      4004.0563      15.724         13.9031        18.315783    
      3200   312.12526     -44309.755     -25847.75       4011.5969      15.724         13.9031        18.350276    
      3300   287.15732     -44280.884     -25235.512      4019.1375      15.724         13.9031        18.384769    
      3400   295.04808     -44277.787     -35046.484      4026.678       15.724         13.9031        18.419262    
      3500   291.21129     -44268.447     -15020.639      4034.2186      15.724         13.9031        18.453755    
      3600   298.99692     -44268.225     -24834.614      4041.7592      15.724         13.9031        18.488248    
      3700   311.32136     -44273.148     -33796.698      4049.2998      15.724         13.9031        18.522741    
      3800   298.28676     -44269.127     -42552.133      4056.8404      15.724         13.9031        18.557234    
      3900   288.46433     -44268.08      -32263.42       4064.381       15.724         13.9031        18.591727    
      4000   286.45469     -44259.299     -29351.61       4071.9216      15.724         13.9031        18.62622     
      4100   300.55443     -44260.066     -33870.915      4079.4622      15.724         13.9031        18.660713    
      4200   298.17356     -44239.219     -38224.165      4087.0028      15.724         13.9031        18.695206    
      4300   307.68347     -44192.976     -33990.325      4094.5434      15.724         13.9031        18.729699    
      4400   314.51808     -44186.493     -35255.9        4102.084       15.724         13.9031        18.764192    
      4500   304.46092     -44201.176     -42041.125      4109.6246      15.724         13.9031        18.798685    
      4600   308.38011     -44221.421     -33636.408      4117.1652      15.724         13.9031        18.833178    
      4700   297.29079     -44216.766     -40667.187      4124.7058      15.724         13.9031        18.867671    
      4800   300.32565     -44217.751     -36421.532      4132.2464      15.724         13.9031        18.902164    
      4900   305.29671     -44197.965     -35724.148      4139.787       15.724         13.9031        18.936657    
      5000   324.09955     -44177.396     -38833.555      4147.3276      15.724         13.9031        18.97115     
Loop time of 263.553 on 16 procs for 5000 steps with 366 atoms

Performance: 0.820 ns/day, 29.284 hours/ns, 18.972 timesteps/s, 6.944 katom-step/s
99.4% CPU use with 8 MPI tasks x 2 OpenMP threads

MPI task timing breakdown:
Section |  min time  |  avg time  |  max time  |%varavg| %total
---------------------------------------------------------------
Pair    | 194.77     | 202.52     | 207.79     |  26.1 | 76.84
Bond    | 0.0016378  | 0.0019597  | 0.0022822  |   0.5 |  0.00
Neigh   | 14.841     | 15.684     | 16.468     |  11.0 |  5.95
Comm    | 16.435     | 21.763     | 29.618     |  80.6 |  8.26
Output  | 0.034083   | 0.042813   | 0.05235    |   2.8 |  0.02
Modify  | 21.855     | 22.661     | 23.567     |   9.9 |  8.60
Other   |            | 0.8784     |            |       |  0.33

Nlocal:          45.75 ave          53 max          37 min
Histogram: 1 0 0 1 1 1 2 1 0 1
Nghost:        3193.25 ave        3269 max        3117 min
Histogram: 2 0 0 1 1 0 2 0 1 1
Neighs:        28120.4 ave       32473 max       23001 min
Histogram: 1 0 0 1 1 1 2 1 0 1

Total # of neighbors = 224963
Ave neighs/atom = 614.65301
Ave special neighs/atom = 0
Neighbor list builds = 500
Dangerous builds not checked
  using 2 OpenMP thread(s) per MPI task
Reading restart file ...
  restart file = 2 Aug 2023, LAMMPS = 2 Aug 2023
  restoring atom style full from restart
  triclinic box = (0 0 0) to (15.724 13.9031 17.2465) with tilt (-7.584 0.1778 0.4371)
WARNING: Triclinic box skew is large. LAMMPS will run inefficiently. (src/domain.cpp:220)
  2 by 2 by 2 MPI processor grid
  pair style reaxff stores no restart info
  366 atoms
Finding 1-2 1-3 1-4 neighbors ...
  special bond factors lj:    0        0        0       
  special bond factors coul:  0        0        0       
     0 = max # of 1-2 neighbors
     0 = max # of 1-3 neighbors
     0 = max # of 1-4 neighbors
     1 = max # of special neighbors
  special bonds CPU = 0.000 seconds
  read_restart CPU = 0.003 seconds
*****debug*****
xy = -7.5839999999999996305, deltaxy = 0.7584
xz = 0.17780000000000001359, deltaxz = -0.01778
yz = 0.43709999999999998854, deltayz = -0.04371
*****
*****Negative-deform 4 starts.*****
Resetting global fix info from restart file:
  fix style: nvt, fix ID: fnvt
All restart file global fix info was re-assigned
Neighbor list info ...
  update: every = 10 steps, delay = 0 steps, check = no
  max neighbors/atom: 2000, page size: 100000
  master list distance cutoff = 12
  ghost atom cutoff = 12
  binsize = 6, bins = 4 3 3
  2 neighbor lists, perpetual/occasional/extra = 2 0 0
  (1) pair reaxff, perpetual
      attributes: half, newton off, ghost
      pair build: half/bin/newtoff/ghost
      stencil: full/ghost/bin/3d
      bin: standard
  (2) fix qeq/reaxff, perpetual, copy from (1)
      attributes: half, newton off
      pair build: copy
      stencil: none
      bin: none
Setting up Verlet run ...
  Unit style    : real
  Current step  : 0
  Time step     : 0.5
Per MPI rank memory allocation (min/avg/max) = 132.7 | 135.6 | 139.3 Mbytes
   Step          Temp          PotEng         Press          Volume           Lx             Ly             Lz      
         0   303.87792     -44402.424     -9577.422       3770.2978      15.724         13.9031        17.2465      
       100   294.32687     -44382.679     -6597.0751      3770.2978      15.724         13.9031        17.2465      
       200   288.30178     -44355.884      1278.6325      3770.2978      15.724         13.9031        17.2465      
       300   310.58794     -44353.779     -11044.485      3770.2978      15.724         13.9031        17.2465      
       400   310.47399     -44355.508     -1780.8358      3770.2978      15.724         13.9031        17.2465      
       500   319.53152     -44404.54      -12360.738      3770.2978      15.724         13.9031        17.2465      
       600   302.27354     -44402.305     -8213.5525      3770.2978      15.724         13.9031        17.2465      
       700   271.21241     -44369.996     -2725.0671      3770.2978      15.724         13.9031        17.2465      
       800   309.33026     -44389.36      -190.95896      3770.2978      15.724         13.9031        17.2465      
       900   294.03558     -44349.119      5351.6788      3770.2978      15.724         13.9031        17.2465      
      1000   313.84661     -44371.024     -4664.8405      3770.2978      15.724         13.9031        17.2465      
      1100   308.50788     -44393.353      863.96882      3770.2978      15.724         13.9031        17.2465      
      1200   296.75138     -44386.082      1023.8504      3770.2978      15.724         13.9031        17.2465      
      1300   313.46979     -44401.888     -2900.6658      3770.2978      15.724         13.9031        17.2465      
      1400   310.39715     -44417.968     -5233.3609      3770.2978      15.724         13.9031        17.2465      
      1500   290.07755     -44411.575     -2961.6762      3770.2978      15.724         13.9031        17.2465      
      1600   284.11216     -44404.217      5141.7562      3770.2978      15.724         13.9031        17.2465      
      1700   291.44164     -44396.627     -11634.196      3770.2978      15.724         13.9031        17.2465      
      1800   292.44201     -44365.128     -9375.0359      3770.2978      15.724         13.9031        17.2465      
      1900   318.84584     -44377.923     -6465.5667      3770.2978      15.724         13.9031        17.2465      
      2000   301.74822     -44382.108     -10076.302      3770.2978      15.724         13.9031        17.2465      
      2100   283.07191     -44381.626      483.40064      3770.2978      15.724         13.9031        17.2465      
      2200   310.01154     -44407.877     -5448.6182      3770.2978      15.724         13.9031        17.2465      
      2300   303.77903     -44385.569      3303.2378      3770.2978      15.724         13.9031        17.2465      
      2400   309.83105     -44375.662     -7360.7342      3770.2978      15.724         13.9031        17.2465      
      2500   310.01687     -44382.017      4642.2144      3770.2978      15.724         13.9031        17.2465      
      2600   290.45196     -44383.565     -4251.3061      3770.2978      15.724         13.9031        17.2465      
      2700   279.94088     -44378.091     -15179.301      3770.2978      15.724         13.9031        17.2465      
      2800   299.10994     -44394.609     -3866.0093      3770.2978      15.724         13.9031        17.2465      
      2900   312.57049     -44389.828     -9175.2959      3770.2978      15.724         13.9031        17.2465      
      3000   307.07068     -44362.407      1755.2045      3770.2978      15.724         13.9031        17.2465      
      3100   313.30812     -44372.435     -1515.0681      3770.2978      15.724         13.9031        17.2465      
      3200   301.16975     -44390.651     -6271.7346      3770.2978      15.724         13.9031        17.2465      
      3300   276.56111     -44372.068      3678.6858      3770.2978      15.724         13.9031        17.2465      
      3400   308.58847     -44389.776     -12593.188      3770.2978      15.724         13.9031        17.2465      
      3500   308.62736     -44370.649     -14115.491      3770.2978      15.724         13.9031        17.2465      
      3600   313.24606     -44357.171     -10725.062      3770.2978      15.724         13.9031        17.2465      
      3700   313.81471     -44351.329     -12004.578      3770.2978      15.724         13.9031        17.2465      
      3800   306.63584     -44370.576     -11349.578      3770.2978      15.724         13.9031        17.2465      
      3900   298.6715      -44380.393      5560.1949      3770.2978      15.724         13.9031        17.2465      
      4000   306.81132     -44394.145     -10515.198      3770.2978      15.724         13.9031        17.2465      
      4100   304.92425     -44386.423     -9962.14        3770.2978      15.724         13.9031        17.2465      
      4200   289.06229     -44344.051     -3547.0367      3770.2978      15.724         13.9031        17.2465      
      4300   321.57882     -44354.832     -10572.528      3770.2978      15.724         13.9031        17.2465      
      4400   307.36203     -44343.437     -3977.1679      3770.2978      15.724         13.9031        17.2465      
      4500   285.15982     -44345.01      -3392.3277      3770.2978      15.724         13.9031        17.2465      
      4600   287.06858     -44350.245     -8663.2812      3770.2978      15.724         13.9031        17.2465      
      4700   305.38505     -44364.692     -1615.2896      3770.2978      15.724         13.9031        17.2465      
      4800   299.50575     -44348.833      4163.11        3770.2978      15.724         13.9031        17.2465      
      4900   308.70725     -44343.685     -4628.3494      3770.2978      15.724         13.9031        17.2465      
      5000   319.87345     -44332.145     -2280.5968      3770.2978      15.724         13.9031        17.2465      
Loop time of 282.542 on 16 procs for 5000 steps with 366 atoms

Performance: 0.764 ns/day, 31.394 hours/ns, 17.696 timesteps/s, 6.477 katom-step/s
99.3% CPU use with 8 MPI tasks x 2 OpenMP threads

MPI task timing breakdown:
Section |  min time  |  avg time  |  max time  |%varavg| %total
---------------------------------------------------------------
Pair    | 211.04     | 217.37     | 220.93     |  21.7 | 76.94
Bond    | 0.0016089  | 0.0018992  | 0.0022931  |   0.5 |  0.00
Neigh   | 17.333     | 17.894     | 18.391     |   8.1 |  6.33
Comm    | 19.525     | 23.1       | 29.642     |  68.3 |  8.18
Output  | 0.030293   | 0.036188   | 0.04299    |   2.2 |  0.01
Modify  | 22.526     | 23.189     | 23.875     |   8.5 |  8.21
Other   |            | 0.9463     |            |       |  0.33

Nlocal:          45.75 ave          54 max          40 min
Histogram: 1 2 1 1 0 1 0 0 1 1
Nghost:        3417.62 ave        3468 max        3362 min
Histogram: 1 1 0 2 0 0 1 0 2 1
Neighs:        31049.5 ave       36259 max       27531 min
Histogram: 1 2 1 1 1 0 0 0 1 1

Total # of neighbors = 248396
Ave neighs/atom = 678.6776
Ave special neighs/atom = 0
Neighbor list builds = 500
Dangerous builds not checked
  using 2 OpenMP thread(s) per MPI task
Reading restart file ...
  restart file = 2 Aug 2023, LAMMPS = 2 Aug 2023
  restoring atom style full from restart
  triclinic box = (0 0 0) to (15.724 13.9031 17.2465) with tilt (-7.584 0.1778 0.4371)
WARNING: Triclinic box skew is large. LAMMPS will run inefficiently. (src/domain.cpp:220)
  2 by 2 by 2 MPI processor grid
  pair style reaxff stores no restart info
  366 atoms
Finding 1-2 1-3 1-4 neighbors ...
  special bond factors lj:    0        0        0       
  special bond factors coul:  0        0        0       
     0 = max # of 1-2 neighbors
     0 = max # of 1-3 neighbors
     0 = max # of 1-4 neighbors
     1 = max # of special neighbors
  special bonds CPU = 0.000 seconds
  read_restart CPU = 0.004 seconds
*****Positive-deform 4 starts.*****
Resetting global fix info from restart file:
  fix style: nvt, fix ID: fnvt
All restart file global fix info was re-assigned
Neighbor list info ...
  update: every = 10 steps, delay = 0 steps, check = no
  max neighbors/atom: 2000, page size: 100000
  master list distance cutoff = 12
  ghost atom cutoff = 12
  binsize = 6, bins = 4 3 3
  2 neighbor lists, perpetual/occasional/extra = 2 0 0
  (1) pair reaxff, perpetual
      attributes: half, newton off, ghost
      pair build: half/bin/newtoff/ghost
      stencil: full/ghost/bin/3d
      bin: standard
  (2) fix qeq/reaxff, perpetual, copy from (1)
      attributes: half, newton off
      pair build: copy
      stencil: none
      bin: none
Setting up Verlet run ...
  Unit style    : real
  Current step  : 0
  Time step     : 0.5
Per MPI rank memory allocation (min/avg/max) = 132.7 | 135.6 | 139.3 Mbytes
   Step          Temp          PotEng         Press          Volume           Lx             Ly             Lz      
         0   303.87792     -44402.424     -9577.422       3770.2978      15.724         13.9031        17.2465      
       100   294.27121     -44382.721     -6660.5721      3770.2978      15.724         13.9031        17.2465      
       200   294.5202      -44364.003      2460.9016      3770.2978      15.724         13.9031        17.2465      
       300   307.02546     -44353.576     -6018.3363      3770.2978      15.724         13.9031        17.2465      
       400   326.55183     -44376.469     -4812.739       3770.2978      15.724         13.9031        17.2465      
       500   317.50769     -44409.023     -12490.163      3770.2978      15.724         13.9031        17.2465      
       600   295.28447     -44398.094     -3116.0402      3770.2978      15.724         13.9031        17.2465      
       700   286.49181     -44387.734     -1071.0421      3770.2978      15.724         13.9031        17.2465      
       800   306.82787     -44382.565      5845.8957      3770.2978      15.724         13.9031        17.2465      
       900   306.58017     -44357.078      3181.1203      3770.2978      15.724         13.9031        17.2465      
      1000   302.69689     -44363.047     -11049.007      3770.2978      15.724         13.9031        17.2465      
      1100   304.17019     -44383.194     -4243.2086      3770.2978      15.724         13.9031        17.2465      
      1200   300.18706     -44394.007      3662.5166      3770.2978      15.724         13.9031        17.2465      
      1300   298.67233     -44397.13      -7971.1091      3770.2978      15.724         13.9031        17.2465      
      1400   292.31564     -44398.965     -3064.3394      3770.2978      15.724         13.9031        17.2465      
      1500   282.68575     -44403.789      347.94525      3770.2978      15.724         13.9031        17.2465      
      1600   304.29043     -44418.086      814.20436      3770.2978      15.724         13.9031        17.2465      
      1700   303.71682     -44386.145      9156.3089      3770.2978      15.724         13.9031        17.2465      
      1800   308.48962     -44374.983      2907.3144      3770.2978      15.724         13.9031        17.2465      
      1900   302.76212     -44377.377     -205.73766      3770.2978      15.724         13.9031        17.2465      
      2000   307.94094     -44397.989     -10879.56       3770.2978      15.724         13.9031        17.2465      
      2100   312.77514     -44407.94      -5385.977       3770.2978      15.724         13.9031        17.2465      
      2200   309.43792     -44402.553     -4720.4549      3770.2978      15.724         13.9031        17.2465      
      2300   300.77087     -44389.271     -1947.8754      3770.2978      15.724         13.9031        17.2465      
      2400   313.72882     -44386.532     -2422.8985      3770.2978      15.724         13.9031        17.2465      
      2500   316.14302     -44398.427     -12536.295      3770.2978      15.724         13.9031        17.2465      
      2600   292.07951     -44406.395     -545.86842      3770.2978      15.724         13.9031        17.2465      
      2700   298.29857     -44416.032      2164.1078      3770.2978      15.724         13.9031        17.2465      
      2800   301.54914     -44404.451     -1683.9089      3770.2978      15.724         13.9031        17.2465      
      2900   307.76778     -44383.333      5205.1963      3770.2978      15.724         13.9031        17.2465      
      3000   312.74415     -44357.305     -1978.457       3770.2978      15.724         13.9031        17.2465      
      3100   343.23614     -44381.829      6863.842       3770.2978      15.724         13.9031        17.2465      
      3200   313.58314     -44395.558      98.007008      3770.2978      15.724         13.9031        17.2465      
      3300   279.49316     -44368.98      -6726.1503      3770.2978      15.724         13.9031        17.2465      
      3400   284.67552     -44382.309      6194.158       3770.2978      15.724         13.9031        17.2465      
      3500   297.93441     -44386.933     -10788.339      3770.2978      15.724         13.9031        17.2465      
      3600   309.8714      -44378.875      14856.221      3770.2978      15.724         13.9031        17.2465      
      3700   316.60188     -44369.676      4260.5737      3770.2978      15.724         13.9031        17.2465      
[...]
      4600   290.51038     -44350.45      -7993.9183      3770.2978      15.724         13.9031        17.2465      
      4700   297.64512     -44348.341      3716.7687      3770.2978      15.724         13.9031        17.2465      
      4800   317.99324     -44346.92      -9520.2177      3770.2978      15.724         13.9031        17.2465      
      4900   317.45957     -44338.641      4645.7859      3770.2978      15.724         13.9031        17.2465      
      5000   311.80336     -44360.602      6587.9605      3770.2978      15.724         13.9031        17.2465      
Loop time of 160.852 on 16 procs for 5000 steps with 366 atoms

Performance: 1.343 ns/day, 17.872 hours/ns, 31.085 timesteps/s, 11.377 katom-step/s
99.8% CPU use with 8 MPI tasks x 2 OpenMP threads

MPI task timing breakdown:
Section |  min time  |  avg time  |  max time  |%varavg| %total
---------------------------------------------------------------
Pair    | 122.8      | 128.62     | 131.55     |  25.4 | 79.96
Bond    | 0.00090511 | 0.0011296  | 0.0015436  |   0.7 |  0.00
Neigh   | 11.953     | 12.153     | 12.395     |   3.6 |  7.56
Comm    | 1.7253     | 4.6848     | 10.537     | 133.7 |  2.91
Output  | 0.0099941  | 0.011734   | 0.013133   |   0.9 |  0.01
Modify  | 15.041     | 15.267     | 15.474     |   3.1 |  9.49
Other   |            | 0.1159     |            |       |  0.07

Nlocal:          45.75 ave          50 max          42 min
Histogram: 1 1 2 0 0 0 1 2 0 1
Nghost:           3463 ave        3525 max        3412 min
Histogram: 2 0 1 0 2 0 1 1 0 1
Neighs:        31044.9 ave       33807 max       28718 min
Histogram: 1 1 2 0 0 0 1 2 0 1

Total # of neighbors = 248359
Ave neighs/atom = 678.5765
Ave special neighs/atom = 0
Neighbor list builds = 500
Dangerous builds not checked
  using 2 OpenMP thread(s) per MPI task
Reading restart file ...
  restart file = 2 Aug 2023, LAMMPS = 2 Aug 2023
  restoring atom style full from restart
  triclinic box = (0 0 0) to (15.724 13.9031 17.2465) with tilt (-7.584 0.1778 0.4371)
WARNING: Triclinic box skew is large. LAMMPS will run inefficiently. (src/domain.cpp:220)
  2 by 2 by 2 MPI processor grid
  pair style reaxff stores no restart info
  366 atoms
Finding 1-2 1-3 1-4 neighbors ...
  special bond factors lj:    0        0        0       
  special bond factors coul:  0        0        0       
     0 = max # of 1-2 neighbors
     0 = max # of 1-3 neighbors
     0 = max # of 1-4 neighbors
     1 = max # of special neighbors
  special bonds CPU = 0.000 seconds
  read_restart CPU = 0.002 seconds
*****debug*****
xy = -7.5839999999999996305, deltaxy = 0.7584
xz = 0.17780000000000001359, deltaxz = -0.01778
yz = 0.43709999999999998854, deltayz = -0.04371
*****
*****Negative-deform 6 starts.*****
Resetting global fix info from restart file:
  fix style: nvt, fix ID: fnvt
All restart file global fix info was re-assigned
Neighbor list info ...
  update: every = 10 steps, delay = 0 steps, check = no
  max neighbors/atom: 2000, page size: 100000
  master list distance cutoff = 12
  ghost atom cutoff = 12
  binsize = 6, bins = 4 3 3
  2 neighbor lists, perpetual/occasional/extra = 2 0 0
  (1) pair reaxff, perpetual
      attributes: half, newton off, ghost
      pair build: half/bin/newtoff/ghost
      stencil: full/ghost/bin/3d
      bin: standard
  (2) fix qeq/reaxff, perpetual, copy from (1)
      attributes: half, newton off
      pair build: copy
      stencil: none
      bin: none
Setting up Verlet run ...
  Unit style    : real
  Current step  : 0
  Time step     : 0.5
Per MPI rank memory allocation (min/avg/max) = 132.7 | 135.6 | 139.3 Mbytes
   Step          Temp          PotEng         Press          Volume           Lx             Ly             Lz      
         0   303.87792     -44402.424     -9577.422       3770.2978      15.724         13.9031        17.2465      
       100   294.25475     -44382.628     -6666.9784      3770.2978      15.724         13.9031        17.2465      
       200   287.26004     -44353.356      2619.0705      3770.2978      15.724         13.9031        17.2465      
       300   307.08367     -44354.102     -3451.2754      3770.2978      15.724         13.9031        17.2465      
       400   317.61072     -44367.417     -4666.1544      3770.2978      15.724         13.9031        17.2465      
       500   313.54619     -44401.217     -2377.8546      3770.2978      15.724         13.9031        17.2465      
       600   282.5589      -44387.594      253.23933      3770.2978      15.724         13.9031        17.2465      
       700   289.38413     -44395.189     -8445.3157      3770.2978      15.724         13.9031        17.2465      
       800   293.51261     -44371.053     -281.82483      3770.2978      15.724         13.9031        17.2465      
       900   318.74376     -44381.101     -8810.5792      3770.2978      15.724         13.9031        17.2465      
      1000   316.17833     -44395.086     -16868.828      3770.2978      15.724         13.9031        17.2465      
      1100   303.35572     -44392.185     -13757.381      3770.2978      15.724         13.9031        17.2465      
      1200   307.55149     -44407.754     -8284.6813      3770.2978      15.724         13.9031        17.2465      
      1300   276.25937     -44380.229     -9675.8438      3770.2978      15.724         13.9031        17.2465      
      1400   292.69809     -44379.377      1612.8992      3770.2978      15.724         13.9031        17.2465      
      1500   294.10499     -44348.131     -23853.776      3770.2978      15.724         13.9031        17.2465      
      1600   327.89074     -44378.052     -9499.7135      3770.2978      15.724         13.9031        17.2465      
      1700   289.52394     -44374.574     -8080.5393      3770.2978      15.724         13.9031        17.2465      
      1800   294.56125     -44388.055     -12928.043      3770.2978      15.724         13.9031        17.2465      
      1900   289.50181     -44389.461     -15957.969      3770.2978      15.724         13.9031        17.2465      
      2000   300.76451     -44405.036     -3057.0399      3770.2978      15.724         13.9031        17.2465      
      2100   302.74854     -44390.829     -13458.699      3770.2978      15.724         13.9031        17.2465      
      2200   311.97876     -44369.861     -11208.944      3770.2978      15.724         13.9031        17.2465      
      2300   299.07722     -44358.81       2513.4105      3770.2978      15.724         13.9031        17.2465      
      2400   299.32706     -44386.946     -4648.3879      3770.2978      15.724         13.9031        17.2465      
      2500   289.54519     -44384.218     -4746.8867      3770.2978      15.724         13.9031        17.2465      
      2600   302.42901     -44397.652     -7952.1137      3770.2978      15.724         13.9031        17.2465      
      2700   298.26392     -44384.077     -10113.549      3770.2978      15.724         13.9031        17.2465      
      2800   325.1255      -44387.531     -4234.5967      3770.2978      15.724         13.9031        17.2465      
      2900   306.99248     -44353.169     -10437.617      3770.2978      15.724         13.9031        17.2465      
      3000   321.26437     -44398.617     -1822.6993      3770.2978      15.724         13.9031        17.2465      
      3100   281.57993     -44371.187     -7394.3221      3770.2978      15.724         13.9031        17.2465      
      3200   283.76904     -44366.575     -16325.588      3770.2978      15.724         13.9031        17.2465      
      3300   291.53859     -44353.914     -7614.6516      3770.2978      15.724         13.9031        17.2465      
      3400   308.05679     -44358.575     -8942.1761      3770.2978      15.724         13.9031        17.2465      
      3500   308.77327     -44368.763     -2713.7074      3770.2978      15.724         13.9031        17.2465      
      3600   288.45808     -44371.728      1512.8449      3770.2978      15.724         13.9031        17.2465      
      3700   284.77369     -44372.919     -4462.9557      3770.2978      15.724         13.9031        17.2465      
      3800   288.76571     -44367.144      5267.187       3770.2978      15.724         13.9031        17.2465      
      3900   308.5032      -44350.463     -7150.4115      3770.2978      15.724         13.9031        17.2465      
      4000   322.75073     -44364.396     -1828.0803      3770.2978      15.724         13.9031        17.2465      
      4100   319.60054     -44371.585     -6396.516       3770.2978      15.724         13.9031        17.2465      
      4200   294.74412     -44356.794     -7642.8903      3770.2978      15.724         13.9031        17.2465      
      4300   271.71076     -44333.544     -9231.8776      3770.2978      15.724         13.9031        17.2465      
      4400   304.48157     -44362.641     -1990.6749      3770.2978      15.724         13.9031        17.2465      
      4500   297.33778     -44356.224     -2533.0752      3770.2978      15.724         13.9031        17.2465      
      4600   303.44359     -44362.689     -8166.6291      3770.2978      15.724         13.9031        17.2465      
      4700   294.65617     -44357.599     -15386.143      3770.2978      15.724         13.9031        17.2465      
      4800   288.56654     -44351.827     -12239.358      3770.2978      15.724         13.9031        17.2465      
      4900   324.65687     -44374.07      -11336.118      3770.2978      15.724         13.9031        17.2465      
      5000   308.42161     -44357.515     -10785.033      3770.2978      15.724         13.9031        17.2465      
Loop time of 161.622 on 16 procs for 5000 steps with 366 atoms

Performance: 1.336 ns/day, 17.958 hours/ns, 30.936 timesteps/s, 11.323 katom-step/s
99.9% CPU use with 8 MPI tasks x 2 OpenMP threads

MPI task timing breakdown:
Section |  min time  |  avg time  |  max time  |%varavg| %total
---------------------------------------------------------------
Pair    | 125.9      | 130.37     | 132.91     |  18.4 | 80.67
Bond    | 0.00091383 | 0.0011408  | 0.0015064  |   0.6 |  0.00
Neigh   | 12.107     | 12.286     | 12.563     |   4.2 |  7.60
Comm    | 1.4331     | 3.9959     | 8.5007     | 105.6 |  2.47
Output  | 0.0098526  | 0.011602   | 0.012968   |   1.0 |  0.01
Modify  | 14.573     | 14.834     | 15.003     |   3.6 |  9.18
Other   |            | 0.1189     |            |       |  0.07

Nlocal:          45.75 ave          52 max          40 min
Histogram: 2 1 0 0 0 2 1 0 0 2
Nghost:         3569.5 ave        3675 max        3474 min
Histogram: 1 0 2 1 0 0 3 0 0 1
Neighs:        31085.6 ave       35235 max       27180 min
Histogram: 2 1 0 0 1 0 2 0 1 1

Total # of neighbors = 248685
Ave neighs/atom = 679.46721
Ave special neighs/atom = 0
Neighbor list builds = 500
Dangerous builds not checked
  using 2 OpenMP thread(s) per MPI task
Reading restart file ...
  restart file = 2 Aug 2023, LAMMPS = 2 Aug 2023
  restoring atom style full from restart
  triclinic box = (0 0 0) to (15.724 13.9031 17.2465) with tilt (-7.584 0.1778 0.4371)
WARNING: Triclinic box skew is large. LAMMPS will run inefficiently. (src/domain.cpp:220)
  2 by 2 by 2 MPI processor grid
  pair style reaxff stores no restart info
  366 atoms
Finding 1-2 1-3 1-4 neighbors ...
  special bond factors lj:    0        0        0       
  special bond factors coul:  0        0        0       
     0 = max # of 1-2 neighbors
     0 = max # of 1-3 neighbors
     0 = max # of 1-4 neighbors
     1 = max # of special neighbors
  special bonds CPU = 0.000 seconds
  read_restart CPU = 0.002 seconds
*****Positive-deform 6 starts.*****
Resetting global fix info from restart file:
  fix style: nvt, fix ID: fnvt
All restart file global fix info was re-assigned
Neighbor list info ...
  update: every = 10 steps, delay = 0 steps, check = no
  max neighbors/atom: 2000, page size: 100000
  master list distance cutoff = 12
  ghost atom cutoff = 12
  binsize = 6, bins = 4 3 3
  2 neighbor lists, perpetual/occasional/extra = 2 0 0
  (1) pair reaxff, perpetual
      attributes: half, newton off, ghost
      pair build: half/bin/newtoff/ghost
      stencil: full/ghost/bin/3d
      bin: standard
  (2) fix qeq/reaxff, perpetual, copy from (1)
      attributes: half, newton off
      pair build: copy
      stencil: none
      bin: none
Setting up Verlet run ...
  Unit style    : real
  Current step  : 0
  Time step     : 0.5
Per MPI rank memory allocation (min/avg/max) = 132.7 | 135.6 | 139.3 Mbytes
   Step          Temp          PotEng         Press          Volume           Lx             Ly             Lz      
         0   303.87792     -44402.424     -9577.422       3770.2978      15.724         13.9031        17.2465      
       100   294.34992     -44382.817     -6643.6907      3770.2978      15.724         13.9031        17.2465      
       200   290.66567     -44359.566      1906.9215      3770.2978      15.724         13.9031        17.2465      
       300   310.64453     -44354.696     -7847.6727      3770.2978      15.724         13.9031        17.2465      
       400   308.44406     -44359.388     -8644.0658      3770.2978      15.724         13.9031        17.2465      
       500   310.26687     -44403.924     -3888.1155      3770.2978      15.724         13.9031        17.2465      
       600   287.1726      -44387.099      4930.5188      3770.2978      15.724         13.9031        17.2465      
       700   288.4624      -44380.062     -3030.4532      3770.2978      15.724         13.9031        17.2465      
       800   314.61021     -44380.184      216.77345      3770.2978      15.724         13.9031        17.2465      
       900   304.80019     -44352.203     -1373.9061      3770.2978      15.724         13.9031        17.2465      
      1000   295.26833     -44351.587     -7006.833       3770.2978      15.724         13.9031        17.2465      
      1100   300.96029     -44386.996     -4876.9421      3770.2978      15.724         13.9031        17.2465      
      1200   288.84525     -44376.818     -638.64437      3770.2978      15.724         13.9031        17.2465      
      1300   302.27147     -44389.982     -11403.253      3770.2978      15.724         13.9031        17.2465      
      1400   302.17794     -44388.729     -115.53904      3770.2978      15.724         13.9031        17.2465      
      1500   311.72558     -44385.793     -568.25009      3770.2978      15.724         13.9031        17.2465      
      1600   309.92512     -44381.857     -353.71431      3770.2978      15.724         13.9031        17.2465      
      1700   296.44491     -44394.275     -9785.8208      3770.2978      15.724         13.9031        17.2465      
      1800   300.9357      -44411.677      453.71417      3770.2978      15.724         13.9031        17.2465      
      1900   302.52673     -44407.126     -2020.7497      3770.2978      15.724         13.9031        17.2465      
      2000   304.36693     -44388.98      -3785.9495      3770.2978      15.724         13.9031        17.2465      
      2100   333.08917     -44382.737      3490.166       3770.2978      15.724         13.9031        17.2465      
      2200   302.73925     -44348.9       -10397.238      3770.2978      15.724         13.9031        17.2465      
      2300   303.23881     -44384.558     -332.25342      3770.2978      15.724         13.9031        17.2465      
      2400   291.80179     -44384.922     -1781.3494      3770.2978      15.724         13.9031        17.2465      
      2500   309.50142     -44406.308     -14001.023      3770.2978      15.724         13.9031        17.2465      
      2600   304.93244     -44382.241     -19611.056      3770.2978      15.724         13.9031        17.2465      
      2700   317.7085      -44368.678      7068.4368      3770.2978      15.724         13.9031        17.2465      
      2800   318.09088     -44374.325     -8685.3615      3770.2978      15.724         13.9031        17.2465      
      2900   284.29702     -44371.696     -4254.0804      3770.2978      15.724         13.9031        17.2465      
      3000   295.41374     -44380.536      3406.7502      3770.2978      15.724         13.9031        17.2465      
      3100   290.12606     -44367.614      5844.6793      3770.2978      15.724         13.9031        17.2465      
      3200   300.58187     -44356.301      5649.4833      3770.2978      15.724         13.9031        17.2465      
      3300   302.60823     -44325.733      4727.3838      3770.2978      15.724         13.9031        17.2465      
      3400   302.95397     -44332.778      8138.0324      3770.2978      15.724         13.9031        17.2465      
      3500   299.47967     -44363.825     -10305.299      3770.2978      15.724         13.9031        17.2465      
      3600   285.63439     -44350.445     -5409.8362      3770.2978      15.724         13.9031        17.2465      
      3700   302.34745     -44348.542     -2689.6484      3770.2978      15.724         13.9031        17.2465      
      3800   294.49014     -44315.82      -2358.3563      3770.2978      15.724         13.9031        17.2465      
      3900   296.50669     -44298.367     -2243.6544      3770.2978      15.724         13.9031        17.2465      
      4000   299.04302     -44285.282     -4637.9989      3770.2978      15.724         13.9031        17.2465      
      4100   311.00071     -44324.497      2489.2543      3770.2978      15.724         13.9031        17.2465      
      4200   278.60895     -44308.321     -324.20879      3770.2978      15.724         13.9031        17.2465      
      4300   296.1681      -44318.995     -3890.7302      3770.2978      15.724         13.9031        17.2465      
      4400   294.40724     -44312.878      2759.2644      3770.2978      15.724         13.9031        17.2465      
      4500   306.41702     -44322.348     -1502.17        3770.2978      15.724         13.9031        17.2465      
      4600   305.85456     -44328.382     -11704.18       3770.2978      15.724         13.9031        17.2465      
      4700   294.4962      -44333.076     -8191.7872      3770.2978      15.724         13.9031        17.2465      
      4800   296.77866     -44353.134     -8518.1587      3770.2978      15.724         13.9031        17.2465      
      4900   271.29116     -44328.861     -7932.2896      3770.2978      15.724         13.9031        17.2465      
      5000   289.70722     -44332.776     -2183.3379      3770.2978      15.724         13.9031        17.2465      
Loop time of 157.721 on 16 procs for 5000 steps with 366 atoms

Performance: 1.370 ns/day, 17.525 hours/ns, 31.701 timesteps/s, 11.603 katom-step/s
99.9% CPU use with 8 MPI tasks x 2 OpenMP threads

MPI task timing breakdown:
Section |  min time  |  avg time  |  max time  |%varavg| %total
---------------------------------------------------------------
Pair    | 120.21     | 125.2      | 127.83     |  22.9 | 79.38
Bond    | 0.00086706 | 0.0011083  | 0.0014943  |   0.7 |  0.00
Neigh   | 12.468     | 12.677     | 12.845     |   3.1 |  8.04
Comm    | 1.7521     | 4.3973     | 9.4162     | 123.1 |  2.79
Output  | 0.010562   | 0.012482   | 0.013826   |   0.9 |  0.01
Modify  | 15.175     | 15.323     | 15.531     |   2.7 |  9.71
Other   |            | 0.1118     |            |       |  0.07

Nlocal:          45.75 ave          50 max          37 min
Histogram: 1 0 0 1 0 0 0 3 1 2
Nghost:        3299.38 ave        3359 max        3250 min
Histogram: 2 0 0 2 1 1 0 0 1 1
Neighs:        31101.8 ave       33875 max       25345 min
Histogram: 1 0 1 0 0 0 0 3 1 2

Total # of neighbors = 248814
Ave neighs/atom = 679.81967
Ave special neighs/atom = 0
Neighbor list builds = 500
Dangerous builds not checked
Total wall time: 0:53:38
