ITEM: TIMESTEP
0
ITEM: NUMBER OF ATOMS
365
ITEM: BOX BOUNDS xy xz yz pp pp pp
-7.7317999999999998e+00 1.5563499999999999e+01 -7.7317999999999998e+00
-1.3819999999999999e-01 1.3846299999999999e+01 2.4629999999999999e-01
0.0000000000000000e+00 1.8322199999999999e+01 -1.3819999999999999e-01
ITEM: ATOMS id type q x y z element
16 4 1.09594 -0.505187 3.44938 9.00058 Si
227 3 -0.755807 5.41345 3.76109 1.45832 O
153 2 0.0519643 2.11855 6.07432 3.81353 H
8 2 0.0586356 2.46667 0.540475 0.574236 H
11 4 1.3344 2.85022 0.769134 8.598 Si
13 4 1.20358 1.00351 2.26923 6.61212 Si
161 2 0.0689662 2.00279 5.18328 8.17992 H
29 4 1.13018 6.06062 0.633826 3.36775 Si
30 4 0.435257 2.40846 3.14936 3.79083 Si
31 4 1.07054 5.52966 2.28367 0.820945 Si
37 4 1.02225 4.87407 4.48818 2.82131 Si
351 2 0.0488501 -1.21322 2.71336 3.10416 H
69 1 -0.0942302 -1.6663 5.94842 7.52216 C
74 1 -0.0958137 2.34721 1.07283 3.75729 C
75 1 -0.0460558 5.18953 2.30632 6.51115 C
151 2 0.0648847 2.51315 6.57207 5.50694 H
309 2 0.0913707 -0.340496 5.54035 2.11706 H
102 2 0.0254238 1.67941 3.77479 2.34446 H
107 2 -0.038022 3.6753 5.67467 2.37457 H
109 2 0.2971 2.27406 4.23391 5.84607 H
319 2 0.0527196 -1.32957 3.46115 4.78887 H
347 2 0.0790225 -0.960818 5.12426 2.57083 H
129 2 0.070295 -2.6941 5.64972 7.56237 H
130 2 0.0931797 -1.31115 6.4462 8.43035 H
142 2 0.074696 2.39937 0.90149 4.82098 H
143 2 0.0379257 3.26805 0.834432 3.22489 H
144 2 0.0510247 1.42022 0.843548 3.25681 H
145 2 0.129231 5.25643 1.2307 6.65616 H
146 2 0.136435 5.00747 2.61459 5.49117 H
147 2 0.102727 4.54499 2.80711 7.2165 H
10 3 -0.713892 0.509587 4.67164 0.251422 O
77 1 -0.0917021 2.47101 6.86116 4.47196 C
127 2 0.0241573 -2.2996 5.69893 4.50878 H
131 2 0.0406265 -1.00714 5.20829 7.12467 H
201 3 -0.70011 0.314153 1.0627 5.75871 O
202 3 -0.802633 2.39406 1.74965 7.3842 O
205 3 -0.79365 -0.174223 2.7691 7.57 O
219 3 -0.676232 1.49932 3.97442 5.39191 O
220 3 -0.780567 5.6487 0.97811 1.84284 O
226 3 -0.672572 3.96875 3.5399 3.8558 O
80 1 -0.0908389 1.75961 6.14861 8.59122 C
160 2 0.069491 0.942331 6.63558 8.05773 H
68 1 -0.12249 -2.48831 6.75683 4.40335 C
9 2 -0.0018658 3.06369 5.4416 0.479239 H
162 2 0.061902 2.58659 6.8019 8.82109 H
255 3 -0.740177 6.6475 1.82041 4.24474 O
284 2 0.0694737 2.40976 0.470666 0.0114413 H
14 4 0.567357 0.128372 3.34802 11.9666 Si
15 4 0.62165 -1.31696 6.41166 17.4371 Si
19 4 1.08879 -0.0948617 5.52038 13.9298 Si
33 4 1.17 4.5299 2.68969 10.1891 Si
35 4 0.943567 4.13056 2.68569 16.6343 Si
40 4 0.865612 1.06708 5.69894 10.5358 Si
190 2 0.0333955 0.371426 0.191725 15.187 H
43 4 0.760299 1.42941 6.34207 16.2426 Si
229 3 -0.807664 4.67219 4.07142 9.33608 O
67 1 -0.0675678 1.77129 2.33486 12.7658 C
76 1 -0.110317 3.5941 0.989614 15.4591 C
345 2 0.281269 0.597926 0.553077 10.0514 H
212 3 -0.689025 1.04016 -0.0306506 9.35267 O
103 2 0.327313 3.20894 4.89313 14.1206 H
356 2 0.0977865 5.80692 0.389459 12.4972 H
110 2 0.29439 3.99382 5.39268 16.0633 H
123 2 0.0859207 1.80688 1.48036 12.0916 H
124 2 0.0496203 1.39042 2.12838 13.7709 H
125 2 0.10214 2.55972 3.10113 12.7137 H
148 2 0.0515246 2.53166 0.901093 15.4479 H
149 2 0.0513151 4.08493 0.269792 16.0704 H
150 2 0.04917 4.08602 1.23383 14.5343 H
97 2 0.280019 -2.85101 5.968 11.3894 H
7 4 0.688301 2.11742 4.56914 17.7888 Si
250 3 -0.74485 3.64915 6.3978 16.2312 O
206 3 -0.729607 -0.621299 4.26016 13.0505 O
207 3 -0.680664 -2.19128 5.77688 16.2085 O
346 2 0.0457944 -1.02684 3.26056 16.8442 H
221 3 -0.790924 3.39404 1.67532 9.82566 O
223 3 -0.741172 4.47683 1.93089 18.0839 O
224 3 -0.692422 2.7453 3.65969 16.6385 O
225 3 -0.721448 5.78402 2.00911 10.9708 O
231 3 -0.738939 0.719702 3.69812 9.9845 O
234 3 -0.756801 5.26103 3.61529 15.8722 O
44 4 1.03689 3.42971 6.62119 12.4293 Si
236 3 -0.731001 1.16478 5.37732 14.9621 O
238 3 -0.727722 2.14308 6.12472 11.6411 O
239 3 -0.744475 3.78803 4.83919 13.3727 O
232 3 -0.742485 -0.312571 6.57254 10.5631 O
104 2 0.264692 -0.311278 1.15887 10.7952 H
169 2 0.038164 5.97266 -0.0977095 15.0161 H
283 4 0.58457 -0.777299 4.17949 18.2426 Si
359 2 0.0487127 5.52745 0.00590086 16.7614 H
235 3 -0.685669 6.12351 2.89934 13.4233 O
18 4 0.681313 -1.52707 7.50158 6.11573 Si
23 4 1.28551 -2.40031 9.6479 8.01402 Si
25 4 1.08333 -3.43365 12.4293 6.96206 Si
38 4 0.603739 0.809443 8.06144 4.59794 Si
45 4 0.624092 0.613299 8.40889 1.74459 Si
46 4 1.06352 -0.991941 12.1005 4.93105 Si
70 1 -0.1134 -5.02073 12.3065 5.5042 C
113 2 0.0449328 1.79378 8.90033 7.81809 H
79 1 -0.0962571 -1.91616 10.4941 3.67198 C
181 2 0.087833 -4.21139 8.32238 5.95713 H
108 2 0.0353748 1.35147 9.66833 4.8717 H
348 2 -0.0119154 -4.989 9.40159 2.84367 H
338 2 0.0575432 -0.370666 12.8676 0.380502 H
325 2 0.00377763 -5.15371 11.9618 1.65458 H
132 2 0.0172739 -4.54855 12.3887 4.52837 H
133 2 0.0748683 -5.38605 11.3238 5.70398 H
157 2 0.0693811 -2.23465 9.73451 4.35692 H
158 2 0.106679 -1.1012 10.1808 3.06504 H
159 2 0.0244599 -2.7224 11.0065 3.1713 H
353 2 0.0542218 -5.68792 11.1879 8.51434 H
324 1 -0.111955 -6.2061 11.9022 1.8211 C
211 3 -0.74025 -2.34033 8.78775 6.64936 O
213 3 -0.7888 -3.34418 10.9148 7.64272 O
214 3 -0.806258 -3.79338 13.6302 7.9827 O
228 3 -0.646365 0.0744075 7.68492 5.99564 O
240 3 -0.686035 0.0576138 7.86038 3.15377 O
241 3 -0.793178 -0.791304 13.1975 3.73599 O
242 3 -0.741341 -2.12204 12.6974 5.98005 O
243 3 -0.692106 -0.0505756 9.7619 1.00441 O
245 3 -0.631309 -0.428433 10.0518 8.50302 O
99 2 -0.00959467 -4.22028 11.3783 0.0333756 H
247 3 -0.738539 0.302249 11.4013 5.65152 O
354 2 0.0848728 -5.71688 13.0847 5.76817 H
335 1 -0.121702 0.628933 12.488 0.200775 C
352 2 0.0423078 -2.34377 7.6506 1.30714 H
111 2 0.0776423 0.501222 6.98181 0.721842 H
78 1 -0.129646 2.39749 8.26291 1.43992 C
246 3 -0.669205 -0.401443 13.3438 8.51512 O
126 2 0.0200044 -3.5287 7.00951 4.44785 H
152 2 0.0433974 3.34488 7.39365 4.1354 H
321 1 -0.0905018 -2.75557 7.76631 0.30769 C
156 2 -0.000320923 2.73806 7.49387 2.14588 H
155 2 0.0682166 2.43467 7.97303 0.389888 H
322 2 0.0864863 -3.76938 7.4121 0.161746 H
326 2 0.077913 -6.58717 12.58 2.6055 H
128 2 0.087413 -1.94778 7.3241 3.63622 H
84 1 -0.127922 -1.55125 13.401 15.9961 C
21 4 1.0353 -0.91152 7.42685 11.8421 Si
22 4 0.652277 -4.67272 10.9548 16.7873 Si
24 4 0.839633 -5.90803 12.4533 10.658 Si
26 4 0.848063 -2.14411 9.84857 13.1732 Si
279 3 -0.715587 1.67242 9.66938 16.9986 O
28 4 0.63452 -3.5285 12.2522 12.3576 Si
47 4 1.04409 0.365385 10.2836 17.8676 Si
330 2 0.138523 -4.53464 10.5031 9.72692 H
323 2 0.0992732 -2.25071 8.58614 18.1907 H
52 4 0.986796 -1.86544 11.1599 15.903 Si
72 1 -0.0490204 -3.18479 8.28686 14.1254 C
81 1 -0.107362 0.790239 11.8235 10.9041 C
82 1 -0.0892404 -1.76534 13.2507 12.1033 C
114 2 0.303827 -1.73074 9.56522 10.7784 H
253 3 -0.747409 -1.10536 10.4962 17.1918 O
252 3 -0.700428 -1.38786 10.6192 14.3906 O
100 2 0.0857297 -5.6253 11.6449 13.4516 H
101 2 0.0149537 -4.05583 12.8415 13.89 H
357 2 0.099384 -1.6576 13.3289 11.0239 H
115 2 0.317211 1.84924 7.82337 14.0934 H
137 2 0.106575 -3.15446 8.78391 15.0817 H
138 2 0.0720687 -2.42712 7.56449 14.0356 H
139 2 0.112084 -4.13021 8.05685 13.5693 H
251 3 -0.655547 2.72548 8.17373 13.6593 O
96 2 0.267415 -0.506439 9.3626 9.33943 H
208 3 -0.73137 -2.9186 6.90197 11.6645 O
164 2 0.0966833 0.3425 11.0868 11.5216 H
237 3 -0.66055 0.229979 6.93364 17.1747 O
358 2 0.031539 -1.08423 12.6246 12.6529 H
17 4 1.30701 -3.93249 7.63486 10.0116 Si
210 3 -0.855554 -3.09058 8.75692 9.17094 O
254 3 -0.709406 -3.45256 10.8597 15.7754 O
215 3 -0.701661 -1.07774 9.394 11.5133 O
216 3 -0.673742 -5.62192 12.1241 16.1883 O
217 3 -0.663101 -4.49301 12.9812 11.2747 O
218 3 -0.657572 -3.31706 10.6151 12.3625 O
209 3 -0.76661 -0.188158 6.99709 13.2028 O
49 4 0.529943 -0.492512 11.919 9.29961 Si
191 2 0.0701187 -7.08912 13.6102 13.4526 H
328 1 -0.0515333 -5.5531 10.7784 9.50458 C
360 2 0.0215121 -0.50072 13.3981 16.2158 H
339 1 -0.141325 12.0286 0.501424 1.66746 C
2 1 -0.101341 12.5966 0.722606 6.27907 C
3 2 0.025384 11.9996 1.55205 5.9427 H
365 3 -0.68832 12.9308 4.17739 0.900259 O
266 3 -0.684946 7.59978 6.84195 5.37344 O
32 4 1.13062 8.4584 0.341346 7.68887 Si
34 4 1.0572 7.15883 3.12467 6.85178 Si
39 4 1.13556 5.83159 5.12652 8.96896 Si
313 2 0.0338867 11.2584 3.49037 8.26633 H
53 4 0.878726 8.00829 2.67828 3.90259 Si
55 4 0.880079 8.81501 4.22129 1.47616 Si
56 4 1.20306 6.50864 5.65335 5.08682 Si
140 2 0.0336496 10.7868 0.98442 8.94359 H
85 1 -0.0996468 9.66096 1.56164 4.47965 C
88 1 -0.113496 9.24134 5.87182 2.62674 C
90 1 -0.0875918 10.1272 5.32154 6.40701 C
112 2 0.0813577 8.65916 0.81053 1.63204 H
170 2 0.0293723 10.3609 1.54602 3.65604 H
171 2 0.100942 9.1865 0.592829 4.70933 H
172 2 0.0626249 10.05 2.01754 5.39647 H
178 2 0.027513 10.2842 5.78875 2.94437 H
361 2 0.0191429 12.1692 0.808342 0.644449 H
318 1 -0.119865 13.5999 2.7211 4.05685 C
184 2 0.0680259 9.90675 4.82661 5.47546 H
185 2 0.0671739 9.76507 4.75886 7.24785 H
186 2 0.0297874 11.1211 5.68359 6.52792 H
261 3 -0.791135 5.08443 5.88894 5.8728 O
222 3 -0.788392 8.0642 1.80386 7.1734 O
230 3 -0.763308 6.96798 4.32318 7.99509 O
233 3 -0.76372 5.28346 6.56258 8.39083 O
4 2 0.0840527 13.122 0.911403 7.19741 H
256 3 -0.717317 7.74761 3.90932 5.55301 O
258 3 -0.717078 8.04476 3.17675 2.37364 O
259 3 -0.735373 10.1844 3.4509 1.15227 O
260 3 -0.764201 6.04476 5.41505 3.54931 O
188 2 0.0778302 8.85724 6.65976 8.91343 H
1 4 0.639443 14.2008 0.928146 4.91748 Si
349 2 -0.0118733 15.0302 0.493184 1.36068 H
340 2 0.0415556 11.9399 1.31534 2.33702 H
308 4 0.795941 11.4595 3.78156 0.265445 Si
121 2 0.296194 6.96732 4.7744 0.019877 H
320 2 0.0270237 12.532 2.61965 4.01109 H
296 2 0.04214 5.52924 6.51167 0.391382 H
179 2 0.0879822 8.56012 5.78592 3.45543 H
180 2 0.0711458 9.0565 6.69069 1.95046 H
295 2 0.0886413 6.05925 6.87702 2.073 H
12 4 0.936896 13.1233 2.21147 11.0369 Si
20 4 0.751426 11.6084 5.23132 16.1259 Si
263 3 -0.720667 8.20305 4.56147 18.0744 O
54 4 0.611295 11.6189 1.74835 13.56 Si
57 4 1.12441 8.95405 6.34877 17.1016 Si
60 4 0.578718 10.4782 2.57803 16.1516 Si
204 3 -0.819851 13.4415 2.97004 9.67676 O
176 2 0.0218754 13.1944 0.717429 15.323 H
355 2 0.0288461 9.50887 0.420192 10.0838 H
87 1 -0.102646 13.4296 1.49858 14.6062 C
105 2 0.290204 5.43639 4.82878 11.3877 H
106 2 0.0156322 8.34103 1.69987 12.2856 H
117 2 -0.0109024 9.99932 1.09254 16.8473 H
119 2 0.0603507 9.21392 3.76268 16.4377 H
120 2 0.00374509 9.06486 6.37821 12.5187 H
141 2 0.0389087 9.42484 2.03773 9.41102 H
42 4 1.12466 5.53932 4.16949 14.2937 Si
134 2 0.0619717 11.029 6.15259 13.6255 H
310 4 0.267666 11.0955 4.6716 9.58056 Si
135 2 0.0924051 10.297 4.54565 13.9661 H
334 2 0.0265337 7.54023 0.708941 18.02 H
177 2 0.0743381 14.0781 1.26231 13.7635 H
257 3 -0.67909 11.8519 2.59802 12.1225 O
262 3 -0.744533 10.5597 6.15353 16.9867 O
264 3 -0.80663 6.30994 5.2475 11.2012 O
362 2 0.0934671 13.6026 2.46295 15.1096 H
267 3 -0.642282 10.4283 2.28593 14.566 O
268 3 -0.685817 11.8965 3.13741 16.6338 O
269 3 -0.742061 6.63059 5.38108 14.1842 O
312 2 0.0934322 12.0356 4.23175 10.9392 H
270 3 -0.716525 8.3757 6.68473 15.5897 O
316 2 0.0635191 8.66034 5.17273 10.4303 H
36 4 0.689346 6.87295 2.70943 11.9662 Si
61 4 0.992191 6.82807 6.79087 15.0543 Si
136 2 0.0992289 12.1052 4.73244 13.6345 H
311 1 -0.0928615 9.10429 4.25251 10.1652 C
333 2 0.0741557 7.04557 2.03769 16.8575 H
71 1 -0.0676941 11.1862 5.17462 14.0055 C
314 2 0.036539 9.29692 3.58671 10.9846 H
331 1 -0.0961549 7.44154 1.7649 17.8313 C
203 3 -0.762305 14.4128 1.39602 11.5978 O
73 1 -0.124014 9.75802 1.0459 9.28243 C
315 2 0.0876598 8.63492 3.83439 9.28204 H
332 2 0.089695 8.26286 2.35924 18.2104 H
317 3 -0.726632 11.3239 6.26244 9.17836 O
58 4 1.08218 6.16283 6.8183 11.4608 Si
244 3 -0.792276 4.03886 8.44613 6.56133 O
48 4 1.02691 3.34516 9.64053 7.44394 Si
50 4 1.0765 1.85083 11.9071 5.94469 Si
83 1 -0.1311 2.8237 12.3263 4.06714 C
89 1 -0.0794304 10.0824 8.48883 5.649 C
294 2 0.0416711 4.80894 7.972 1.2296 H
337 2 0.0503174 1.20415 12.2211 1.07113 H
248 3 -0.788392 2.96407 11.0803 6.72919 O
166 2 0.0425149 1.9842 12.4006 3.38747 H
167 2 0.0367304 3.48788 11.458 3.93088 H
273 3 -0.697365 4.2028 9.76991 8.82146 O
183 2 0.0638699 9.87623 8.42608 4.59832 H
168 2 0.0321899 3.34488 13.2381 4.22821 H
6 3 -0.645876 6.5081 13.6063 3.79432 O
187 2 0.057285 8.84034 8.38903 8.40872 H
59 4 0.328373 8.87735 7.00637 6.3267 Si
306 3 -0.654626 6.33655 11.8897 1.69893 O
286 4 0.56893 6.10774 13.4659 2.21432 Si
307 3 -0.628421 8.44986 10.3991 4.25232 O
350 2 0.196502 3.43774 11.7981 0.0708029 H
249 3 -0.779703 1.68148 13.3563 6.69666 O
189 2 0.10593 7.31551 7.37563 8.33075 H
5 2 0.0623202 4.43407 13.6142 6.1334 H
285 4 0.695693 8.75366 10.0632 2.70685 Si
182 2 0.070484 9.6568 9.36966 6.12108 H
287 4 1.08229 7.21329 8.59465 0.566877 Si
288 4 0.83236 5.78174 11.253 0.269225 Si
289 4 0.339632 6.90306 10.4248 4.68798 Si
290 1 -0.120779 5.62494 7.27497 1.15717 C
291 1 -0.0694385 5.53191 9.12965 3.80568 C
292 1 -0.0623928 6.78488 9.9098 6.68367 C
293 2 0.110685 6.13641 11.9352 4.5567 H
327 2 0.0739102 8.53409 11.8895 0.914864 H
278 3 -0.662567 3.79112 10.8358 0.234031 O
154 2 0.0690472 2.81828 9.2269 1.66729 H
297 2 0.0662691 5.43079 9.47063 2.79236 H
298 2 0.0645649 4.65685 9.27575 4.4466 H
299 2 0.10553 6.03267 8.17434 3.95967 H
300 2 0.0851231 6.77515 8.85164 6.57003 H
301 2 0.0912815 5.85052 10.3459 7.04383 H
302 2 0.0546589 7.68184 10.321 7.15922 H
41 4 1.0642 4.53833 6.94075 6.96808 Si
304 3 -0.717911 7.90232 8.90049 1.99391 O
91 1 -0.0590987 8.40331 7.42248 8.34036 C
193 2 0.0847849 3.65264 12.7316 8.41833 H
341 2 0.0245219 3.50441 13.6329 1.88126 H
343 2 0.033001 7.09902 13.0963 17.2351 H
62 4 1.03967 8.85204 7.89781 11.7395 Si
63 4 0.634527 4.68912 10.8717 9.88537 Si
64 4 1.42564 7.39906 9.38573 13.8072 Si
65 4 0.872822 3.2739 9.93699 16.8132 Si
66 4 1.02783 6.83456 11.4689 11.7141 Si
165 2 0.0222274 0.715906 12.8185 11.3323 H
280 3 -0.760463 8.39676 11.959 11.7668 O
192 2 0.00288535 3.37741 12.9258 10.1738 H
94 1 -0.061269 3.78464 10.1441 11.6537 C
95 1 -0.122245 3.25345 11.4642 15.4385 C
173 2 0.0129807 3.97086 12.9372 13.4221 H
344 2 0.00268357 5.39392 12.7434 16.7493 H
122 2 -0.00391293 6.02314 12.8646 12.3691 H
265 3 -0.762385 4.59947 7.26689 11.5243 O
336 2 0.00977418 1.4619 12.8015 17.7366 H
363 2 0.0357994 6.74988 12.9993 14.3242 H
92 1 -0.113027 7.76156 13.3202 14.3747 C
329 2 0.103914 9.01805 10.095 9.86281 H
93 1 -0.124836 4.09874 12.7946 9.38555 C
196 2 0.0269271 3.56212 10.9831 12.2682 H
197 2 0.151469 4.57046 9.55336 12.1226 H
198 2 0.0650117 2.27553 11.2291 15.0239 H
199 2 0.0677166 4.12733 11.2096 14.8636 H
200 2 0.00879988 3.26939 12.4246 15.9297 H
175 2 0.0422819 2.25908 13.6442 13.4437 H
271 3 -0.822223 10.0573 8.15115 10.6697 O
342 1 -0.125587 6.35156 12.3125 16.9635 C
274 3 -0.816077 6.46162 8.10026 14.152 O
275 3 -0.770446 8.76871 8.90187 12.9756 O
276 3 -0.703898 8.04165 10.2184 15.0814 O
277 3 -0.684048 4.23418 8.88602 16.1585 O
116 2 0.239027 6.51341 9.05034 9.89247 H
364 2 0.106028 6.79471 11.6014 16.296 H
272 3 -0.788995 7.35468 7.7582 10.8999 O
281 3 -0.733937 6.27031 10.9917 10.2657 O
282 3 -0.796455 6.48907 10.5623 12.9903 O
305 3 -0.702846 6.81943 9.7878 18.2274 O
51 4 0.812257 3.92712 7.64567 15.2063 Si
303 3 -0.753366 8.57015 7.71509 17.9784 O
195 2 0.0985662 2.92821 9.58125 11.3477 H
27 4 0.690169 8.83403 11.6584 14.9682 Si
163 2 0.0275981 1.77718 11.5526 10.554 H
98 2 0.0997037 9.9634 9.37993 16.8546 H
194 2 0.0415175 5.01397 13.3526 9.43598 H
86 1 -0.138102 3.25362 13.6732 13.0496 C
174 2 0.020689 3.28062 13.6653 11.9637 H
118 2 0.0096889 5.99781 6.84868 16.5536 H
ITEM: TIMESTEP
100
ITEM: NUMBER OF ATOMS
365
ITEM: BOX BOUNDS xy xz yz pp pp pp
-7.3653559999999985e+00 1.5563499999999999e+01 -7.3653559999999985e+00
-1.3819999999999999e-01 1.3846299999999999e+01 2.4629999999999999e-01
0.0000000000000000e+00 1.8322199999999999e+01 -1.3819999999999999e-01
ITEM: ATOMS id type q x y z element
16 4 1.01729 -0.542752 3.4536 9.05723 Si
255 3 -0.735856 6.5789 1.85912 4.19001 O
153 2 0.0294982 2.23298 6.45904 3.54402 H
8 2 0.0859859 2.94758 1.00603 0.049359 H
11 4 1.25725 2.84875 0.762222 8.5029 Si
13 4 1.22648 0.959646 2.27534 6.67776 Si
161 2 0.0574584 2.1679 5.42618 7.96063 H
29 4 1.06191 6.07586 0.602632 3.3187 Si
30 4 0.477229 2.44024 3.13638 3.66226 Si
31 4 1.08904 5.58938 2.22425 0.788415 Si
37 4 1.11066 4.96707 4.52298 2.62977 Si
351 2 0.0490196 -1.3347 2.75784 2.93995 H
69 1 -0.101403 -1.58159 5.63491 7.34074 C
74 1 -0.0889332 2.36677 1.01171 3.55479 C
75 1 -0.0584835 5.03226 2.55435 6.4697 C
151 2 0.105243 2.43872 6.3056 5.3625 H
309 2 0.0436607 -0.217398 5.47033 2.97116 H
102 2 0.0230238 1.32893 3.65775 2.39739 H
107 2 -0.0383904 4.00324 5.69318 1.80855 H
109 2 0.300362 2.49501 3.92761 5.82176 H
319 2 0.0549881 -0.766555 3.51817 4.48718 H
347 2 0.0912791 -0.330715 5.06664 2.23793 H
129 2 0.034639 -2.57853 5.32411 7.07575 H
130 2 0.0789737 -1.48792 5.9506 8.35415 H
142 2 0.0728984 2.66951 0.66796 4.53415 H
143 2 0.0490856 3.06368 0.742287 2.78098 H
144 2 0.0687941 1.33999 0.747437 3.32659 H
145 2 0.115938 5.1646 1.54747 6.09223 H
146 2 0.1087 4.67308 3.21911 5.68943 H
147 2 0.0861373 4.55869 2.63741 7.43043 H
10 3 -0.677461 0.421431 4.68492 0.247487 O
284 2 0.0591279 2.46149 1.48908 1.01521 H
127 2 0.0277944 -1.82778 5.94133 4.19796 H
131 2 0.0569889 -0.756677 5.03173 6.96202 H
201 3 -0.692038 0.383794 1.23263 5.49748 O
202 3 -0.818947 2.34633 1.75155 7.31218 O
205 3 -0.804004 -0.233291 2.73468 7.63408 O
219 3 -0.66957 1.65431 3.83717 5.39772 O
220 3 -0.783316 5.40259 1.00805 1.85211 O
226 3 -0.700496 3.92375 3.73836 3.6103 O
80 1 -0.10322 2.03991 6.28598 8.6014 C
162 2 0.0685108 2.96185 6.65873 9.04021 H
68 1 -0.123723 -2.46197 6.77985 4.47272 C
9 2 0.0202335 3.08499 5.5745 0.26363 H
126 2 0.0134965 -3.42979 6.53381 4.91549 H
318 1 -0.122562 -1.5397 2.96643 3.99174 C
365 3 -0.723432 -2.21173 3.99258 0.504296 O
14 4 0.58854 0.128126 3.303 11.9577 Si
15 4 0.674096 -1.35041 6.36359 17.3538 Si
19 4 1.13804 -0.22255 5.55761 13.8519 Si
33 4 1.09523 4.59954 2.60223 10.1254 Si
35 4 0.966908 4.01266 2.6412 16.599 Si
40 4 0.861547 1.04695 5.66687 10.3838 Si
208 3 -0.728101 -2.90506 6.78127 11.6791 O
43 4 0.796079 1.37545 6.39496 16.1838 Si
229 3 -0.738234 4.51668 4.09545 9.37438 O
67 1 -0.076094 1.64545 2.33165 12.9262 C
76 1 -0.141233 3.55143 0.964173 15.3172 C
345 2 0.269745 0.734041 0.602301 10.0766 H
235 3 -0.794488 6.06762 2.91167 13.5175 O
103 2 0.300868 3.07801 4.77954 14.325 H
356 2 0.054812 5.95216 0.40234 13.0529 H
110 2 0.302898 3.88304 5.41233 16.0534 H
123 2 0.0640242 1.37342 1.27852 13.0129 H
124 2 0.0713482 1.6916 2.84487 13.8821 H
125 2 0.0810961 2.45381 2.54335 12.2231 H
148 2 0.0335312 2.5964 1.28228 14.9428 H
149 2 0.0505261 3.43307 0.0400416 15.8898 H
150 2 0.0384202 4.36635 1.00793 14.6154 H
97 2 0.278319 -2.5844 5.81241 11.5318 H
7 4 0.615011 2.10284 4.58616 17.7522 Si
250 3 -0.75047 3.60136 6.42774 16.3595 O
206 3 -0.761728 -0.593305 4.26558 13.0394 O
207 3 -0.677353 -2.17611 5.98192 16.0315 O
346 2 0.019151 -0.505115 3.14024 16.4399 H
221 3 -0.748697 3.37857 1.65538 9.77472 O
223 3 -0.751155 4.55897 2.32477 18.139 O
224 3 -0.697476 2.62191 3.48536 16.6315 O
225 3 -0.742388 6.01962 2.13001 10.7926 O
231 3 -0.712653 0.741066 3.58414 9.99368 O
234 3 -0.797964 5.1538 3.66436 15.9193 O
44 4 1.11995 3.30864 6.49761 12.5058 Si
236 3 -0.760552 0.971767 5.41565 14.9363 O
238 3 -0.749219 2.05323 5.89824 11.6113 O
239 3 -0.741798 3.88222 5.18538 13.7125 O
232 3 -0.741975 -0.337971 6.43106 10.5682 O
104 2 0.254279 -0.179573 1.16289 10.6783 H
283 4 0.654519 -0.722262 4.05047 17.9038 Si
18 4 0.713105 -1.4309 7.36401 6.16312 Si
23 4 1.31161 -2.40888 9.60994 8.06458 Si
25 4 1.16834 -3.26904 12.3199 6.93714 Si
38 4 0.583573 0.796166 8.2873 4.71437 Si
45 4 0.670784 0.605096 8.39129 1.7969 Si
46 4 0.852066 -1.05026 12.0338 4.84182 Si
70 1 -0.11243 -5.06818 12.0359 5.77904 C
113 2 0.0128383 2.03004 9.21098 8.4229 H
79 1 -0.0931806 -1.88138 10.4159 3.84706 C
181 2 0.060243 -4.40054 8.23275 6.17903 H
108 2 0.224135 0.736754 9.9867 5.17587 H
348 2 -0.0164717 -5.0373 9.36608 2.93538 H
338 2 0.0494789 -0.256094 12.8176 0.589358 H
325 2 0.00670741 -5.13654 11.8042 1.80448 H
132 2 0.0216115 -4.61442 12.2163 4.81289 H
133 2 0.0536727 -5.32692 11.0114 6.04178 H
157 2 0.0947762 -1.38386 9.65775 4.40122 H
158 2 0.0962598 -1.6076 10.4621 2.77832 H
159 2 0.0163615 -2.91166 10.4546 4.08801 H
353 2 0.0643398 -5.35752 11.1277 8.49789 H
324 1 -0.104106 -6.20258 11.6425 1.59747 C
211 3 -0.752345 -2.2138 8.63749 6.75857 O
213 3 -0.842848 -3.15122 11.0163 7.87083 O
214 3 -0.756139 -3.72047 13.5432 7.90134 O
228 3 -0.644396 0.151467 7.59412 6.03822 O
240 3 -0.676564 -0.0132716 8.28634 3.2829 O
241 3 -0.745827 -0.770126 13.1156 3.60992 O
242 3 -0.77279 -2.13276 12.6095 5.85279 O
243 3 -0.703988 -0.0514259 9.63562 1.06988 O
245 3 -0.642348 -0.36885 9.94426 8.4772 O
77 1 -0.0673413 2.37954 6.95426 4.49277 C
247 3 -0.693183 0.668631 10.9879 5.69253 O
354 2 0.0776229 -5.77734 12.7927 6.10223 H
335 1 -0.133118 0.662448 12.4231 0.198271 C
352 2 0.0278204 -2.80914 7.49989 1.10655 H
111 2 0.0567671 0.0486955 6.98086 1.00668 H
78 1 -0.127672 2.48132 8.41046 1.629 C
246 3 -0.660311 -0.407856 13.2273 8.39069 O
323 2 0.130801 -1.83214 8.84935 0.399152 H
152 2 0.0700816 3.172 7.68842 4.47857 H
321 1 -0.075408 -2.48391 8.00635 0.21627 C
156 2 -0.000976579 2.85749 7.5284 2.09326 H
155 2 0.0955957 2.76031 8.56132 0.598136 H
128 2 0.0605458 -2.49092 7.56829 3.74967 H
326 2 0.0809286 -6.83078 12.4594 1.88136 H
160 2 0.0681807 1.38111 7.02374 8.18769 H
99 2 -0.0122311 -4.48102 11.2638 0.109281 H
84 1 -0.13125 -1.38805 13.1433 16.0358 C
21 4 0.966966 -1.03554 7.41476 11.7457 Si
22 4 0.596689 -4.73359 10.8644 16.8099 Si
24 4 0.854494 -5.75062 12.42 10.7061 Si
26 4 0.854429 -2.21156 9.85566 13.111 Si
279 3 -0.697449 1.62409 9.53129 17.0896 O
28 4 0.679906 -3.43492 12.4531 12.4426 Si
47 4 1.02601 0.395455 10.2121 17.9081 Si
330 2 0.136713 -4.58695 10.2849 9.89939 H
359 2 0.0202524 -1.64067 13.2813 17.0498 H
52 4 0.976981 -1.87679 10.9978 15.8815 Si
72 1 -0.0642579 -3.34973 8.36713 14.0279 C
81 1 -0.113122 0.813928 11.8997 10.8587 C
82 1 -0.0949929 -1.63027 13.4157 12.3772 C
114 2 0.310855 -1.87547 9.45699 10.631 H
253 3 -0.735055 -0.995388 10.2756 17.0607 O
252 3 -0.652229 -1.3373 10.7258 14.2425 O
100 2 0.0752127 -5.23218 11.1417 13.7984 H
101 2 0.0022619 -3.99142 12.7978 14.0369 H
357 2 0.108809 -1.58139 13.7522 11.3503 H
115 2 0.287133 1.71124 7.45313 14.0423 H
137 2 0.0950296 -4.00189 8.72319 14.79 H
138 2 0.108188 -2.68734 7.52786 14.2857 H
139 2 0.0792422 -3.89833 8.26848 13.1136 H
251 3 -0.647978 2.67156 8.00211 13.8044 O
96 2 0.294624 -0.0802521 9.49978 9.31072 H
212 3 -0.665619 -6.54913 13.686 9.37484 O
164 2 0.103015 0.407487 11.1714 11.5728 H
322 2 0.0765927 -3.01615 8.11662 17.837 H
358 2 0.0534976 -0.818262 12.7916 12.7647 H
17 4 1.15982 -3.93028 7.63107 10.0233 Si
210 3 -0.855801 -2.92611 8.76913 9.31419 O
254 3 -0.726047 -3.44998 10.7461 15.7975 O
215 3 -0.654676 -1.09704 9.41994 11.449 O
216 3 -0.64657 -5.82804 12.0121 16.398 O
217 3 -0.655313 -4.4344 13.1079 11.3326 O
218 3 -0.688459 -3.17494 10.8757 12.3665 O
209 3 -0.737114 -0.507328 7.10689 13.3104 O
49 4 0.551512 -0.389899 11.8039 9.17283 Si
169 2 0.0287398 -2.06905 13.6501 15.3724 H
328 1 -0.0557793 -5.4877 10.7336 9.4876 C
360 2 0.0356365 -0.344518 13.2513 15.7594 H
237 3 -0.666193 0.169761 6.83311 17.156 O
339 1 -0.148881 12.1037 0.30375 1.73085 C
2 1 -0.0973684 12.8479 0.68744 6.49202 C
3 2 0.0416002 11.8983 1.13544 6.29629 H
121 2 0.314408 7.19998 4.94318 0.170833 H
349 2 -0.0120337 14.9089 0.631051 1.48008 H
32 4 1.06782 8.43361 0.415124 7.77315 Si
34 4 1.01321 7.04493 3.16054 6.88717 Si
39 4 1.03275 5.85684 5.05619 8.94693 Si
313 2 0.0505405 11.1477 3.51629 8.48743 H
53 4 0.891263 7.8823 2.74702 3.93625 Si
55 4 0.825856 9.0626 4.18212 1.55729 Si
56 4 1.20194 6.34737 5.7372 5.01015 Si
140 2 0.0359055 10.4533 1.57011 9.06093 H
85 1 -0.103645 9.60157 1.68374 4.48311 C
88 1 -0.112633 9.48724 5.98642 2.41962 C
90 1 -0.0803557 9.82568 5.17418 6.49603 C
112 2 0.0806928 8.60236 0.963909 1.93786 H
170 2 0.0348477 10.2743 1.80284 3.61682 H
171 2 0.0828878 9.28559 0.650703 4.63333 H
172 2 0.0634877 9.90907 2.16247 5.41927 H
178 2 0.0160166 10.5209 5.83651 2.64366 H
361 2 0.0261809 12.1763 0.867168 0.791475 H
332 2 0.0835639 8.28395 2.193 0.17755 H
184 2 0.0434399 9.98184 4.796 5.50179 H
185 2 0.111667 9.11723 4.59369 7.0575 H
186 2 0.0533122 10.7077 5.48668 7.04376 H
261 3 -0.797473 4.92493 6.14283 5.72268 O
222 3 -0.751411 8.04734 1.88728 7.21975 O
230 3 -0.75568 7.05471 4.24665 8.12767 O
233 3 -0.764474 5.39428 6.59587 8.36876 O
4 2 0.0964502 13.4097 1.15198 7.28271 H
256 3 -0.717289 7.51482 3.98021 5.54255 O
258 3 -0.693272 8.07246 3.17281 2.3796 O
259 3 -0.728628 10.3751 3.32217 1.09555 O
260 3 -0.773168 6.05237 5.39482 3.44252 O
227 3 -0.724701 5.67639 3.76091 1.42266 O
1 4 0.593332 14.1621 1.11123 4.87695 Si
179 2 0.0788987 8.85098 6.07017 3.29505 H
340 2 0.0331109 11.7762 0.940619 2.56055 H
308 4 0.831002 11.5511 3.73444 0.0972523 Si
180 2 0.102609 9.28922 6.7069 1.62466 H
320 2 0.0231728 12.7405 3.25891 4.2314 H
12 4 0.950887 13.0441 2.16996 11.0054 Si
20 4 0.724385 11.6076 5.25867 16.0059 Si
263 3 -0.696826 8.39202 4.68669 18.1858 O
54 4 0.660302 11.5128 1.81218 13.5467 Si
57 4 1.21375 8.99763 6.44417 17.1552 Si
60 4 0.526431 10.3469 2.54515 16.0727 Si
204 3 -0.7646 13.2578 3.0228 9.59569 O
176 2 0.0518213 13.119 1.53374 15.547 H
296 2 0.0317354 6.11286 6.4082 18.3196 H
87 1 -0.0837162 13.2974 2.00596 14.5754 C
105 2 0.278916 5.64 4.79023 11.5907 H
106 2 0.0107047 8.32434 1.82327 12.2167 H
117 2 -0.0107257 10.2608 1.01443 16.9159 H
119 2 0.0735318 9.09368 3.65005 16.5402 H
120 2 -0.0197783 9.21022 6.29552 12.0388 H
141 2 0.0390063 9.17981 1.19513 10.3 H
42 4 1.27294 5.61665 4.117 14.4692 Si
134 2 0.0548882 10.946 6.25043 13.7512 H
310 4 0.292914 10.9498 4.67993 9.79595 Si
135 2 0.0898239 10.162 4.60293 14.1 H
334 2 0.00629817 7.4416 0.871451 17.6218 H
177 2 0.0548668 14.0513 1.47367 14.0065 H
257 3 -0.73808 11.9537 2.47361 12.1629 O
262 3 -0.754003 10.5617 5.98318 16.996 O
264 3 -0.816963 6.38385 5.28316 11.1431 O
362 2 0.107364 13.441 3.08698 14.5715 H
267 3 -0.640203 10.2276 2.37876 14.4155 O
268 3 -0.675376 11.8263 3.11946 16.447 O
269 3 -0.794316 6.36924 5.53074 14.4211 O
312 2 0.0890963 11.5184 4.29557 11.459 H
270 3 -0.786529 8.20012 6.64318 15.7341 O
316 2 0.0907737 8.55872 5.23868 10.385 H
36 4 0.733413 6.77316 2.70254 12.0895 Si
317 3 -0.683481 11.0744 6.22892 9.23796 O
136 2 0.0812663 11.9187 4.74917 13.5042 H
311 1 -0.0778148 9.03305 4.25408 10.4259 C
333 2 0.0809694 7.43676 2.641 17.1678 H
71 1 -0.0808491 11.0648 5.1942 13.9987 C
314 2 0.0361082 9.09222 3.85058 11.4176 H
331 1 -0.104652 7.61614 1.89487 17.9403 C
203 3 -0.735243 14.3997 1.39479 11.493 O
73 1 -0.125019 9.77012 0.86031 9.4509 C
315 2 0.0921902 8.64096 3.59704 9.69586 H
58 4 1.24636 6.05499 6.82437 11.3813 Si
244 3 -0.777707 3.87153 8.45836 6.60281 O
48 4 1.05489 3.49422 9.7313 7.49846 Si
50 4 1.02922 1.97501 12.0193 6.03957 Si
83 1 -0.120133 2.68325 12.3481 4.10761 C
89 1 -0.0871752 10.049 8.4642 5.57722 C
294 2 0.0795465 4.78316 7.96995 0.360178 H
337 2 0.0381148 1.44444 12.2895 0.929552 H
248 3 -0.791992 3.09877 11.0654 6.67301 O
166 2 0.0490946 1.89291 12.85 3.58569 H
167 2 0.0407211 2.88488 11.3662 3.7769 H
273 3 -0.717835 4.6782 9.82177 8.6 O
183 2 0.0434939 10.1645 8.30398 4.51145 H
168 2 0.0441869 3.57222 12.9809 4.24952 H
6 3 -0.655438 6.25842 13.6374 3.85838 O
187 2 0.0431767 8.39752 8.76226 8.19734 H
59 4 0.296711 8.81737 6.99793 6.3013 Si
306 3 -0.712371 6.21177 12.0652 1.64405 O
286 4 0.659722 5.99346 13.5166 2.2545 Si
307 3 -0.620765 8.35036 10.4621 4.373 O
341 2 0.0244889 3.75547 13.2696 1.70898 H
249 3 -0.76826 1.75014 13.4761 6.76224 O
189 2 0.120797 7.2774 7.30952 8.33093 H
5 2 0.0555831 5.12599 13.4475 6.49452 H
285 4 0.656587 8.72264 10.0422 2.84055 Si
182 2 0.0775573 9.57713 9.39618 5.80859 H
287 4 0.984003 7.28518 8.61677 0.60806 Si
288 4 0.893764 5.79548 11.2444 0.33448 Si
289 4 0.333243 6.84581 10.4634 4.87694 Si
290 1 -0.112643 5.57489 7.29855 0.688069 C
291 1 -0.0514078 5.54972 9.14146 3.86824 C
292 1 -0.057018 6.86543 10.1377 6.89698 C
293 2 0.141637 6.38678 12.0863 4.61472 H
327 2 0.0756976 8.87233 11.1961 0.614604 H
278 3 -0.668991 3.81845 10.7749 0.274772 O
154 2 0.044214 2.74979 9.29685 2.21278 H
297 2 0.0809866 5.57139 9.56513 2.8503 H
298 2 0.0681395 4.59228 9.18159 4.37878 H
299 2 0.125252 6.05659 8.18161 3.93942 H
300 2 0.0940401 6.57754 9.09506 7.11295 H
301 2 0.0904602 6.11446 10.8531 7.23358 H
302 2 0.0471351 7.86495 10.3875 7.21024 H
41 4 1.05123 4.53531 7.00003 7.03215 Si
304 3 -0.678114 7.75655 8.91486 2.15155 O
91 1 -0.0569744 8.25507 7.68996 8.18233 C
193 2 0.0801527 3.73777 12.4361 8.23742 H
350 2 0.209788 3.42658 11.7065 0.32932 H
188 2 0.115065 8.9798 7.16993 8.81626 H
194 2 0.0504352 5.18497 13.3154 8.88631 H
266 3 -0.658845 7.44336 6.90516 5.35243 O
295 2 0.0560954 5.68083 7.05385 1.73871 H
93 1 -0.126174 4.30146 12.74 9.10592 C
343 2 0.0712299 7.27306 12.7308 17.2909 H
62 4 1.16994 8.77136 7.88135 11.5313 Si
63 4 0.585448 4.91051 10.876 9.78288 Si
64 4 1.51308 7.49028 9.32933 13.7162 Si
65 4 0.799986 3.20129 9.93893 16.8085 Si
66 4 1.06178 6.96648 11.4379 11.7704 Si
165 2 0.0267411 0.789625 12.925 11.156 H
280 3 -0.751167 8.45375 12.0831 11.8824 O
192 2 0.0034872 3.71695 13.0712 9.92256 H
94 1 -0.0897021 3.64316 10.3545 11.4961 C
95 1 -0.117791 3.30092 11.383 15.371 C
173 2 0.00762241 3.89357 13.256 14.0445 H
344 2 0.000859324 5.54742 13.1483 17.1581 H
122 2 -0.0122121 5.92627 12.7565 12.2134 H
265 3 -0.824118 4.53342 7.13138 11.6915 O
336 2 0.00732207 1.1953 12.686 17.5648 H
363 2 0.042284 6.61607 12.5259 14.6244 H
92 1 -0.106649 7.55716 13.0796 14.6266 C
329 2 0.0886817 8.89728 10.1983 9.65153 H
355 2 0.0232148 2.40885 13.7013 9.57108 H
196 2 0.0170942 3.36511 11.3137 11.9071 H
197 2 0.134451 4.30913 9.80082 12.105 H
198 2 0.062565 2.29677 11.3405 14.9501 H
199 2 0.0681326 4.18342 11.1708 14.7732 H