ITEM: TIMESTEP
0
ITEM: NUMBER OF ATOMS
373
ITEM: BOX BOUNDS xy xz yz pp pp pp
-1.0794400000000000e+01 2.0438599999999997e+01 -1.0794400000000000e+01
-3.3405999999999998e+00 1.4057499999999999e+01 1.3894000000000000e+00
0.0000000000000000e+00 1.7550000000000001e+01 -3.3405999999999998e+00
ITEM: ATOMS id type x y z q
179 4 -0.184066 1.86091 8.70248 1.16818
183 3 0.984519 1.04673 7.95069 -0.767421
189 2 -0.0436677 3.41444 8.11145 -0.0285316
192 2 0.837838 2.13398 5.25863 0.155068
199 4 -0.638447 4.76602 1.23627 0.798794
200 4 -2.05969 5.29376 4.06654 1.0098
202 2 0.846484 5.57466 1.51378 -0.0418069
203 1 -0.139329 2.88061 1.37296 -0.648923
205 3 -1.7082 5.07587 2.39898 -0.719224
210 2 -1.11051 2.31091 1.46732 0.159798
211 2 0.4981 2.81592 2.30565 0.145707
212 2 0.430798 2.63032 0.43209 0.157443
322 2 -3.98503 4.78532 5.59263 0.144109
325 1 -0.566951 4.53809 4.99928 -0.661056
326 2 -0.624959 4.92136 6.06248 0.138824
327 2 0.352452 4.90544 4.44302 0.152203
328 2 -0.714581 3.41614 4.91959 0.137827
337 2 0.923168 -1.14134 6.40998 -0.0324565
359 2 -0.372616 5.50357 8.26065 0.133902
3 4 5.0663 1.37932 2.58108 1.20082
4 4 6.94603 -0.705922 6.68537 0.700409
5 4 6.7465 1.9161 5.0537 1.23439
7 4 4.02088 4.25871 2.38371 1.03879
9 4 5.58875 3.42272 7.47184 1.28415
10 4 3.42503 5.35789 6.43703 1.06821
15 4 5.61036 6.13101 4.30183 1.57092
33 3 6.3038 0.815076 1.71086 -0.792127
34 2 3.84413 0.218784 2.58051 -0.0412441
35 2 5.71388 -0.389497 7.82378 -0.0576388
36 3 5.53347 1.51614 4.09439 -0.824901
37 3 7.33178 0.587383 5.83385 -0.775848
41 3 4.42708 2.74483 1.98023 -0.801414
42 1 3.50098 5.2374 0.829703 -0.668397
43 2 2.60812 4.23688 3.3486 -0.0504666
45 2 5.22082 2.03647 8.34968 -0.0483691
46 3 6.28988 2.92551 6.16314 -0.811276
47 2 1.99461 4.77937 5.69402 -0.0355807
48 3 4.1686 4.13019 7.15966 -0.816559
62 3 5.16974 5.09227 3.09314 -0.809131
63 3 4.33315 6.1275 5.38553 -0.804373
64 2 6.74615 5.34735 0.615108 0.000868021
68 3 6.54782 4.30895 8.40579 -0.820875
71 3 7.02071 5.65746 4.96071 -0.824477
117 2 2.8874 4.5371 0.1899 0.154729
118 2 4.46444 5.56258 0.333688 0.204161
119 2 2.90734 6.11462 1.23626 0.176486
124 2 2.18206 5.98521 8.50591 0.170299
178 4 1.73939 0.315596 6.75837 0.698709
181 1 1.7299 1.43749 5.26556 -0.669654
190 2 1.72138 0.64175 4.43167 0.112262
191 2 2.74485 1.96199 5.40606 0.159634
320 2 3.29933 -0.281784 7.13394 -0.058895
17 4 10.2766 3.7849 7.22244 0.933287
19 4 8.39303 5.95303 5.73158 1.36821
61 2 8.0047 2.60763 4.16923 -0.00682159
65 1 9.56093 2.54519 8.57564 -0.65263
66 1 11.2541 2.80182 5.8248 -0.647538
67 1 11.4331 5.16705 8.04953 -0.650222
72 3 9.13303 4.59301 6.48359 -0.750151
138 2 11.1293 -0.997778 8.37708 0.143797
139 2 12.9542 -1.31839 8.05998 0.186829
147 2 9.82684 1.52265 8.17149 0.154347
148 2 8.44769 2.73584 8.61133 0.207401
150 2 10.7751 1.77709 5.82463 0.159213
151 2 12.3343 2.79186 6.14985 0.146799
152 2 11.0839 3.37046 4.86241 0.157191
153 2 11.4778 6.00809 7.29547 0.172182
154 2 12.4309 4.67677 8.22618 0.134053
157 2 9.98712 5.44922 3.87846 0.14654
223 1 12.7592 5.89947 1.05801 -0.615282
225 2 12.0668 5.45866 1.93181 0.127911
227 2 12.9513 5.22478 0.153635 0.175931
259 4 12.2104 1.73636 0.747538 0.793183
262 2 10.8002 2.14879 1.63266 -0.0298612
319 2 13.2958 1.49265 8.0971 0.159571
329 1 8.86277 -0.378151 2.53557 -0.657695
330 2 8.54029 -0.0731347 3.57204 0.17827
331 2 9.52556 0.39162 2.03829 0.16063
342 2 13.5479 2.73585 2.58684 0.153876
344 1 12.3002 -0.156254 1.02027 -0.654029
365 2 8.23192 -1.21737 7.68584 -0.0463038
182 3 17.3104 1.37562 8.46895 -0.753587
321 1 15.334 4.39512 4.5671 -0.651264
177 4 15.7091 1.43724 7.78745 0.952922
184 2 15.7521 2.89653 6.92352 -0.0370799
304 4 15.2942 -0.479334 5.31353 1.00986
305 1 14.9693 0.863697 4.00959 -0.65562
306 3 15.4143 0.296077 6.72069 -0.783594
307 2 13.8322 0.914961 4.02315 0.168367
308 2 15.3795 0.396629 3.0624 0.12448
309 2 15.4728 1.88116 4.26772 0.144874
323 2 15.4895 3.24343 4.56308 0.143882
324 2 14.5983 4.72654 3.77507 0.174036
340 1 13.7429 2.70254 1.47571 -0.64453
341 2 14.6656 2.11349 1.20906 0.162236
343 2 13.736 3.72773 1.00406 0.185704
109 2 -5.26204 11.896 0.914969 0.152486
110 2 -5.04649 12.1491 2.7658 0.14809
219 2 -5.2477 9.03717 4.016 0.139527
221 2 -5.00842 7.21669 4.48292 0.172259
243 1 -5.66916 10.5645 8.56239 -0.653847
247 2 -5.33225 9.50626 8.21926 0.137077
248 2 -4.80894 11.2907 8.71958 0.138661
249 2 -6.53852 10.996 7.97677 0.149861
257 2 -9.41028 13.6695 0.408488 0.15064
353 2 -5.3805 12.3759 5.14049 0.139356
226 2 -5.15169 6.9967 1.39953 0.0697387
1 4 -3.52058 13.6312 1.39767 1.08327
14 4 0.781541 11.0661 6.96265 0.951828
31 1 -4.53247 11.9968 1.77317 -0.66862
55 1 1.31375 7.58021 3.93497 -0.678083
57 2 0.119942 9.86274 2.76887 -0.0417042
58 1 1.16115 12.2907 8.34961 -0.657979
59 1 -0.0654248 11.9665 5.51804 -0.664694
60 1 -0.327141 9.65402 7.54988 -0.655026
108 2 -3.77466 11.1613 1.79981 0.1413
135 2 0.935698 6.81139 3.19526 0.151116
136 2 0.537476 7.86654 4.71328 0.164049
141 2 -1.01889 12.4179 5.92221 0.144642
142 2 -0.267348 11.1917 4.72428 0.147342
143 2 0.662704 12.7541 5.16724 0.185939
144 2 -1.23187 9.63101 6.87495 0.147068
145 2 -0.596001 9.87328 8.6231 0.149028
146 2 0.30916 8.72587 7.44616 0.173222
201 4 -2.79926 8.39687 4.12293 0.787845
206 1 -2.59018 8.53839 2.17683 -0.65243
207 3 -2.13608 6.97934 4.46373 -0.732452
208 1 -4.64926 8.28386 4.60534 -0.635237
209 2 -1.99199 9.69664 4.89265 -0.0415743
216 2 -1.93731 7.65919 1.8864 0.190942
217 2 -2.09876 9.53395 1.98787 0.12752
218 2 -3.63163 8.46693 1.7528 0.146511
220 2 -4.48383 8.58929 5.71679 0.14691
234 2 -0.73462 11.7612 0.394317 0.158449
236 2 -2.14771 10.5736 0.014697 0.143397
290 1 -3.01671 7.14703 7.65132 -0.645171
295 2 -4.11377 6.70945 7.68448 0.124004
296 2 -2.38781 6.73029 6.80958 0.181107
297 2 -2.97374 8.27343 7.73769 0.170985
332 2 -1.48545 12.6417 2.50785 0.144545
345 2 0.970029 13.367 0.182541 0.165988
346 2 1.12058 13.6317 2.04905 0.152818
352 1 -4.33734 12.0336 5.46001 -0.660088
354 2 -4.33301 11.1205 6.16568 0.126449
355 2 -3.57774 11.9857 4.61701 0.156322
8 4 2.64701 8.77304 0.00469248 1.14503
13 4 1.66887 9.18876 3.01677 1.05643
23 4 6.85911 8.5458 2.83464 1.5521
24 4 3.25169 10.8254 5.20024 1.46079
25 4 6.02988 11.2806 1.84322 0.981883
26 4 7.50972 8.08221 7.796 1.53019
28 4 6.06394 10.3425 6.36749 1.26484
49 1 2.73082 6.58571 7.71935 -0.655514
56 3 2.27034 8.85738 1.56683 -0.778413
83 3 5.85189 7.59619 3.69997 -0.801715
86 3 2.54636 10.1682 3.90297 -0.790364
87 3 3.34442 12.4813 5.12911 -0.802376
88 3 2.1725 10.4549 6.52836 -0.753712
89 3 5.99901 9.79376 2.23753 -0.790111
90 2 6.3018 12.2546 3.16893 -0.0566841
97 3 7.4231 10.905 5.60981 -0.842015
98 3 4.76134 10.32 5.45145 -0.815877
99 3 6.34549 8.95671 7.08038 -0.82033
100 2 5.76566 11.452 7.61109 -0.0373056
123 2 3.66297 7.09697 8.11815 0.216158
125 2 2.05495 7.28647 7.13891 0.166616
137 2 2.32742 7.31756 4.38153 0.200319
347 2 2.66807 13.8498 0.937285 0.142188
371 3 7.07161 11.6121 0.720478 -0.809139
372 2 6.03942 12.9837 4.87313 -0.025683
373 2 4.48047 11.7877 1.4512 -0.0267499
91 3 6.74445 7.03406 8.77109 -0.821287
255 2 10.1649 11.2523 0.878014 0.138165
16 4 7.60559 6.82513 0.301726 1.31466
84 3 7.54458 7.65411 1.66086 -0.818225
70 1 9.69405 6.41503 4.38473 -0.670793
85 3 8.16815 9.17188 3.75574 -0.826641
92 3 8.37709 7.2355 6.71021 -0.827117
93 3 8.58845 9.12464 8.66484 -0.803211
156 2 9.17408 7.13632 3.68952 0.227205
158 2 10.5469 6.89249 4.95661 0.159158
222 4 12.0332 7.37349 0.676149 0.774309
224 2 11.5659 8.63514 1.70501 -0.0400818
228 4 8.57982 10.2854 4.74186 0.956993
229 2 9.3833 11.5198 3.94635 -0.0733498
230 2 9.86006 9.76253 5.68778 -0.0303141
180 4 -0.161284 1.40149 11.7472 0.822396
185 2 1.1701 0.473207 12.3017 -0.00988311
186 3 0.0662278 1.94833 10.2753 -0.760444
188 1 -0.570444 2.89355 12.9319 -0.649459
196 2 0.198758 3.68802 12.7039 0.159049
197 2 -0.499229 2.49956 13.9882 0.148038
198 2 -1.62199 3.2055 12.6502 0.157818
204 1 0.135405 1.98105 17.0605 -0.647491
213 2 1.01014 2.26685 16.4025 0.155302
214 2 -0.629319 2.80427 17.181 0.167172
215 2 -0.333358 0.948921 16.7847 0.155556
2 4 4.41832 -0.934539 11.17 0.994071
6 4 4.64611 0.33225 14.0045 1.23897
11 4 6.60186 2.82644 13.5999 1.31159
12 4 4.71508 4.41051 11.6115 1.13112
32 1 6.10063 -0.185571 10.7302 -0.668265
38 3 4.03784 -0.383411 12.6344 -0.768834
39 3 5.35046 -0.836944 15.171 -0.722857
40 1 3.22936 1.28455 14.829 -0.671915
44 1 2.558 4.38792 16.8225 -0.660084
50 3 5.87183 1.35789 13.6284 -0.788859
52 1 3.62143 2.96078 10.8382 -0.66273
53 3 6.00984 3.70349 12.2986 -0.785314
76 3 6.34704 3.63169 14.9607 -0.819821
77 3 8.11815 4.24877 16.752 -0.808223
111 2 5.87757 0.911652 10.5417 0.151039
112 2 6.44854 -0.741416 9.80656 0.128227
113 2 6.76801 -0.351128 11.6327 0.185184
114 2 2.85289 2.04024 14.0722 0.14535
115 2 3.65487 1.76854 15.7613 0.168613
116 2 2.46417 0.47474 15.0603 0.158586
122 2 2.85903 4.05802 15.7886 0.158899
129 2 4.32346 2.39015 10.1653 0.149546
130 2 2.789 3.46199 10.2666 0.176203
131 2 3.24615 2.33354 11.6958 0.157142
279 4 6.65281 -1.66394 15.4547 0.973879
281 1 7.86845 -0.625317 16.485 -0.659077
283 2 6.15888 -2.87291 17.5136 0.199388
285 2 8.14898 0.284103 15.8734 0.164862
287 2 7.30272 -0.353571 17.4266 0.211864
339 2 3.29869 -0.329239 10.04 -0.0229398
348 1 7.45538 -2.16008 13.7974 -0.663064
350 2 7.92238 -1.22391 13.3697 0.158802
121 2 2.44692 3.52649 17.5445 0.149751
51 1 8.516 2.63474 13.4365 -0.665677
73 1 13.791 4.13934 13.7883 -0.656368
75 3 13.2658 4.34443 16.6753 -0.735357
126 2 8.68613 2.35737 12.3552 0.158792
127 2 8.82765 1.82251 14.1575 0.173059
128 2 8.94061 3.65157 13.7089 0.220999
149 2 10.0906 2.79462 9.54119 0.147101
160 2 13.0174 3.28525 13.8155 0.165818
169 2 8.44573 4.31817 10.443 0.172122
260 4 13.0938 -0.30798 15.3741 1.04407
261 4 12.4168 -1.57217 12.5022 0.677511
263 3 13.4565 -1.16554 16.7511 -0.744685
265 1 11.3141 0.419034 15.6454 -0.640391
266 3 13.0056 -1.1456 13.9243 -0.74359
268 2 13.6258 -1.69361 11.311 -0.0534468
269 1 11.2149 -0.270143 11.9778 -0.646429
270 2 14.3002 1.43246 14.0207 0.163838
272 2 14.096 1.93409 15.8203 0.186091
273 2 10.6113 -0.382292 15.26 0.163551
274 2 11.2757 1.36651 15.0312 0.182962
275 2 11.1897 0.614751 16.7505 0.189981
276 2 10.9374 -0.387291 10.8869 0.151135
277 2 11.7764 0.697493 12.2245 0.167426
278 2 10.3561 -0.527241 12.7241 0.144957
286 2 8.75558 -1.29335 16.6999 0.189876
316 1 14.1645 1.48327 8.85279 -0.662441
317 2 14.2087 2.41312 9.49209 0.130944
318 2 14.2185 0.510966 9.44477 0.154723
370 3 10.3344 3.09915 17.4439 -0.654479
264 1 14.3881 1.1124 15.1021 -0.65876
161 2 14.8357 3.80415 14.0589 0.157944
187 1 17.3195 0.271545 11.703 -0.649435
193 2 16.5631 0.798964 11.044 0.184457
194 2 16.9808 0.163999 12.7751 0.135813
195 2 17.7064 -0.693179 11.2519 0.158108
258 2 20.0516 -3.19596 17.502 0.155945
271 2 15.3948 0.654089 15.3403 0.155217
311 2 15.3925 -2.02697 13.277 -0.0209361
312 1 17.9219 -1.73028 14.9883 -0.64386
313 2 18.9753 -1.97674 14.6499 0.18543
314 2 17.7568 -1.83911 16.1018 0.148123
315 2 17.4991 -0.734945 14.535 0.122555
244 2 -9.1259 11.7617 10.9746 0.182278
280 1 -4.72515 10.881 16.4271 -0.646272
74 1 -4.95729 6.81499 15.5853 -0.641759
162 2 -4.00233 6.46666 16.0758 0.14449
163 2 -5.60717 7.5052 16.2766 0.153825
164 2 -4.78942 7.25743 14.5636 0.133525
166 2 -7.08193 8.58552 13.1269 0.15057
238 4 -6.42062 10.0487 10.1895 0.972281
240 3 -7.93111 9.45119 10.1278 -0.73933
241 2 -5.32586 8.89912 10.8083 -0.0286146
242 3 -6.26618 11.4964 10.9846 -0.754323
246 2 -9.4523 11.8551 9.10501 0.161341
252 1 -8.83359 10.333 17.1651 -0.657773
253 2 -6.89075 7.97883 16.6292 0.157732
256 2 -8.46072 10.6773 16.1561 0.168354
282 2 -5.80123 10.7274 16.1074 0.174567
284 2 -4.05875 10.0089 16.1606 0.155209
351 2 -4.17875 11.5085 13.1478 0.177597
120 2 1.65769 5.07379 16.8222 0.153451
140 2 1.22106 11.6771 9.29669 0.131628
174 2 1.97462 8.97084 9.95388 0.150969
231 4 -0.917261 9.30242 16.1776 0.781538
232 1 0.0456715 7.90694 17.141 -0.65183
233 3 -1.59753 10.1534 17.3505 -0.739668
235 2 0.681354 7.40175 16.358 0.143363
267 2 0.97693 10.9118 12.5094 -0.0385865
288 4 -2.51017 6.32469 9.29055 0.763775
289 4 -2.49286 8.1835 11.9329 0.763956
291 1 -1.62775 9.84262 11.5676 -0.646759
292 3 -2.71484 7.35395 10.5477 -0.722808
293 1 -1.27403 6.99464 12.9027 -0.641196
294 2 -3.94282 8.37112 12.8207 -0.0531316
298 2 -0.944209 9.72556 10.6743 0.163918
299 2 -1.10798 10.235 12.4889 0.138724
300 2 -2.62928 10.4063 11.3219 0.13758
301 2 -0.465682 6.7232 12.1598 0.177316
302 2 -1.90082 6.10407 13.2038 0.145442
303 2 -0.88032 7.5738 13.7805 0.132776
333 1 0.286422 10.4126 15.1672 -0.654885
334 2 0.705884 9.73524 14.3612 0.134473
335 2 1.07879 10.8266 15.8596 0.195862
336 2 -0.411893 11.2128 14.7638 0.14604
338 2 -2.09519 8.62332 15.1369 -0.0499566
349 2 -2.57043 11.103 14.0255 0.134155
356 1 -0.576438 5.98103 9.25874 -0.640554
357 2 -0.378984 5.29126 10.1306 0.158739
358 2 -0.0747451 6.98613 9.37557 0.177862
360 2 -3.2592 4.81392 9.59148 -0.0563364
18 4 6.58228 5.59009 9.40253 1.33825
21 4 6.72488 4.74295 16.0926 1.53754
27 4 4.32444 9.38557 10.677 0.738959
29 4 7.87379 7.11823 14.5961 1.485
30 4 6.9808 8.92889 12.2718 1.47125
54 1 3.71269 5.43014 12.9459 -0.65403
69 3 5.10109 5.4239 10.4693 -0.741837
78 3 5.43979 4.75462 17.1779 -0.777687
80 1 8.14245 5.40346 10.521 -0.664194
94 2 4.2555 11.037 11.0838 -0.0596394
95 1 2.60493 8.67471 10.8522 -0.664805
96 2 4.6465 9.47471 9.00748 -0.000478872
101 3 6.85 6.25269 15.4762 -0.827449
105 3 5.49068 8.6794 11.4633 -0.753093
106 3 7.12124 7.8232 13.3954 -0.830887
107 3 6.74739 10.3802 13.0266 -0.779417
132 2 2.96865 6.04327 12.3563 0.165502
133 2 4.49047 6.06912 13.4652 0.2106
134 2 3.22141 4.68558 13.6347 0.145887
170 2 7.84839 5.70717 11.5712 0.231732
175 2 2.30654 9.21988 11.8362 0.128007
176 2 2.74524 7.55629 10.9665 0.186288
310 4 5.88372 11.2109 14.0639 0.820723
361 1 3.90021 7.25024 16.8265 -0.651214
362 2 3.99275 7.16064 15.7065 0.177548
363 2 4.7694 7.80056 17.2865 0.181422
364 2 2.90328 7.67213 17.1474 0.161623
366 1 5.02862 9.96623 15.3586 -0.65571
367 2 4.35512 9.3022 14.7473 0.168671
368 2 4.46129 10.6175 16.0815 0.166612
369 2 5.87037 9.39632 15.8454 0.190167
245 2 8.13321 11.6922 10.317 0.159152
254 2 11.0248 6.57823 17.2228 0.213627
251 1 11.3098 7.65708 17.3563 -0.650454
104 3 8.35713 9.04333 11.3073 -0.806955
20 4 13.0726 5.14991 15.2352 1.09509
22 4 10.6364 6.48552 13.5848 1.12814
79 1 10.9145 8.45022 13.5013 -0.655543
81 1 11.0326 5.90264 11.8106 -0.671437
82 3 11.689 5.7913 14.6694 -0.756895
102 3 9.07309 6.1222 13.8527 -0.773951
103 3 8.86343 8.24352 15.6263 -0.767184
155 2 10.9069 5.46416 9.0022 0.168187
159 2 13.7435 4.7464 12.8323 0.141301
165 2 10.1475 8.83926 12.7692 0.222435
167 2 10.7745 8.87909 14.527 0.201766
168 2 8.89907 6.10933 10.0553 0.180871
171 2 12.1423 5.70321 11.7432 0.143212
172 2 10.6951 6.74785 11.1321 0.173871
173 2 10.4047 4.96562 11.6953 0.174542
237 4 9.2545 9.60209 10.0451 1.24811
239 1 9.23405 11.4704 10.1121 -0.65497
250 4 9.5305 8.55071 17.0561 1.12174
ITEM: TIMESTEP
100
ITEM: NUMBER OF ATOMS
373
ITEM: BOX BOUNDS xy xz yz pp pp pp
-1.0683960945615116e+01 2.0334588689664645e+01 -1.0761009690187050e+01
-3.3506097919859403e+00 1.4074746516752754e+01 1.3624374342366024e+00
-8.7291996755851642e-02 1.7637291996755849e+01 -3.3333632752331868e+00
ITEM: ATOMS id type x y z q
179 4 -0.150203 1.96231 8.74151 1.12097
183 3 0.749045 0.95602 7.76981 -0.7406
189 2 0.203099 3.54331 8.22494 -0.0258173
192 2 0.835211 2.25618 5.28561 0.16934
199 4 -0.434577 4.73676 1.19423 0.795498
200 4 -1.96347 5.29436 3.9534 0.98106
202 2 1.06591 5.37732 1.68664 -0.0442188
203 1 -0.383148 2.82833 1.22975 -0.643973
205 3 -1.49373 5.18982 2.31119 -0.720864
210 2 -1.41566 2.43711 1.04426 0.167824
211 2 0.0669385 2.53858 2.21521 0.152592
212 2 0.344838 2.63624 0.344857 0.141901
322 2 14.7659 4.96613 4.95257 0.151243
325 1 -0.463916 4.60473 4.95517 -0.652363
326 2 0.0200753 5.56832 5.37025 0.153391
327 2 0.264976 4.00827 4.24415 0.143451
328 2 -0.885631 3.95803 5.75856 0.150748
337 2 1.82131 -1.23937 6.57998 -0.0538333
359 2 0.194958 6.08557 8.38017 0.147003
3 4 4.98035 1.4582 2.60449 1.20698
4 4 7.10993 -0.73869 6.62082 0.692751
5 4 6.69679 1.96819 5.0566 1.21084
7 4 3.9162 4.28031 2.30579 1.00476
9 4 5.61504 3.4733 7.56583 1.27402
10 4 3.46751 5.36969 6.56311 1.06516
15 4 5.59413 6.12499 4.22249 1.5422
33 3 6.22921 0.823658 1.74996 -0.766523
34 2 3.75776 0.38206 2.65122 -0.0320945
35 2 6.00086 -0.505117 7.83587 -0.066552
36 3 5.43396 1.57102 4.08251 -0.826504
37 3 7.36534 0.626833 5.75509 -0.765975
41 3 4.36973 2.7434 1.88165 -0.801764
42 1 3.44212 5.26259 0.735872 -0.671354
43 2 2.44513 4.25623 3.2202 -0.0539324
45 2 5.26508 2.19111 8.53187 -0.0483983
46 3 6.2226 2.93282 6.2331 -0.798524
47 2 1.98135 4.84486 5.82549 -0.0407627
48 3 4.22556 4.17572 7.26527 -0.824945
62 3 5.04837 5.0738 3.09877 -0.81906
63 3 4.41605 6.10719 5.48479 -0.764492
64 2 6.62375 5.19252 0.400274 -0.00665948
68 3 6.69693 4.41554 8.40982 -0.788275
71 3 7.01467 5.63077 4.85935 -0.81048
222 4 11.8373 7.37583 0.530459 0.754763
118 2 4.42936 5.85065 0.564886 0.202821
119 2 2.57364 5.94655 1.04627 0.144138
91 3 6.93092 7.08277 8.73414 -0.824079
178 4 1.90912 0.417644 6.82354 0.697067
181 1 1.57419 1.37124 5.26662 -0.630207
190 2 1.18598 0.357011 4.67696 0.11684
191 2 2.73797 1.66684 5.09228 0.13231
320 2 3.48219 0.61642 7.49278 -0.0612693
17 4 10.3445 3.81432 7.09217 0.937268
19 4 8.39366 5.98891 5.58025 1.33292
61 2 7.84257 2.81981 4.22824 0.00281841
65 1 9.75305 2.72794 8.62223 -0.636393
66 1 11.264 2.77396 5.7131 -0.658625
67 1 11.4877 5.24713 7.89197 -0.642485
72 3 9.17649 4.59381 6.40411 -0.734464
138 2 10.9118 -0.949192 8.06446 0.138621
139 2 12.8118 -1.13163 8.31056 0.167452
147 2 10.3066 1.72701 8.62905 0.151412
148 2 8.64999 2.60162 8.52531 0.201626
150 2 11.2147 1.74052 6.03907 0.164035
151 2 12.3032 3.13382 5.69033 0.150631
152 2 10.7348 2.9484 4.71863 0.158318
153 2 11.9981 5.64101 6.96633 0.148518
154 2 12.1627 4.66092 8.57207 0.141252
157 2 9.61063 5.40885 3.60218 0.165042
223 1 12.7489 5.96655 0.85426 -0.600553
225 2 12.0175 5.3115 1.5304 0.139356
155 2 10.763 5.96151 8.43962 0.183389
259 4 12.1056 1.72466 0.787016 0.769902
262 2 10.6535 1.97083 1.70911 -0.0243889
158 2 10.5912 6.71751 4.57464 0.142699
329 1 -2.1067 13.5096 2.61499 -0.662561
330 2 8.43982 0.0719337 3.48835 0.190472
331 2 9.57523 -0.268885 2.07221 0.162039
342 2 12.9081 3.40127 2.26041 0.1444
344 1 1.50137 13.8505 1.05347 -0.6551
365 2 8.42214 -1.22174 7.55179 -0.0460513
182 3 -1.78519 1.74376 8.39086 -0.788206
321 1 15.2989 4.35092 4.19933 -0.661733
177 4 15.667 1.41282 7.97696 1.00475
184 2 14.8044 2.93689 7.90749 0.0105355
304 4 15.2959 -0.36992 5.12974 0.979374
305 1 14.8514 0.925251 3.8745 -0.654878
306 3 15.3956 0.64403 6.52528 -0.752372
307 2 13.8848 0.478096 3.47222 0.155784
308 2 15.7477 0.866229 3.14245 0.125805
309 2 14.6879 1.96394 4.33837 0.174265
323 2 15.338 3.25662 4.52099 0.160882
324 2 14.8742 4.46829 3.14682 0.187575
340 1 13.4951 2.79064 1.49507 -0.645023
341 2 14.0998 1.93936 1.93767 0.159567
343 2 14.1214 3.43487 0.764878 0.17647
109 2 -5.19082 12.0236 0.63309 0.163772
110 2 -5.10494 12.1973 2.45589 0.151881
219 2 -5.17356 9.02603 3.71559 0.139045
221 2 -4.95913 7.36085 4.49845 0.172023
243 1 -5.73046 10.1739 8.63426 -0.642651
247 2 -5.70032 9.16612 8.14384 0.148821
228 4 8.38318 10.2614 4.78896 0.952618
249 2 -6.39638 10.9104 8.02807 0.142422
156 2 9.03762 7.19458 3.57295 0.231942
353 2 -5.30421 12.0255 5.77145 0.103465
226 2 -5.30733 7.26718 1.4605 0.058499
1 4 -3.51942 13.66 1.33076 1.05216
14 4 0.734088 11.0168 7.0701 0.878192
31 1 -4.56129 12.0318 1.53045 -0.673085
55 1 1.05724 7.61751 3.79923 -0.668742
57 2 0.145788 9.21188 3.49635 0.00694374
58 1 11.7937 -1.6159 8.43694 -0.647928
59 1 -0.205219 12.0009 5.6276 -0.634357
60 1 -0.21196 9.41233 7.73055 -0.62233
108 2 -3.78419 11.1635 1.60493 0.135179
135 2 0.377509 7.02254 3.09052 0.179099
136 2 0.590134 7.86079 4.82557 0.168491
141 2 -0.982029 12.6359 6.21608 0.13851
142 2 -0.686738 11.2471 4.88979 0.14184
143 2 0.625188 12.6452 5.13413 0.173766
144 2 -1.29347 9.7274 7.47197 0.137615
258 2 0.0254332 0.0642122 0.311087 0.171069
146 2 0.170343 8.46773 7.21802 0.165881
201 4 -2.75119 8.50823 4.15232 0.796966
206 1 -2.42696 8.81917 2.27357 -0.654516
207 3 -2.06965 7.09509 4.47385 -0.703819
208 1 -4.61533 8.40647 4.44594 -0.64386
209 2 -1.88924 9.70592 5.09742 -0.0291779
216 2 -2.20168 7.87548 1.7537 0.194
217 2 -1.66521 9.63917 2.03717 0.138243
218 2 -3.49295 9.17424 2.10009 0.133981
220 2 -4.5347 8.92877 5.53621 0.129047
93 3 8.60984 9.09331 8.65381 -0.816556
224 2 10.491 7.5846 1.54142 0.0153992
290 1 -2.62316 6.89455 7.6367 -0.631912
295 2 -3.58585 6.31155 7.46343 0.134496
296 2 -1.80243 6.61985 6.86156 0.176516
297 2 -2.772 8.01134 7.71393 0.174748
332 2 -2.08416 12.3975 2.9076 0.142343
345 2 0.953274 13.3965 0.208711 0.166716
346 2 1.15444 13.5271 2.08293 0.147493
352 1 -4.08478 11.9726 5.47769 -0.649653
354 2 -3.54062 11.0844 5.87259 0.127739
355 2 -3.84808 12.2484 4.37868 0.166853
230 2 9.35969 9.40709 5.89775 -0.00854333
13 4 1.81938 9.15973 2.93784 1.04129
23 4 6.82467 8.50407 2.7779 1.50865
24 4 3.29196 10.8244 5.19577 1.47146
25 4 6.04101 11.2015 1.64265 0.978074
26 4 7.56329 8.15489 7.77207 1.56065
28 4 5.99982 10.4629 6.49488 1.22258
49 1 2.92583 6.59959 7.88965 -0.651096
56 3 2.10243 9.01004 1.38472 -0.787933
83 3 5.7741 7.62988 3.6379 -0.812376
86 3 2.82815 10.1428 3.74618 -0.777573
87 3 3.55347 12.4163 5.08295 -0.814709
88 3 2.14022 10.5588 6.39578 -0.756449
89 3 5.99004 9.62465 1.76104 -0.753057
90 2 5.75176 11.8044 3.20435 -0.0139118
97 3 7.26481 11.1438 5.48045 -0.817144
98 3 4.64872 10.1922 5.73105 -0.797369
99 3 6.42615 9.14966 7.2432 -0.842197
100 2 5.69801 11.6808 7.69331 -0.0445276
123 2 3.82615 7.2955 8.00262 0.212866
125 2 2.02696 7.0957 7.50301 0.154059
137 2 2.24279 7.20553 3.86618 0.14724
347 2 13.4242 -0.162138 0.893556 0.1356
371 3 7.29017 11.8305 0.957321 -0.807847
372 2 16.868 -0.810167 4.62355 -0.00663536
373 2 4.66123 11.672 0.879227 -0.0165042
229 2 9.54354 11.2277 4.06682 -0.0585619
255 2 9.72887 10.3625 0.633656 0.165494
16 4 7.65422 6.62277 0.323733 1.17606
84 3 7.71234 7.43621 1.77158 -0.778874
70 1 9.5999 6.37667 4.11427 -0.681904
85 3 7.88255 9.30376 3.66577 -0.854827
92 3 8.30552 7.31254 6.50084 -0.821966
319 2 13.2828 1.68308 8.74708 0.150024
117 2 3.20738 4.5127 -0.0537445 0.169952
180 4 0.132758 1.34405 11.8077 0.814967
185 2 1.64399 0.765167 12.3303 -0.00143619
186 3 0.283944 1.91842 10.35 -0.766387
188 1 -0.310208 2.85834 12.9453 -0.653861
196 2 0.270374 3.68307 12.542 0.166526
197 2 -0.105723 2.64421 14.0443 0.149814
198 2 -1.43419 3.03589 12.7575 0.155177
204 1 0.41782 2.02899 17.1546 -0.643138
213 2 1.37681 2.1811 16.5631 0.153761
214 2 -0.175972 3.01822 17.3251 0.159167
215 2 -0.221307 1.18141 16.7515 0.159499
2 4 4.28716 -0.972684 11.0245 0.944887
6 4 4.67661 0.293056 13.9861 1.22169
11 4 6.59056 2.87275 13.7139 1.29197
12 4 4.71485 4.4263 11.5801 1.05664
32 1 6.00107 -0.379881 10.7464 -0.66967
38 3 4.03092 -0.405035 12.5004 -0.739712
39 3 5.32914 -0.809904 15.0826 -0.728146
40 1 3.16511 1.1638 14.7053 -0.67601
44 1 2.44969 4.46145 16.6661 -0.669767
50 3 5.91389 1.4008 13.6478 -0.77031
52 1 3.4515 3.16134 10.8433 -0.667556
53 3 5.9878 3.66807 12.2867 -0.777356
76 3 6.3083 3.63381 15.095 -0.835128
77 3 8.05552 4.46591 16.7687 -0.72326
111 2 6.08473 0.696307 11.1538 0.185759
112 2 6.09541 -0.458854 9.62587 0.11819
113 2 6.63773 -1.1131 11.3151 0.167088
114 2 2.56682 1.57421 13.8405 0.154008
115 2 3.55711 1.92855 15.3704 0.166057
116 2 2.65061 0.28962 15.2375 0.161079
122 2 2.89186 3.70338 15.979 0.16051
129 2 4.08559 2.20552 10.7217 0.153373
130 2 3.03065 3.60997 9.88491 0.175265
131 2 2.70953 3.10859 11.6965 0.148726
279 4 6.62522 -1.72464 15.6308 0.910719
281 1 8.0402 -0.786872 16.6463 -0.640262
283 2 5.70579 -3.04562 17.5551 0.170791
285 2 8.4149 0.104322 15.985 0.165823
287 2 7.34559 -0.480398 17.5186 0.196954
339 2 3.18034 -0.279558 9.93426 -0.0374149
348 1 7.70805 -2.16924 14.1296 -0.631198
350 2 8.79357 -1.74302 14.2967 0.148358
121 2 1.80218 3.99712 17.5198 0.152369
51 1 8.49244 2.77764 13.621 -0.65945
73 1 14.0125 4.05462 13.8984 -0.647752
75 3 13.0961 4.50194 16.7341 -0.708386
126 2 8.69431 2.12626 12.7351 0.164866
127 2 8.94039 2.39662 14.5769 0.199043
128 2 8.77282 3.89892 13.4095 0.207793
149 2 10.0143 3.41649 9.55628 0.146075
160 2 13.6522 2.95647 13.9852 0.172692
169 2 8.35572 4.28289 10.5772 0.176838
260 4 13.0817 -0.336664 15.4381 0.974658
261 4 12.3405 -1.73098 12.5183 0.677486
263 3 13.2867 -1.15957 16.9242 -0.718945
265 1 11.3763 0.438043 15.6035 -0.63473
266 3 13.0009 -1.39957 13.8771 -0.716533
268 2 13.1251 -1.02193 11.0903 -0.00338091
269 1 11.451 -0.292076 11.6585 -0.621648
270 2 14.773 1.14638 14.0934 0.156579
272 2 13.9042 2.02569 15.4722 0.176997
273 2 10.6614 0.361812 14.7383 0.170128
274 2 11.838 1.55381 15.6687 0.180833
275 2 10.9355 0.109426 16.5497 0.19584
276 2 11.3935 -0.47692 10.5611 0.164325
277 2 11.8103 0.746402 11.9924 0.175371
278 2 10.3672 -0.776142 12.4181 0.0988879
286 2 8.83328 -1.58433 16.9512 0.215323
316 1 14.3118 1.67902 9.26661 -0.653646
317 2 14.5432 2.61238 9.93743 0.142326
318 2 14.6077 0.535713 9.76723 0.109188
248 2 -4.67902 10.6119 8.79524 0.13951
264 1 14.3993 1.09109 15.1751 -0.666131
161 2 -3.80043 4.21224 14.2583 0.14625
187 1 17.6327 -0.00620915 11.8725 -0.657378
193 2 16.7551 0.488663 11.3371 0.162154
194 2 17.4668 -0.200333 12.9681 0.139707
195 2 18.123 -0.843863 11.3145 0.16902
8 4 3.85454 5.37147 17.5562 1.13407
271 2 15.2223 0.788402 15.9046 0.153467
311 2 15.6121 -1.63472 13.7722 -0.0119476
312 1 18.1155 -2.0134 15.3558 -0.64203
313 2 19.1194 -2.45956 15.055 0.182582
314 2 17.8387 -2.1459 16.4415 0.146471
315 2 17.9123 -0.949641 14.9249 0.126125
244 2 -9.42203 11.9669 10.9632 0.168779
280 1 -4.93209 10.6876 16.4492 -0.631197
74 1 -4.85412 6.74251 15.8492 -0.634464
162 2 -4.13619 6.38429 16.6194 0.162934
163 2 -5.60644 7.58084 16.1186 0.156347
164 2 -4.3054 6.87796 14.7259 0.0974423
166 2 -6.89283 8.51131 13.3894 0.154516
238 4 -6.48891 9.84767 10.2985 1.02554
240 3 10.972 9.31861 10.1614 -0.771862
241 2 -5.50837 8.75666 11.1615 -0.0424957
242 3 -6.45466 11.3446 10.8261 -0.734863
246 2 -9.29211 11.8277 9.10001 0.157604
252 1 -8.6695 10.3963 17.2324 -0.661458
253 2 11.817 7.7729 16.7349 0.154315
256 2 -8.90787 10.8435 16.2033 0.162808
282 2 -5.9252 10.5925 15.8739 0.167614
284 2 -4.19802 9.81785 16.2824 0.147538
351 2 7.21216 -1.68413 13.1617 0.168581
120 2 1.84032 5.25588 16.0807 0.154894
140 2 0.864326 11.9521 9.42052 0.124026
174 2 1.97349 8.66203 10.0677 0.14679
231 4 -0.952447 9.52601 16.2107 0.787275
232 1 -0.142314 7.8458 16.9403 -0.632757
233 3 -1.53569 10.3413 17.4324 -0.748829
235 2 0.182743 7.39668 15.9387 0.14252
267 2 1.24841 10.7984 12.1989 -0.0519626
288 4 -2.19689 6.12003 9.34497 0.760667
289 4 -2.66289 8.1521 11.9513 0.748265
291 1 -1.86431 9.89474 11.591 -0.645552
292 3 -2.63661 7.15888 10.6101 -0.703684
293 1 -1.56767 7.12419 13.1463 -0.631521
294 2 -4.20517 8.20197 12.7702 -0.0500795
298 2 -1.11563 9.7204 10.7062 0.161254
299 2 -1.40267 10.2872 12.5424 0.139139
300 2 -2.89545 10.3684 11.2828 0.132356
301 2 -1.01403 6.31204 12.6415 0.180462
302 2 -2.09932 6.77545 14.1409 0.127639
303 2 -0.858634 8.08042 13.3357 0.123905
333 1 0.366613 10.4466 15.2159 -0.65573
334 2 1.01782 9.66165 14.6718 0.139014
335 2 11.7153 -2.99816 15.8949 0.209844
336 2 -0.365191 11.0154 14.5103 0.131797
338 2 -2.23455 9.01231 15.192 -0.0432767
349 2 -3.17817 10.7817 14.1984 0.131814
356 1 -0.298483 5.92155 9.41222 -0.636332
357 2 -0.363344 4.76849 9.67694 0.129392
358 2 0.185248 6.50257 10.2061 0.185155
360 2 -2.95816 4.53638 9.41685 -0.0435049
18 4 6.65094 5.67166 9.43241 1.35909
21 4 6.62952 4.81597 16.1279 1.52354
27 4 4.3401 9.3183 10.537 0.751298
29 4 7.81217 7.17139 14.7068 1.46162
30 4 6.97194 9.01488 12.3406 1.48379
54 1 3.85138 5.46113 13.0274 -0.657906
69 3 5.15928 5.52462 10.3015 -0.74349
78 3 5.3313 4.81635 17.241 -0.763429
80 1 7.97487 5.30504 10.7638 -0.66813
94 2 4.11753 10.981 10.6276 -0.0602071
95 1 2.75093 8.48267 10.897 -0.673317
96 2 4.61212 8.97614 8.89124 0.0207054
101 3 6.67919 6.29288 15.4594 -0.823677
105 3 5.51313 8.83284 11.4754 -0.751771
106 3 7.13275 7.91669 13.3942 -0.836337
107 3 6.68024 10.5107 13.0121 -0.768922
132 2 2.75131 5.28874 12.881 0.145264
133 2 4.1843 6.56007 12.8448 0.201952
134 2 4.27818 5.02753 13.971 0.196635
170 2 7.45894 5.42451 11.785 0.229794
175 2 2.36522 8.85058 11.886 0.150844
176 2 3.11797 7.39343 10.9032 0.191125
310 4 5.97141 11.2574 14.2194 0.822636
361 1 3.82667 7.24761 16.8041 -0.643905
362 2 3.1373 7.16611 15.9293 0.158212
363 2 4.82812 7.62443 16.5183 0.213747
234 2 0.703597 8.32595 17.5943 0.155721
366 1 5.04937 9.8125 15.177 -0.660308
367 2 5.22648 8.82651 14.7315 0.220261
368 2 3.97941 10.041 15.2849 0.165196
369 2 5.58816 9.93076 16.1808 0.153505
245 2 7.94187 11.861 9.90275 0.159671
254 2 10.5628 6.38384 16.6843 0.238117
251 1 10.9392 7.26938 17.2572 -0.654601
104 3 8.28561 9.14979 11.255 -0.783566
20 4 13.1076 5.26808 15.1705 1.08416
22 4 10.5637 6.47903 13.563 1.10249
79 1 10.9254 8.40933 13.4885 -0.672537
81 1 10.9183 5.67928 11.8285 -0.66554
82 3 11.8061 5.78423 14.4909 -0.772412
102 3 9.0182 6.19425 13.9807 -0.788053
103 3 8.48571 8.30691 15.8647 -0.746371
236 2 -0.935486 7.28053 17.5331 0.153665
159 2 13.7547 4.55029 12.9338 0.15063
165 2 10.3653 8.70854 12.5527 0.208973
167 2 10.5291 8.94785 14.4285 0.180514
168 2 8.8058 6.08759 10.6766 0.18246
171 2 11.8909 5.13418 11.9238 0.163218
172 2 11.0055 6.61155 11.1753 0.15705
173 2 10.083 5.0016 11.496 0.175108
237 4 9.21381 9.6896 10.0047 1.2868
239 1 9.02438 11.5373 9.98487 -0.671424
250 4 9.5152 8.60138 17.2842 1.06014
124 2 2.71522 5.93214 8.86169 0.17426
227 2 14.4232 2.19778 17.5474 0.182611
257 2 -7.5971 10.5067 17.5473 0.16027
145 2 0.208799 9.67574 8.82931 0.128073
370 3 10.2797 2.86265 17.6202 -0.661323