LAMMPS (2 Aug 2023 - Update 2)
  using 2 OpenMP thread(s) per MPI task
Reading data file ...
  triclinic box = (0 0 0) to (15.2382 14.5028 17.0085) with tilt (-6.2627 -0.4482 -0.642)
  2 by 2 by 2 MPI processor grid
  reading atoms ...
  350 atoms
  reading velocities ...
  350 velocities
Finding 1-2 1-3 1-4 neighbors ...
  special bond factors lj:    0        0        0       
  special bond factors coul:  0        0        0       
     0 = max # of 1-2 neighbors
     0 = max # of 1-3 neighbors
     0 = max # of 1-4 neighbors
     1 = max # of special neighbors
  special bonds CPU = 0.001 seconds
  read_data CPU = 0.009 seconds
WARNING: Van der Waals parameters for element SI indicate inner wall+shielding, but earlier atoms indicate a different van der Waals method. This may cause division-by-zero errors. Keeping van der Waals setting for earlier atoms. (src/REAXFF/reaxff_ffield.cpp:251)
System init for write_restart ...
Neighbor list info ...
  update: every = 1 steps, delay = 0 steps, check = yes
  max neighbors/atom: 2000, page size: 100000
  master list distance cutoff = 12
  ghost atom cutoff = 12
  binsize = 6, bins = 4 3 3
  2 neighbor lists, perpetual/occasional/extra = 2 0 0
  (1) pair reaxff, perpetual
      attributes: half, newton off, ghost
      pair build: half/bin/newtoff/ghost
      stencil: full/ghost/bin/3d
      bin: standard
  (2) fix qeq/reaxff, perpetual, copy from (1)
      attributes: half, newton off
      pair build: copy
      stencil: none
      bin: none
  using 2 OpenMP thread(s) per MPI task
Reading restart file ...
  restart file = 2 Aug 2023, LAMMPS = 2 Aug 2023
  restoring atom style full from restart
  triclinic box = (0 0 0) to (15.2382 14.5028 17.0085) with tilt (-6.2627 -0.4482 -0.642)
  2 by 2 by 2 MPI processor grid
  pair style reaxff stores no restart info
  350 atoms
Finding 1-2 1-3 1-4 neighbors ...
  special bond factors lj:    0        0        0       
  special bond factors coul:  0        0        0       
     0 = max # of 1-2 neighbors
     0 = max # of 1-3 neighbors
     0 = max # of 1-4 neighbors
     1 = max # of special neighbors
  special bonds CPU = 0.000 seconds
  read_restart CPU = 0.003 seconds
*****debug*****
xy = -6.2626999999999997115, deltaxy = 0.062627
xz = -0.4481999999999999873, deltaxz = 0.004482
yz = -0.6420000000000000151, deltayz = 0.00642
*****
*****Negative-deform 1 starts.*****
WARNING: Van der Waals parameters for element SI indicate inner wall+shielding, but earlier atoms indicate a different van der Waals method. This may cause division-by-zero errors. Keeping van der Waals setting for earlier atoms. (src/REAXFF/reaxff_ffield.cpp:251)

CITE-CITE-CITE-CITE-CITE-CITE-CITE-CITE-CITE-CITE-CITE-CITE-CITE

Your simulation uses code contributions which should be cited:
- pair reaxff command: doi:10.1016/j.parco.2011.08.005
- fix qeq/reaxff command: doi:10.1016/j.parco.2011.08.005
The log file lists these citations in BibTeX format.

CITE-CITE-CITE-CITE-CITE-CITE-CITE-CITE-CITE-CITE-CITE-CITE-CITE

Neighbor list info ...
  update: every = 10 steps, delay = 0 steps, check = yes
  max neighbors/atom: 2000, page size: 100000
  master list distance cutoff = 12
  ghost atom cutoff = 12
  binsize = 6, bins = 4 3 3
  2 neighbor lists, perpetual/occasional/extra = 2 0 0
  (1) pair reaxff, perpetual
      attributes: half, newton off, ghost
      pair build: half/bin/newtoff/ghost
      stencil: full/ghost/bin/3d
      bin: standard
  (2) fix qeq/reaxff, perpetual, copy from (1)
      attributes: half, newton off
      pair build: copy
      stencil: none
      bin: none
Setting up Verlet run ...
  Unit style    : real
  Current step  : 0
  Time step     : 0.5
Per MPI rank memory allocation (min/avg/max) = 122.5 | 124 | 125.3 Mbytes
   Step          Temp          PotEng         Press          Volume    
         0   298.51673     -36100.141      12843.044      3758.8201    
       100   305.00931     -36105.599      25324.981      3758.0683    
       200   320.98928     -36112.326     -709.00301      3757.3166    
       300   303.46057     -36082.02      -7505.8643      3756.5648    
       400   320.00027     -36111.292     -1961.9985      3755.8131    
       500   303.42241     -36121.695     -1680.4194      3755.0613    
       600   296.76242     -36122.271      10609.691      3754.3095    
       700   302.40927     -36116.308     -11832.545      3753.5578    
       800   315.15045     -36096.455      15225.647      3752.806     
       900   302.90108     -36065.26      -616.62569      3752.0542    
      1000   302.31051     -36085.247     -4362.8755      3751.3025    
      1100   287.08639     -36095.114      5822.3778      3750.5507    
      1200   292.63751     -36114.447      250.86121      3749.7989    
      1300   296.50798     -36119.139     -13853.426      3749.0472    
      1400   285.27928     -36094.562     -3812.6801      3748.2954    
      1500   333.67147     -36113.64      -18888.854      3747.5436    
      1600   315.6152      -36096.398     -7893.7741      3746.7919    
      1700   295.26599     -36104.996      5664.1653      3746.0401    
      1800   287.77681     -36108.375      17228.371      3745.2884    
      1900   288.43172     -36103.124      2045.6246      3744.5366    
      2000   309.19069     -36113.268      11246.259      3743.7848    
      2100   298.92355     -36104.524      12489.995      3743.0331    
      2200   300.03039     -36127.953      3965.2772      3742.2813    
      2300   297.30234     -36133.796      12173.158      3741.5295    
      2400   296.46944     -36114.604      8393.6179      3740.7778    
      2500   296.52294     -36088.082      9961.7149      3740.026     
      2600   307.54403     -36091.405      5483.5473      3739.2742    
      2700   295.40068     -36091.225      6160.0166      3738.5225    
      2800   310.58779     -36113.572      1989.0015      3737.7707    
      2900   313.24166     -36118.524      12166.217      3737.019     
      3000   292.98378     -36103.681      4779.8046      3736.2672    
      3100   281.10539     -36096.623      3388.049       3735.5154    
      3200   287.9344      -36094.934     -10143.713      3734.7637    
      3300   312.53929     -36091.824      4049.7389      3734.0119    
      3400   307.73283     -36077.594      2529.7312      3733.2601    
      3500   297.38421     -36088.481      1504.7004      3732.5084    
      3600   289.88397     -36091.387      10754.248      3731.7566    
      3700   306.06474     -36112.115      445.97186      3731.0048    
      3800   304.85296     -36115.114      8781.1906      3730.2531    
      3900   303.30245     -36119.292      5971.8653      3729.5013    
      4000   279.91087     -36116.479      5533.8776      3728.7495    
      4100   293.83958     -36134.758      16491.467      3727.9978    
      4200   287.88368     -36105.083      3382.1882      3727.246     
      4300   312.09112     -36107.765      11680.961      3726.4943    
      4400   288.10048     -36082.935     -2540.86        3725.7425    
      4500   301.27652     -36096.114      14882.585      3724.9907    
      4600   316.29627     -36123.441      11165.802      3724.239     
      4700   272.69227     -36105.763      14528.204      3723.4872    
      4800   299.58979     -36121.241      9607.9533      3722.7354    
      4900   304.6823      -36103.935      2765.1829      3721.9837    
      5000   301.53136     -36085.087      8880.1358      3721.2319    
Loop time of 201.517 on 16 procs for 5000 steps with 350 atoms

Performance: 1.072 ns/day, 22.391 hours/ns, 24.812 timesteps/s, 8.684 katom-step/s
99.0% CPU use with 8 MPI tasks x 2 OpenMP threads

MPI task timing breakdown:
Section |  min time  |  avg time  |  max time  |%varavg| %total
---------------------------------------------------------------
Pair    | 124.75     | 149.25     | 179.64     | 193.4 | 74.06
Bond    | 0.01258    | 0.013072   | 0.014209   |   0.4 |  0.01
Neigh   | 1.7242     | 2.1226     | 2.5125     |  24.2 |  1.05
Comm    | 1.5502     | 31.96      | 56.476     | 418.4 | 15.86
Output  | 0.015929   | 0.043471   | 0.097254   |  14.1 |  0.02
Modify  | 17.633     | 18.009     | 18.427     |   8.3 |  8.94
Other   |            | 0.1184     |            |       |  0.06

Nlocal:          43.75 ave          50 max          35 min
Histogram: 1 1 0 0 0 1 2 1 0 2
Nghost:        3171.75 ave        3217 max        3133 min
Histogram: 1 2 0 0 2 1 0 0 1 1
Neighs:        28808.6 ave       32744 max       23302 min
Histogram: 1 1 0 0 0 1 2 1 0 2

Total # of neighbors = 230469
Ave neighs/atom = 658.48286
Ave special neighs/atom = 0
Neighbor list builds = 77
Dangerous builds = 0
  using 2 OpenMP thread(s) per MPI task
Reading restart file ...
  restart file = 2 Aug 2023, LAMMPS = 2 Aug 2023
  restoring atom style full from restart
  triclinic box = (0 0 0) to (15.2382 14.5028 17.0085) with tilt (-6.2627 -0.4482 -0.642)
  2 by 2 by 2 MPI processor grid
  pair style reaxff stores no restart info
  350 atoms
Finding 1-2 1-3 1-4 neighbors ...
  special bond factors lj:    0        0        0       
  special bond factors coul:  0        0        0       
     0 = max # of 1-2 neighbors
     0 = max # of 1-3 neighbors
     0 = max # of 1-4 neighbors
     1 = max # of special neighbors
  special bonds CPU = 0.000 seconds
  read_restart CPU = 0.003 seconds
*****Positive-deform 1 starts.*****
WARNING: Van der Waals parameters for element SI indicate inner wall+shielding, but earlier atoms indicate a different van der Waals method. This may cause division-by-zero errors. Keeping van der Waals setting for earlier atoms. (src/REAXFF/reaxff_ffield.cpp:251)
Neighbor list info ...
  update: every = 10 steps, delay = 0 steps, check = yes
  max neighbors/atom: 2000, page size: 100000
  master list distance cutoff = 12
  ghost atom cutoff = 12
  binsize = 6, bins = 4 3 3
  2 neighbor lists, perpetual/occasional/extra = 2 0 0
  (1) pair reaxff, perpetual
      attributes: half, newton off, ghost
      pair build: half/bin/newtoff/ghost
      stencil: full/ghost/bin/3d
      bin: standard
  (2) fix qeq/reaxff, perpetual, copy from (1)
      attributes: half, newton off
      pair build: copy
      stencil: none
      bin: none
Setting up Verlet run ...
  Unit style    : real
  Current step  : 0
  Time step     : 0.5
Per MPI rank memory allocation (min/avg/max) = 122.5 | 124 | 125.4 Mbytes
   Step          Temp          PotEng         Press          Volume    
         0   298.51673     -36100.141      12843.044      3758.8201    
       100   304.99654     -36105.612      25313.447      3759.5719    
       200   320.84763     -36112.319     -623.95706      3760.3236    
       300   304.10298     -36080.9       -8283.8273      3761.0754    
       400   320.96471     -36109.474     -2102.0103      3761.8272    
       500   304.0369      -36120.783     -2863.2047      3762.5789    
       600   297.55102     -36121.716      9507.3286      3763.3307    
       700   302.34711     -36117.177     -13874.686      3764.0825    
       800   310.6236      -36097.471      18815.455      3764.8342    
       900   295.09947     -36055.158      1717.1448      3765.586     
      1000   312.72885     -36091.033     -2605.3316      3766.3377    
      1100   293.51219     -36096.746     -48.775411      3767.0895    
      1200   292.91105     -36106.723     -2843.7428      3767.8413    
      1300   297.60135     -36107.074     -8945.5921      3768.593     
      1400   287.44128     -36091.727     -4726.1152      3769.3448    
      1500   315.59816     -36097.85      -16873.604      3770.0966    
      1600   313.44513     -36094.792      2548.5003      3770.8483    
      1700   267.79978     -36074.434      10828.524      3771.6001    
      1800   277.28247     -36094.727     -1063.7777      3772.3519    
      1900   301.47982     -36108.478      9400.8766      3773.1036    
      2000   304.16427     -36103.512      10254.339      3773.8554    
      2100   308.17099     -36113.642      13478.008      3774.6072    
      2200   299.87913     -36114.702      4495.8855      3775.3589    
      2300   305.94771     -36123.841      1244.8458      3776.1107    
      2400   282.01318     -36107.713      5651.3644      3776.8624    
      2500   302.96877     -36138.259      9104.2954      3777.6142    
      2600   284.33791     -36109.66      -734.94128      3778.366     
      2700   292.51821     -36087.996      2177.4992      3779.1177    
      2800   329.85158     -36118.152     -5981.5801      3779.8695    
      2900   298.7507      -36099.476      9254.0279      3780.6213    
      3000   298.33597     -36121.417      912.18318      3781.373     
      3100   300.72646     -36125.951      4246.5668      3782.1248    
      3200   288.3597      -36105.025      20149.959      3782.8766    
      3300   291.18178     -36098.284     -8302.2129      3783.6283    
      3400   275.66624     -36072.672      9431.6986      3784.3801    
      3500   310.8088      -36093.544     -5051.4804      3785.1318    
      3600   307.7256      -36083.575      10918.335      3785.8836    
      3700   301.50927     -36106.415      12947.286      3786.6354    
      3800   286.98772     -36111.777      8967.7897      3787.3871    
      3900   297.21521     -36117.079      1452.6952      3788.1389    
      4000   298.01875     -36098.79      -374.11216      3788.8907    
      4100   304.54097     -36085.823     -3883.5099      3789.6424    
      4200   300.11854     -36074.64       4155.2331      3790.3942    
      4300   320.95508     -36125.824     -9064.197       3791.146     
      4400   303.61181     -36128.9        10955.727      3791.8977    
      4500   294.68785     -36116.01       7896.3678      3792.6495    
      4600   288.91182     -36091.396     -3150.5417      3793.4013    
      4700   339.0064      -36116.489     -10461.723      3794.153     
      4800   292.13971     -36068.819     -14195.879      3794.9048    
      4900   313.13578     -36119.582     -1756.3318      3795.6565    
      5000   286.53022     -36121.38       5382.5836      3796.4083    
Loop time of 199.042 on 16 procs for 5000 steps with 350 atoms

Performance: 1.085 ns/day, 22.116 hours/ns, 25.120 timesteps/s, 8.792 katom-step/s
99.0% CPU use with 8 MPI tasks x 2 OpenMP threads

MPI task timing breakdown:
Section |  min time  |  avg time  |  max time  |%varavg| %total
---------------------------------------------------------------
Pair    | 122.58     | 147.52     | 177.76     | 195.1 | 74.11
Bond    | 0.012455   | 0.013328   | 0.014502   |   0.5 |  0.01
Neigh   | 1.5498     | 1.9111     | 2.2562     |  22.8 |  0.96
Comm    | 1.3262     | 31.589     | 56.549     | 422.0 | 15.87
Output  | 0.01525    | 0.041769   | 0.094134   |  13.9 |  0.02
Modify  | 17.514     | 17.85      | 18.24      |   7.5 |  8.97
Other   |            | 0.1193     |            |       |  0.06

Nlocal:          43.75 ave          52 max          31 min
Histogram: 1 1 0 0 0 1 1 1 1 2
Nghost:        3121.38 ave        3168 max        3082 min
Histogram: 1 0 1 1 3 0 0 1 0 1
Neighs:        28173.8 ave       33314 max       20250 min
Histogram: 1 1 0 0 0 1 1 1 1 2

Total # of neighbors = 225390
Ave neighs/atom = 643.97143
Ave special neighs/atom = 0
Neighbor list builds = 70
Dangerous builds = 0
  using 2 OpenMP thread(s) per MPI task
Reading restart file ...
  restart file = 2 Aug 2023, LAMMPS = 2 Aug 2023
  restoring atom style full from restart
  triclinic box = (0 0 0) to (15.2382 14.5028 17.0085) with tilt (-6.2627 -0.4482 -0.642)
  2 by 2 by 2 MPI processor grid
  pair style reaxff stores no restart info
  350 atoms
Finding 1-2 1-3 1-4 neighbors ...
  special bond factors lj:    0        0        0       
  special bond factors coul:  0        0        0       
     0 = max # of 1-2 neighbors
     0 = max # of 1-3 neighbors
     0 = max # of 1-4 neighbors
     1 = max # of special neighbors
  special bonds CPU = 0.000 seconds
  read_restart CPU = 0.003 seconds
*****debug*****
xy = -6.2626999999999997115, deltaxy = 0.062627
xz = -0.4481999999999999873, deltaxz = 0.004482
yz = -0.6420000000000000151, deltayz = 0.00642
*****
*****Negative-deform 2 starts.*****
WARNING: Van der Waals parameters for element SI indicate inner wall+shielding, but earlier atoms indicate a different van der Waals method. This may cause division-by-zero errors. Keeping van der Waals setting for earlier atoms. (src/REAXFF/reaxff_ffield.cpp:251)
Neighbor list info ...
  update: every = 10 steps, delay = 0 steps, check = yes
  max neighbors/atom: 2000, page size: 100000
  master list distance cutoff = 12
  ghost atom cutoff = 12
  binsize = 6, bins = 4 3 3
  2 neighbor lists, perpetual/occasional/extra = 2 0 0
  (1) pair reaxff, perpetual
      attributes: half, newton off, ghost
      pair build: half/bin/newtoff/ghost
      stencil: full/ghost/bin/3d
      bin: standard
  (2) fix qeq/reaxff, perpetual, copy from (1)
      attributes: half, newton off
      pair build: copy
      stencil: none
      bin: none
Setting up Verlet run ...
  Unit style    : real
  Current step  : 0
  Time step     : 0.5
Per MPI rank memory allocation (min/avg/max) = 122.5 | 124 | 125.3 Mbytes
   Step          Temp          PotEng         Press          Volume    
         0   298.51673     -36100.141      12843.044      3758.8201    
       100   305.00146     -36105.605      25324.394      3758.0683    
       200   321.05221     -36112.319     -215.78524      3757.3166    
       300   303.86969     -36081.931     -7291.7456      3756.5648    
       400   319.12204     -36110.042     -1985.7877      3755.8131    
       500   304.28685     -36122.167     -2419.9923      3755.0613    
       600   297.16174     -36122.086      9984.901       3754.3095    
       700   301.01352     -36114.671     -14363.548      3753.5578    
       800   319.38423     -36097.784      11988.765      3752.806     
       900   297.92812     -36061.629     -1459.7844      3752.0542    
      1000   307.47333     -36092.993     -8694.1216      3751.3025    
      1100   289.55262     -36101.388      9255.558       3750.5507    
      1200   288.54576     -36108.339      5494.9734      3749.7989    
      1300   306.90512     -36114.256     -8281.6376      3749.0472    
      1400   297.03354     -36079.469      4925.4439      3748.2954    
      1500   338.18956     -36091.409     -10387.518      3747.5436    
      1600   305.25011     -36078.668     -13043.174      3746.7919    
      1700   290.40512     -36086.919      7392.0957      3746.0401    
      1800   282.75741     -36090.597      330.12413      3745.2884    
      1900   308.29899     -36126.048     -4066.0179      3744.5366    
      2000   292.14707     -36109.395     -949.79386      3743.7848    
      2100   310.82522     -36121.785      10920.04       3743.0331    
      2200   299.1402      -36095.256     -6960.9283      3742.2813    
      2300   305.73879     -36086.852      5470.7227      3741.5295    
      2400   307.64068     -36096.297     -927.65006      3740.7778    
      2500   304.37902     -36126.795     -3669.9768      3740.026     
      2600   286.17022     -36113.066      11636.124      3739.2742    
      2700   303.7488      -36124.409      10206.538      3738.5225    
      2800   307.7511      -36108.252      8590.1533      3737.7707    
      2900   310.62913     -36080.259      4893.8149      3737.019     
      3000   291.62553     -36064.473      12246.582      3736.2672    
      3100   311.92361     -36102.35       16705.984      3735.5154    
      3200   289.85473     -36093.18       8991.1216      3734.7637    
      3300   285.30169     -36097.029      9671.6052      3734.0119    
      3400   303.68384     -36114.186      3905.2094      3733.2601    
      3500   305.90299     -36093.05       4943.149       3732.5084    
      3600   316.48131     -36091.985     -12856.3        3731.7566    
      3700   293.81133     -36100.283      23173.026      3731.0048    
      3800   303.7883      -36120.938      2961.6201      3730.2531    
      3900   286.85355     -36105.252     -2419.5826      3729.5013    
      4000   322.56934     -36124.867     -2742.1495      3728.7495    
      4100   328.2691      -36095.268     -5772.6761      3727.9978    
      4200   326.67731     -36100.819     -3963.7145      3727.246     
      4300   298.78993     -36087.824      3893.1468      3726.4943    
      4400   295.17896     -36096.612     -2536.1573      3725.7425    
      4500   296.02819     -36104.215      3719.0644      3724.9907    
      4600   288.03537     -36106.667     -11350.33       3724.239     
      4700   285.93038     -36115.86       2318.8363      3723.4872    
      4800   268.25371     -36093.305     -6225.0866      3722.7354    
      4900   305.77913     -36101.802     -9824.6421      3721.9837    
      5000   308.80086     -36093.892      4378.1748      3721.2319    
Loop time of 201.82 on 16 procs for 5000 steps with 350 atoms

Performance: 1.070 ns/day, 22.424 hours/ns, 24.775 timesteps/s, 8.671 katom-step/s
99.0% CPU use with 8 MPI tasks x 2 OpenMP threads

MPI task timing breakdown:
Section |  min time  |  avg time  |  max time  |%varavg| %total
---------------------------------------------------------------
Pair    | 118.85     | 145.91     | 179.86     | 200.4 | 72.29
Bond    | 0.012514   | 0.013175   | 0.014478   |   0.5 |  0.01
Neigh   | 1.5398     | 1.8251     | 2.2079     |  21.1 |  0.90
Comm    | 1.6358     | 35.608     | 62.665     | 405.9 | 17.64
Output  | 0.015089   | 0.041082   | 0.093045   |  13.8 |  0.02
Modify  | 17.919     | 18.31      | 18.593     |   6.6 |  9.07
Other   |            | 0.1169     |            |       |  0.06

Nlocal:          43.75 ave          53 max          31 min
Histogram: 1 1 0 0 0 0 4 0 1 1
Nghost:        3166.38 ave        3205 max        3134 min
Histogram: 1 0 1 2 2 0 0 0 1 1
Neighs:        28775.5 ave       34753 max       20671 min
Histogram: 1 1 0 0 0 0 4 0 1 1

Total # of neighbors = 230204
Ave neighs/atom = 657.72571
Ave special neighs/atom = 0
Neighbor list builds = 68
Dangerous builds = 0
  using 2 OpenMP thread(s) per MPI task
Reading restart file ...
  restart file = 2 Aug 2023, LAMMPS = 2 Aug 2023
  restoring atom style full from restart
  triclinic box = (0 0 0) to (15.2382 14.5028 17.0085) with tilt (-6.2627 -0.4482 -0.642)
  2 by 2 by 2 MPI processor grid
  pair style reaxff stores no restart info
  350 atoms
Finding 1-2 1-3 1-4 neighbors ...
  special bond factors lj:    0        0        0       
  special bond factors coul:  0        0        0       
     0 = max # of 1-2 neighbors
     0 = max # of 1-3 neighbors
     0 = max # of 1-4 neighbors
     1 = max # of special neighbors
  special bonds CPU = 0.000 seconds
  read_restart CPU = 0.003 seconds
*****Positive-deform 2 starts.*****
WARNING: Van der Waals parameters for element SI indicate inner wall+shielding, but earlier atoms indicate a different van der Waals method. This may cause division-by-zero errors. Keeping van der Waals setting for earlier atoms. (src/REAXFF/reaxff_ffield.cpp:251)
Neighbor list info ...
  update: every = 10 steps, delay = 0 steps, check = yes
  max neighbors/atom: 2000, page size: 100000
  master list distance cutoff = 12
  ghost atom cutoff = 12
  binsize = 6, bins = 4 3 3
  2 neighbor lists, perpetual/occasional/extra = 2 0 0
  (1) pair reaxff, perpetual
      attributes: half, newton off, ghost
      pair build: half/bin/newtoff/ghost
      stencil: full/ghost/bin/3d
      bin: standard
  (2) fix qeq/reaxff, perpetual, copy from (1)
      attributes: half, newton off
      pair build: copy
      stencil: none
      bin: none
Setting up Verlet run ...
  Unit style    : real
  Current step  : 0
  Time step     : 0.5
Per MPI rank memory allocation (min/avg/max) = 122.5 | 124 | 125.4 Mbytes
   Step          Temp          PotEng         Press          Volume    
         0   298.51673     -36100.141      12843.044      3758.8201    
       100   305.00443     -36105.606      25313.913      3759.5719    
       200   320.87583     -36112.513     -769.99212      3760.3236    
       300   304.2756      -36081.16      -8267.476       3761.0754    
       400   321.23561     -36109.833     -2467.3423      3761.8272    
       500   303.34644     -36120.253     -2664.89        3762.5789    
       600   297.11462     -36121.787      9673.4337      3763.3307    
       700   304.45284     -36118.72      -14476.302      3764.0825    
       800   311.1168      -36100.943      14908.778      3764.8342    
       900   299.30896     -36056.673      2820.4925      3765.586     
      1000   306.11435     -36078.958     -520.113        3766.3377    
      1100   297.41909     -36093.227      2339.3008      3767.0895    
      1200   289.74668     -36100.437      468.59472      3767.8413    
      1300   299.84812     -36111.425     -11359.459      3768.593     
      1400   271.3645      -36097.008     -2663.9131      3769.3448    
      1500   283.09562     -36126.935     -9909.9803      3770.0966    
      1600   288.36127     -36124.956     -5879.818       3770.8483    
      1700   289.39363     -36091.317      11069.744      3771.6001    
      1800   302.9282      -36097.422      3778.6105      3772.3519    
      1900   307.15215     -36108.458      7050.0331      3773.1036    
      2000   304.06462     -36123.154      12141.997      3773.8554    
      2100   258.67789     -36110.102      1750.3845      3774.6072    
      2200   292.86096     -36140.38       5283.9077      3775.3589    
      2300   280.34536     -36104.95      -4863.9234      3776.1107    
      2400   293.74295     -36103.811     -3033.9771      3776.8624    
      2500   295.46862     -36101.989      15600.636      3777.6142    
      2600   279.26744     -36092.047      1485.7247      3778.366     
      2700   283.72321     -36106.959      5917.4218      3779.1177    
      2800   294.42268     -36116.434      5002.3942      3779.8695    
      2900   304.45589     -36115.101     -12122.967      3780.6213    
      3000   302.7372      -36087.705      3989.1653      3781.373     
      3100   321.10255     -36100.224     -2769.1592      3782.1248    
      3200   294.78531     -36098.598     -5910.9198      3782.8766    
      3300   286.89127     -36120.948      548.12009      3783.6283    
      3400   300.21412     -36132.193      10686.804      3784.3801    
      3500   301.12679     -36113.668     -5487.2453      3785.1318    
      3600   324.74572     -36115.494     -3515.0854      3785.8836    
      3700   299.04778     -36094.667     -7850.9078      3786.6354    
      3800   292.81242     -36104.259     -14025.445      3787.3871    
      3900   312.28437     -36136.961      1456.3822      3788.1389    
      4000   289.91141     -36107.744      2887.64        3788.8907    
      4100   307.1188      -36122.339      3843.417       3789.6424    
      4200   304.501       -36106.115      13594.478      3790.3942    
      4300   316.92361     -36104.347     -67.226893      3791.146     
      4400   311.24489     -36104.832     -2223.7809      3791.8977    
      4500   315.2222      -36143.664      1923.9388      3792.6495    
      4600   298.74159     -36136.415      7906.8987      3793.4013    
      4700   298.80616     -36126.999     -7274.1836      3794.153     
      4800   319.42526     -36121.353     -11321.329      3794.9048    
      4900   310.19535     -36104.219      484.84874      3795.6565    
      5000   313.32002     -36115.003      1546.5533      3796.4083    
Loop time of 201.502 on 16 procs for 5000 steps with 350 atoms

Performance: 1.072 ns/day, 22.389 hours/ns, 24.814 timesteps/s, 8.685 katom-step/s
99.0% CPU use with 8 MPI tasks x 2 OpenMP threads

MPI task timing breakdown:
Section |  min time  |  avg time  |  max time  |%varavg| %total
---------------------------------------------------------------
Pair    | 122.48     | 153.19     | 177.28     | 173.3 | 76.02
Bond    | 0.01257    | 0.013242   | 0.014321   |   0.5 |  0.01
Neigh   | 1.699      | 2.1466     | 2.4307     |  17.9 |  1.07
Comm    | 2.7042     | 26.806     | 57.503     | 414.3 | 13.30
Output  | 0.015467   | 0.040396   | 0.090209   |  13.3 |  0.02
Modify  | 18.892     | 19.191     | 19.643     |   6.1 |  9.52
Other   |            | 0.1202     |            |       |  0.06

Nlocal:          43.75 ave          51 max          30 min
Histogram: 1 0 0 1 0 0 0 3 1 2
Nghost:        3105.75 ave        3154 max        3068 min
Histogram: 1 1 2 0 0 2 0 0 1 1
Neighs:          28186 ave       32753 max       19652 min
Histogram: 1 0 0 1 0 0 0 3 1 2

Total # of neighbors = 225488
Ave neighs/atom = 644.25143
Ave special neighs/atom = 0
Neighbor list builds = 76
Dangerous builds = 0
  using 2 OpenMP thread(s) per MPI task
Reading restart file ...
  restart file = 2 Aug 2023, LAMMPS = 2 Aug 2023
  restoring atom style full from restart
  triclinic box = (0 0 0) to (15.2382 14.5028 17.0085) with tilt (-6.2627 -0.4482 -0.642)
  2 by 2 by 2 MPI processor grid
  pair style reaxff stores no restart info
  350 atoms
Finding 1-2 1-3 1-4 neighbors ...
  special bond factors lj:    0        0        0       
  special bond factors coul:  0        0        0       
     0 = max # of 1-2 neighbors
     0 = max # of 1-3 neighbors
     0 = max # of 1-4 neighbors
     1 = max # of special neighbors
  special bonds CPU = 0.000 seconds
  read_restart CPU = 0.003 seconds
*****debug*****
xy = -6.2626999999999997115, deltaxy = 0.062627
xz = -0.4481999999999999873, deltaxz = 0.004482
yz = -0.6420000000000000151, deltayz = 0.00642
*****
*****Negative-deform 3 starts.*****
WARNING: Van der Waals parameters for element SI indicate inner wall+shielding, but earlier atoms indicate a different van der Waals method. This may cause division-by-zero errors. Keeping van der Waals setting for earlier atoms. (src/REAXFF/reaxff_ffield.cpp:251)
Neighbor list info ...
  update: every = 10 steps, delay = 0 steps, check = yes
  max neighbors/atom: 2000, page size: 100000
  master list distance cutoff = 12
  ghost atom cutoff = 12
  binsize = 6, bins = 4 3 3
  2 neighbor lists, perpetual/occasional/extra = 2 0 0
  (1) pair reaxff, perpetual
      attributes: half, newton off, ghost
      pair build: half/bin/newtoff/ghost
      stencil: full/ghost/bin/3d
      bin: standard
  (2) fix qeq/reaxff, perpetual, copy from (1)
      attributes: half, newton off
      pair build: copy
      stencil: none
      bin: none
Setting up Verlet run ...
  Unit style    : real
  Current step  : 0
  Time step     : 0.5
Per MPI rank memory allocation (min/avg/max) = 122.5 | 124 | 125.3 Mbytes
   Step          Temp          PotEng         Press          Volume    
         0   298.51673     -36100.141      12843.044      3758.8201    
       100   305.00038     -36105.598      25312.618      3758.0683    
       200   320.9832      -36112.381     -489.98426      3757.3166    
       300   303.78312     -36081.616     -7395.3925      3756.5648    
       400   320.73393     -36111.083     -1253.4866      3755.8131    
       500   303.1214      -36121.106     -1244.7265      3755.0613    
       600   295.24333     -36120.896      10710.769      3754.3095    
       700   301.06429     -36114.827     -13254.629      3753.5578    
       800   311.87471     -36096.351      13935.023      3752.806     
       900   305.52837     -36068.804     -2378.1774      3752.0542    
      1000   305.32537     -36085.561     -4349.5094      3751.3025    
      1100   292.89586     -36099.712      9499.7594      3750.5507    
      1200   293.24286     -36113.454     -372.25469      3749.7989    
      1300   296.84649     -36113.294     -6731.671       3749.0472    
      1400   285.17893     -36087.116      6784.0668      3748.2954    
      1500   328.02587     -36100.637     -20419.943      3747.5436    
      1600   317.7094      -36090.527     -7731.4027      3746.7919    
      1700   288.93136     -36093.484      18282.126      3746.0401    
      1800   300.3629      -36112.962      9078.2861      3745.2884    
      1900   309.18835     -36116.979      5257.3697      3744.5366    
      2000   314.27166     -36111.824      6410.3464      3743.7848    
      2100   310.19261     -36109.545     -719.49571      3743.0331    
      2200   293.04644     -36116.538     -15069.897      3742.2813    
      2300   297.02192     -36134.32       4702.4209      3741.5295    
      2400   305.08154     -36128.705      9265.3325      3740.7778    
      2500   304.65343     -36095.29       5005.4749      3740.026     
      2600   300.68055     -36086.04       12812.47       3739.2742    
      2700   297.14726     -36098.82       3800.347       3738.5225    
      2800   298.52204     -36120.176      774.2986       3737.7707    
      2900   298.96108     -36120.995     -6153.5262      3737.019     
      3000   296.9545      -36108.891      3615.2589      3736.2672    
      3100   291.73976     -36097.366      9863.7967      3735.5154    
      3200   314.40301     -36118.848     -7189.3101      3734.7637    
      3300   296.1651      -36102.13       5976.3658      3734.0119    
      3400   292.97867     -36124.156     -1125.4377      3733.2601    
      3500   292.87927     -36142.66       8574.1323      3732.5084    
      3600   287.69345     -36117.506      9588.0164      3731.7566    
      3700   277.81132     -36090.141      4532.0029      3731.0048    
      3800   294.90353     -36100.799      5128.8011      3730.2531    
      3900   320.25247     -36126.388      17035.328      3729.5013    
      4000   298.14948     -36129.963      8286.3955      3728.7495    
      4100   282.21812     -36129.326     -5402.7592      3727.9978    
      4200   311.36685     -36140.865     -1172.4136      3727.246     
      4300   287.24028     -36099.368      5837.063       3726.4943    
      4400   312.35451     -36115.555      5871.1567      3725.7425    
      4500   298.7915      -36094.211      19558.392      3724.9907    
      4600   329.1064      -36127.554      16319.004      3724.239     
      4700   283.03322     -36100.321     -4210.1938      3723.4872    
      4800   276.94952     -36108.951      10777.159      3722.7354    
      4900   301.04795     -36109.396      6535.3496      3721.9837    
      5000   301.91147     -36089.499      12720.892      3721.2319    
Loop time of 203.211 on 16 procs for 5000 steps with 350 atoms

Performance: 1.063 ns/day, 22.579 hours/ns, 24.605 timesteps/s, 8.612 katom-step/s
99.0% CPU use with 8 MPI tasks x 2 OpenMP threads

MPI task timing breakdown:
Section |  min time  |  avg time  |  max time  |%varavg| %total
---------------------------------------------------------------
Pair    | 120.22     | 149.15     | 181.12     | 204.7 | 73.40
Bond    | 0.012798   | 0.013411   | 0.014349   |   0.4 |  0.01
Neigh   | 1.7807     | 2.1742     | 2.5814     |  23.3 |  1.07
Comm    | 1.4184     | 33.387     | 62.294     | 432.6 | 16.43
Output  | 0.015222   | 0.040556   | 0.091384   |  13.5 |  0.02
Modify  | 17.924     | 18.329     | 18.735     |   8.3 |  9.02
Other   |            | 0.1183     |            |       |  0.06

Nlocal:          43.75 ave          52 max          31 min
Histogram: 1 0 1 0 0 0 2 2 1 1
Nghost:           3185 ave        3225 max        3153 min
Histogram: 1 1 0 2 2 0 0 0 1 1
Neighs:        28744.4 ave       34082 max       20696 min
Histogram: 1 0 1 0 0 0 2 2 1 1

Total # of neighbors = 229955
Ave neighs/atom = 657.01429
Ave special neighs/atom = 0
Neighbor list builds = 79
Dangerous builds = 0
  using 2 OpenMP thread(s) per MPI task
Reading restart file ...
  restart file = 2 Aug 2023, LAMMPS = 2 Aug 2023
  restoring atom style full from restart
  triclinic box = (0 0 0) to (15.2382 14.5028 17.0085) with tilt (-6.2627 -0.4482 -0.642)
  2 by 2 by 2 MPI processor grid
  pair style reaxff stores no restart info
  350 atoms
Finding 1-2 1-3 1-4 neighbors ...
  special bond factors lj:    0        0        0       
  special bond factors coul:  0        0        0       
     0 = max # of 1-2 neighbors
     0 = max # of 1-3 neighbors
     0 = max # of 1-4 neighbors
     1 = max # of special neighbors
  special bonds CPU = 0.000 seconds
  read_restart CPU = 0.003 seconds
*****Positive-deform 3 starts.*****
WARNING: Van der Waals parameters for element SI indicate inner wall+shielding, but earlier atoms indicate a different van der Waals method. This may cause division-by-zero errors. Keeping van der Waals setting for earlier atoms. (src/REAXFF/reaxff_ffield.cpp:251)
Neighbor list info ...
  update: every = 10 steps, delay = 0 steps, check = yes
  max neighbors/atom: 2000, page size: 100000
  master list distance cutoff = 12
  ghost atom cutoff = 12
  binsize = 6, bins = 4 3 3
  2 neighbor lists, perpetual/occasional/extra = 2 0 0
  (1) pair reaxff, perpetual
      attributes: half, newton off, ghost
      pair build: half/bin/newtoff/ghost
      stencil: full/ghost/bin/3d
      bin: standard
  (2) fix qeq/reaxff, perpetual, copy from (1)
      attributes: half, newton off
      pair build: copy
      stencil: none
      bin: none
Setting up Verlet run ...
  Unit style    : real
  Current step  : 0
  Time step     : 0.5
Per MPI rank memory allocation (min/avg/max) = 122.5 | 124 | 125.3 Mbytes
   Step          Temp          PotEng         Press          Volume    
         0   298.51673     -36100.141      12843.044      3758.8201    
       100   305.0056      -36105.613      25325.724      3759.5719    
       200   320.73583     -36112.268     -950.04826      3760.3236    
       300   304.03079     -36081.411     -8416.6826      3761.0754    
       400   320.17272     -36109.445     -2792.042       3761.8272    
       500   303.0215      -36119.988     -3582.4712      3762.5789    
       600   298.08479     -36122.157      9004.5325      3763.3307    
       700   302.73075     -36118.202     -15051.642      3764.0825    
       800   314.03944     -36100.277      14668.201      3764.8342    
       900   296.22583     -36056.993      1571.7551      3765.586     
      1000   294.78181     -36075.025     -58.658314      3766.3377    
      1100   305.26103     -36107.635      155.33301      3767.0895    
      1200   284.21007     -36092.811      1450.5143      3767.8413    
      1300   314.33211     -36121.023     -6419.2983      3768.593     
      1400   273.9072      -36091.385      430.08778      3769.3448    
      1500   301.82828     -36134.22      -4120.6212      3770.0966    
      1600   292.13772     -36113.265     -5986.4864      3770.8483    
      1700   300.87288     -36092.652      3006.6249      3771.6001    
      1800   301.68782     -36083.584      655.19028      3772.3519    
      1900   321.28433     -36118.674      3376.4898      3773.1036    
      2000   297.55889     -36108.464      18851.369      3773.8554    
      2100   320.06552     -36134.334      398.38775      3774.6072    
      2200   290.64357     -36102.417      2826.7601      3775.3589    
      2300   305.6452      -36106.913      2195.7586      3776.1107    
      2400   289.17221     -36067.382      1733.2058      3776.8624    
      2500   326.5831      -36104.896      8593.2314      3777.6142    
      2600   292.86786     -36104.172      11460.404      3778.366     
      2700   302.57934     -36123.934      17209.152      3779.1177    
      2800   282.87482     -36103.511     -6653.6223      3779.8695    
      2900   307.471       -36107.23      -967.19377      3780.6213    
      3000   295.936       -36067.462      447.13646      3781.373     
      3100   313.98307     -36089.236      8435.0554      3782.1248    
      3200   291.45762     -36077.64       15712.069      3782.8766    
      3300   301.27992     -36096.361      1299.8637      3783.6283    
      3400   308.6093      -36109.505      16443.157      3784.3801    
      3500   298.77874     -36113.031     -726.10188      3785.1318    
      3600   265.03925     -36102.298      956.27485      3785.8836    
      3700   284.20648     -36126.186      18891.477      3786.6354    
      3800   298.67479     -36103.835      10993.858      3787.3871    
      3900   293.97371     -36081.359      16497.056      3788.1389    
      4000   305.67563     -36091.368     -4918.5725      3788.8907    
      4100   295.8382      -36101.638     -6849.6342      3789.6424    
      4200   274.57402     -36100.267     -12259.306      3790.3942    
      4300   283.33084     -36103.866     -9852.1563      3791.146     
      4400   312.57924     -36124.237      5367.0453      3791.8977    
      4500   286.22083     -36094.047      2629.8698      3792.6495    
      4600   312.01827     -36118.987      14529.742      3793.4013    
      4700   303.54356     -36112.788     -2029.5679      3794.153     
      4800   293.32575     -36120.954      7237.7512      3794.9048    
      4900   274.59578     -36103.187     -7065.6149      3795.6565    
      5000   306.55749     -36108.61       4767.3167      3796.4083    
Loop time of 200.318 on 16 procs for 5000 steps with 350 atoms

Performance: 1.078 ns/day, 22.258 hours/ns, 24.960 timesteps/s, 8.736 katom-step/s
99.0% CPU use with 8 MPI tasks x 2 OpenMP threads

MPI task timing breakdown:
Section |  min time  |  avg time  |  max time  |%varavg| %total
---------------------------------------------------------------
Pair    | 114.24     | 143.77     | 178.09     | 202.4 | 71.77
Bond    | 0.012681   | 0.013323   | 0.014772   |   0.5 |  0.01
Neigh   | 1.5689     | 1.8869     | 2.2866     |  22.5 |  0.94
Comm    | 1.683      | 36.004     | 65.522     | 404.2 | 17.97
Output  | 0.014334   | 0.035253   | 0.077144   |  12.0 |  0.02
Modify  | 18.076     | 18.494     | 18.825     |   7.5 |  9.23
Other   |            | 0.1139     |            |       |  0.06

Nlocal:          43.75 ave          51 max          33 min
Histogram: 1 1 0 0 0 0 2 2 0 2
Nghost:        3129.88 ave        3165 max        3095 min
Histogram: 2 0 1 0 1 1 0 0 2 1
Neighs:        28215.4 ave       32701 max       21570 min
Histogram: 1 1 0 0 0 0 2 2 0 2

Total # of neighbors = 225723
Ave neighs/atom = 644.92286
Ave special neighs/atom = 0
Neighbor list builds = 71
Dangerous builds = 0
  using 2 OpenMP thread(s) per MPI task
Reading restart file ...
  restart file = 2 Aug 2023, LAMMPS = 2 Aug 2023
  restoring atom style full from restart
  triclinic box = (0 0 0) to (15.2382 14.5028 17.0085) with tilt (-6.2627 -0.4482 -0.642)
  2 by 2 by 2 MPI processor grid
  pair style reaxff stores no restart info
  350 atoms
Finding 1-2 1-3 1-4 neighbors ...
  special bond factors lj:    0        0        0       
  special bond factors coul:  0        0        0       
     0 = max # of 1-2 neighbors
     0 = max # of 1-3 neighbors
     0 = max # of 1-4 neighbors
     1 = max # of special neighbors
  special bonds CPU = 0.000 seconds
  read_restart CPU = 0.003 seconds
*****debug*****
xy = -6.2626999999999997115, deltaxy = 0.062627
xz = -0.4481999999999999873, deltaxz = 0.004482
yz = -0.6420000000000000151, deltayz = 0.00642
*****
*****Negative-deform 4 starts.*****
WARNING: Van der Waals parameters for element SI indicate inner wall+shielding, but earlier atoms indicate a different van der Waals method. This may cause division-by-zero errors. Keeping van der Waals setting for earlier atoms. (src/REAXFF/reaxff_ffield.cpp:251)
Neighbor list info ...
  update: every = 10 steps, delay = 0 steps, check = yes
  max neighbors/atom: 2000, page size: 100000
  master list distance cutoff = 12
  ghost atom cutoff = 12
  binsize = 6, bins = 4 3 3
  2 neighbor lists, perpetual/occasional/extra = 2 0 0
  (1) pair reaxff, perpetual
      attributes: half, newton off, ghost
      pair build: half/bin/newtoff/ghost
      stencil: full/ghost/bin/3d
      bin: standard
  (2) fix qeq/reaxff, perpetual, copy from (1)
      attributes: half, newton off
      pair build: copy
      stencil: none
      bin: none
Setting up Verlet run ...
  Unit style    : real
  Current step  : 0
  Time step     : 0.5
Per MPI rank memory allocation (min/avg/max) = 122.5 | 124 | 125.3 Mbytes
   Step          Temp          PotEng         Press          Volume    
         0   298.51673     -36100.141      12843.044      3758.8201    
       100   305.00547     -36105.598      25321.51       3758.8201    
       200   320.89902     -36112.212     -646.33994      3758.8201    
       300   303.81336     -36081.764     -7931.7475      3758.8201    
       400   319.73642     -36110.191     -1620.0269      3758.8201    
       500   303.5957      -36121.512     -1990.1814      3758.8201    
       600   296.72581     -36121.847      10593.882      3758.8201    
       700   301.74401     -36115.561     -15894.45       3758.8201    
       800   314.1875      -36095.671      15106.384      3758.8201    
       900   299.34816     -36060.986      349.66968      3758.8201    
      1000   301.86316     -36082.907     -5400.1828      3758.8201    
      1100   289.89246     -36096.333      4285.5768      3758.8201    
      1200   288.14894     -36106.053      946.89537      3758.8201    
      1300   291.58768     -36104.939     -10010.078      3758.8201    
      1400   289.69391     -36077.205     -1464.1865      3758.8201    
      1500   329.43015     -36093.89      -18845.691      3758.8201    
      1600   316.62677     -36099.241     -7218.934       3758.8201    
      1700   301.00713     -36101.106      4436.1584      3758.8201    
      1800   296.08116     -36099.979      2173.68        3758.8201    
      1900   299.11508     -36107.963      16990.483      3758.8201    
      2000   300.28505     -36115.771      18566.025      3758.8201    
      2100   279.75334     -36109.904      9719.9308      3758.8201    
      2200   293.54119     -36120.118      869.42384      3758.8201    
      2300   295.25944     -36093.684     -1447.6234      3758.8201    
      2400   313.70043     -36105.715     -7707.2824      3758.8201    
      2500   298.78185     -36117.242      200.46495      3758.8201    
      2600   287.26957     -36118.731      13009.921      3758.8201    
      2700   278.22773     -36100.548      7029.4288      3758.8201    
      2800   309.86429     -36124.519     -5203.9218      3758.8201    
      2900   299.7767      -36109.362      9433.1719      3758.8201    
      3000   313.52667     -36108.857      10372.377      3758.8201    
      3100   308.08327     -36097.452     -1821.9119      3758.8201    
      3200   311.97474     -36114.404      6330.7973      3758.8201    
      3300   279.46234     -36106.625     -3175.3561      3758.8201    
      3400   298.05056     -36129.253     -10687.072      3758.8201    
      3500   299.00278     -36114.869      6064.9471      3758.8201    
      3600   302.09775     -36083.106      24613.844      3758.8201    
      3700   301.79729     -36080.649      2586.4203      3758.8201    
      3800   324.85772     -36116.571     -2785.73        3758.8201    
      3900   291.07904     -36099.459     -3308.9882      3758.8201    
      4000   299.29478     -36113.919     -6004.7         3758.8201    
      4100   297.60297     -36107.52      -3987.7203      3758.8201    
      4200   293.5484      -36095.807      11185.43       3758.8201    
      4300   320.45794     -36098.916      2288.1265      3758.8201    
      4400   322.27087     -36086.922      20626.587      3758.8201    
      4500   296.86614     -36090.211      10737.979      3758.8201    
      4600   295.76858     -36112.841      5015.3422      3758.8201    
      4700   284.28507     -36098.171      347.93648      3758.8201    
      4800   297.06749     -36099.12      -1264.2693      3758.8201    
      4900   318.24093     -36098.766     -430.34728      3758.8201    
      5000   309.58343     -36103.455      8544.4169      3758.8201    
Loop time of 201.367 on 16 procs for 5000 steps with 350 atoms

Performance: 1.073 ns/day, 22.374 hours/ns, 24.830 timesteps/s, 8.691 katom-step/s
99.0% CPU use with 8 MPI tasks x 2 OpenMP threads

MPI task timing breakdown:
Section |  min time  |  avg time  |  max time  |%varavg| %total
---------------------------------------------------------------
Pair    | 114.9      | 148.73     | 178.99     | 221.0 | 73.86
Bond    | 0.012897   | 0.013512   | 0.014282   |   0.5 |  0.01
Neigh   | 1.6854     | 2.0707     | 2.4316     |  23.7 |  1.03
Comm    | 1.9835     | 32.24      | 66.048     | 474.6 | 16.01
Output  | 0.015647   | 0.04312    | 0.097528   |  14.2 |  0.02
Modify  | 17.769     | 18.151     | 18.556     |   8.3 |  9.01
Other   |            | 0.1192     |            |       |  0.06

Nlocal:          43.75 ave          47 max          35 min
Histogram: 1 0 0 1 0 0 1 0 0 5
Nghost:        3178.38 ave        3211 max        3144 min
Histogram: 1 1 0 2 0 0 2 0 0 2
Neighs:        28498.4 ave       30579 max       23044 min
Histogram: 1 0 0 1 0 0 1 0 1 4

Total # of neighbors = 227987
Ave neighs/atom = 651.39143
Ave special neighs/atom = 0
Neighbor list builds = 75
Dangerous builds = 0
  using 2 OpenMP thread(s) per MPI task
Reading restart file ...
  restart file = 2 Aug 2023, LAMMPS = 2 Aug 2023
  restoring atom style full from restart
  triclinic box = (0 0 0) to (15.2382 14.5028 17.0085) with tilt (-6.2627 -0.4482 -0.642)
  2 by 2 by 2 MPI processor grid
  pair style reaxff stores no restart info
  350 atoms
Finding 1-2 1-3 1-4 neighbors ...
  special bond factors lj:    0        0        0       
  special bond factors coul:  0        0        0       
     0 = max # of 1-2 neighbors
     0 = max # of 1-3 neighbors
     0 = max # of 1-4 neighbors
     1 = max # of special neighbors
  special bonds CPU = 0.000 seconds
  read_restart CPU = 0.003 seconds
*****Positive-deform 4 starts.*****
WARNING: Van der Waals parameters for element SI indicate inner wall+shielding, but earlier atoms indicate a different van der Waals method. This may cause division-by-zero errors. Keeping van der Waals setting for earlier atoms. (src/REAXFF/reaxff_ffield.cpp:251)
Neighbor list info ...
  update: every = 10 steps, delay = 0 steps, check = yes
  max neighbors/atom: 2000, page size: 100000
  master list distance cutoff = 12
  ghost atom cutoff = 12
  binsize = 6, bins = 4 3 3
  2 neighbor lists, perpetual/occasional/extra = 2 0 0
  (1) pair reaxff, perpetual
      attributes: half, newton off, ghost
      pair build: half/bin/newtoff/ghost
      stencil: full/ghost/bin/3d
      bin: standard
  (2) fix qeq/reaxff, perpetual, copy from (1)
      attributes: half, newton off
      pair build: copy
      stencil: none
      bin: none
Setting up Verlet run ...
  Unit style    : real
  Current step  : 0
  Time step     : 0.5
Per MPI rank memory allocation (min/avg/max) = 122.5 | 124 | 125.4 Mbytes
   Step          Temp          PotEng         Press          Volume    
         0   298.51673     -36100.141      12843.044      3758.8201    
       100   304.99819     -36105.615      25318.308      3758.8201    
       200   321.10874     -36112.625     -512.21552      3758.8201    
       300   304.23834     -36081.366     -7650.5099      3758.8201    
       400   321.19418     -36109.45      -2760.3219      3758.8201    
       500   303.1341      -36119.738     -3181.755       3758.8201    
       600   298.13419     -36122.368      10205.799      3758.8201    
       700   303.36272     -36118.248     -11949.077      3758.8201    
       800   311.54875     -36100.74       13459.444      3758.8201    
       900   295.45301     -36055.107      1075.9207      3758.8201    
      1000   307.22616     -36085.624     -2006.2907      3758.8201    
      1100   291.01233     -36095.372      3711.1254      3758.8201    
      1200   293.26464     -36107.716     -897.70992      3758.8201    
      1300   296.64264     -36106         -8577.8346      3758.8201    
      1400   289.06798     -36084.932      5881.1488      3758.8201    
      1500   324.36389     -36091.423     -14736.638      3758.8201    
      1600   307.19324     -36082.778     -9808.1536      3758.8201    
      1700   281.56746     -36085.964      4682.7638      3758.8201    
      1800   315.29693     -36126.435      2989.1773      3758.8201    
      1900   298.2953      -36105.684      1375.917       3758.8201    
      2000   302.33397     -36107.007      10137.437      3758.8201    
      2100   287.00066     -36102.907      10719.206      3758.8201    
      2200   300.48733     -36127.918     -7384.0199      3758.8201    
      2300   276.84086     -36105.742     -153.13377      3758.8201    
      2400   304.87736     -36116.286     -6895.1048      3758.8201    
      2500   305.08347     -36094.749      7648.5621      3758.8201    
      2600   307.7003      -36091.54       1253.8164      3758.8201    
      2700   300.21358     -36120.268      887.26107      3758.8201    
      2800   311.04649     -36146.619      3133.3477      3758.8201    
      2900   284.24046     -36106.664     -553.00979      3758.8201    
      3000   303.06908     -36102.137      15619.585      3758.8201    
      3100   329.71081     -36119.347     -4611.9219      3758.8201    
      3200   308.42138     -36108.157      17827.674      3758.8201    
      3300   282.31336     -36091.866      9965.8683      3758.8201    
      3400   298.92393     -36108.007      11392.542      3758.8201    
      3500   295.14864     -36104.386      7652.0523      3758.8201    
      3600   302.86106     -36120.535      15917.388      3758.8201    
      3700   291.9855      -36132.801      7256.2468      3758.8201    
      3800   279.32173     -36132.999      13434.889      3758.8201    
      3900   284.18724     -36110.77       20864.813      3758.8201    
      4000   306.02052     -36112.581      381.63216      3758.8201    
      4100   301.7366      -36106.093      415.63246      3758.8201    
      4200   301.80467     -36109.317      4179.8841      3758.8201    
      4300   300.37488     -36115.903     -7505.9334      3758.8201    
      4400   286.84013     -36110.767      2814.5134      3758.8201    
      4500   295.28402     -36121.188      6696.576       3758.8201    
      4600   286.52019     -36094.075     -10258.344      3758.8201    
      4700   316.09243     -36101.493     -3400.044       3758.8201    
      4800   326.82384     -36121.433     -7157.9365      3758.8201    
      4900   289.43742     -36105.569     -19.33895       3758.8201    
      5000   278.79755     -36094.502      12570.222      3758.8201    
Loop time of 201.842 on 16 procs for 5000 steps with 350 atoms

Performance: 1.070 ns/day, 22.427 hours/ns, 24.772 timesteps/s, 8.670 katom-step/s
99.0% CPU use with 8 MPI tasks x 2 OpenMP threads

MPI task timing breakdown:
Section |  min time  |  avg time  |  max time  |%varavg| %total
---------------------------------------------------------------
Pair    | 113.46     | 153.14     | 178.54     | 208.8 | 75.87
Bond    | 0.012952   | 0.013577   | 0.014431   |   0.4 |  0.01
Neigh   | 1.5278     | 1.9362     | 2.2162     |  20.7 |  0.96
Comm    | 2.5903     | 27.98      | 67.643     | 488.5 | 13.86
Output  | 0.015501   | 0.041923   | 0.094886   |  13.9 |  0.02
Modify  | 18.301     | 18.609     | 19.032     |   7.0 |  9.22
Other   |            | 0.1219     |            |       |  0.06

Nlocal:          43.75 ave          53 max          33 min
Histogram: 1 0 0 1 1 1 1 2 0 1
Nghost:        3142.12 ave        3192 max        3093 min
Histogram: 1 2 0 0 0 2 0 1 1 1
Neighs:        28472.2 ave       34207 max       21746 min
Histogram: 1 0 0 2 0 1 2 1 0 1

Total # of neighbors = 227778
Ave neighs/atom = 650.79429
Ave special neighs/atom = 0
Neighbor list builds = 69
Dangerous builds = 0
  using 2 OpenMP thread(s) per MPI task
Reading restart file ...
  restart file = 2 Aug 2023, LAMMPS = 2 Aug 2023
  restoring atom style full from restart
  triclinic box = (0 0 0) to (15.2382 14.5028 17.0085) with tilt (-6.2627 -0.4482 -0.642)
  2 by 2 by 2 MPI processor grid
  pair style reaxff stores no restart info
  350 atoms
Finding 1-2 1-3 1-4 neighbors ...
  special bond factors lj:    0        0        0       
  special bond factors coul:  0        0        0       
     0 = max # of 1-2 neighbors
     0 = max # of 1-3 neighbors
     0 = max # of 1-4 neighbors
     1 = max # of special neighbors
  special bonds CPU = 0.000 seconds
  read_restart CPU = 0.003 seconds
*****debug*****
xy = -6.2626999999999997115, deltaxy = 0.062627
xz = -0.4481999999999999873, deltaxz = 0.004482
yz = -0.6420000000000000151, deltayz = 0.00642
*****
*****Negative-deform 5 starts.*****
WARNING: Van der Waals parameters for element SI indicate inner wall+shielding, but earlier atoms indicate a different van der Waals method. This may cause division-by-zero errors. Keeping van der Waals setting for earlier atoms. (src/REAXFF/reaxff_ffield.cpp:251)
Neighbor list info ...
  update: every = 10 steps, delay = 0 steps, check = yes
  max neighbors/atom: 2000, page size: 100000
  master list distance cutoff = 12
  ghost atom cutoff = 12
  binsize = 6, bins = 4 3 3
  2 neighbor lists, perpetual/occasional/extra = 2 0 0
  (1) pair reaxff, perpetual
      attributes: half, newton off, ghost
      pair build: half/bin/newtoff/ghost
      stencil: full/ghost/bin/3d
      bin: standard
  (2) fix qeq/reaxff, perpetual, copy from (1)
      attributes: half, newton off
      pair build: copy
      stencil: none
      bin: none
Setting up Verlet run ...
  Unit style    : real
  Current step  : 0
  Time step     : 0.5
Per MPI rank memory allocation (min/avg/max) = 122.5 | 124 | 125.3 Mbytes
   Step          Temp          PotEng         Press          Volume    
         0   298.51673     -36100.141      12843.044      3758.8201    
       100   305.01027     -36105.608      25324.077      3758.8201    
       200   320.83669     -36112.184     -663.31126      3758.8201    
       300   303.11703     -36081.713     -7955.0698      3758.8201    
       400   319.67258     -36110.511     -2158.7905      3758.8201    
       500   303.43293     -36121.331     -2408.9967      3758.8201    
       600   297.65515     -36122.775      10694.362      3758.8201    
       700   302.67944     -36116.619     -16113.21       3758.8201    
       800   315.95619     -36095.776      15731.021      3758.8201    
       900   299.13808     -36062.438      150.97863      3758.8201    
      1000   299.4196      -36084.124     -5715.1367      3758.8201    
      1100   293.6557      -36102.752      1996.9379      3758.8201    
      1200   291.97766     -36109.254     -4394.3835      3758.8201    
      1300   297.87501     -36109.928     -8317.5249      3758.8201    
      1400   297.76713     -36089.498      287.37728      3758.8201    
      1500   324.54749     -36091.399     -14867.305      3758.8201    
      1600   318.64817     -36096.027     -2491.6357      3758.8201    
      1700   285.05613     -36096.999      9827.456       3758.8201    
      1800   284.30664     -36101.297      2678.2905      3758.8201    
      1900   298.44865     -36102.071     -2203.7936      3758.8201    
      2000   289.28443     -36073.014      16490.437      3758.8201    
      2100   309.57195     -36097.345     -3669.1285      3758.8201    
      2200   297.51745     -36120.908      14517.015      3758.8201    
      2300   296.6131      -36132.766      23387.352      3758.8201    
      2400   293.57114     -36115.91      -9280.3818      3758.8201    
      2500   320.22421     -36130.263      8575.5981      3758.8201    
      2600   301.34491     -36106.038      5497.7615      3758.8201    
      2700   292.79653     -36099.714     -1263.0536      3758.8201    
      2800   276.8473      -36083.649      18338.793      3758.8201    
      2900   309.52479     -36117.916      9562.1202      3758.8201    
      3000   277.25248     -36088.058      6757.281       3758.8201    
      3100   304.09458     -36111.719     -329.44474      3758.8201    
      3200   299.18436     -36099.453      4098.8153      3758.8201    
      3300   303.55046     -36102.425      10086.136      3758.8201    
      3400   295.95311     -36107.056      16446.424      3758.8201    
      3500   307.58703     -36137.951      15829.26       3758.8201    
      3600   305.90032     -36147.275     -5862.8099      3758.8201    
      3700   297.60628     -36132.362      13798.587      3758.8201    
      3800   305.1997      -36102.422      4937.7767      3758.8201    
      3900   310.61668     -36097.945      13345.035      3758.8201    
      4000   296.57684     -36095.457      14135.099      3758.8201    
      4100   297.60606     -36122.429      13226.825      3758.8201    
      4200   289.44269     -36118.79      -3700.7523      3758.8201    
      4300   312.25062     -36129.355      13565.812      3758.8201    
      4400   294.90259     -36104.928      22836.423      3758.8201    
      4500   297.10586     -36103.486      9149.7088      3758.8201    
      4600   285.35418     -36086.539      7404.2003      3758.8201    
      4700   312.70496     -36114.822      92.550199      3758.8201    
      4800   283.06431     -36105.99      -5608.2157      3758.8201    
      4900   292.76019     -36129.727      12977.365      3758.8201    
      5000   296.34776     -36118.648      11158.755      3758.8201    
Loop time of 203.576 on 16 procs for 5000 steps with 350 atoms

Performance: 1.061 ns/day, 22.620 hours/ns, 24.561 timesteps/s, 8.596 katom-step/s
98.9% CPU use with 8 MPI tasks x 2 OpenMP threads

MPI task timing breakdown:
Section |  min time  |  avg time  |  max time  |%varavg| %total
---------------------------------------------------------------
Pair    | 112.48     | 155.92     | 179.03     | 219.6 | 76.59
Bond    | 0.012567   | 0.013468   | 0.014229   |   0.4 |  0.01
Neigh   | 1.6053     | 2.0605     | 2.3346     |  21.7 |  1.01
Comm    | 3.2397     | 26.345     | 69.768     | 534.1 | 12.94
Output  | 0.015707   | 0.043152   | 0.098257   |  14.2 |  0.02
Modify  | 18.8       | 19.076     | 19.548     |   7.4 |  9.37
Other   |            | 0.1224     |            |       |  0.06

Nlocal:          43.75 ave          55 max          26 min
Histogram: 1 0 0 0 1 1 2 1 1 1
Nghost:        3167.88 ave        3203 max        3130 min
Histogram: 1 0 0 0 4 1 0 0 1 1
Neighs:          28443 ave       35586 max       17204 min
Histogram: 1 0 0 0 1 1 2 1 1 1

Total # of neighbors = 227544
Ave neighs/atom = 650.12571
Ave special neighs/atom = 0
Neighbor list builds = 72
Dangerous builds = 0
  using 2 OpenMP thread(s) per MPI task
Reading restart file ...
  restart file = 2 Aug 2023, LAMMPS = 2 Aug 2023
  restoring atom style full from restart
  triclinic box = (0 0 0) to (15.2382 14.5028 17.0085) with tilt (-6.2627 -0.4482 -0.642)
  2 by 2 by 2 MPI processor grid
  pair style reaxff stores no restart info
  350 atoms
Finding 1-2 1-3 1-4 neighbors ...
  special bond factors lj:    0        0        0       
  special bond factors coul:  0        0        0       
     0 = max # of 1-2 neighbors
     0 = max # of 1-3 neighbors
     0 = max # of 1-4 neighbors
     1 = max # of special neighbors
  special bonds CPU = 0.000 seconds
  read_restart CPU = 0.003 seconds
*****Positive-deform 5 starts.*****
WARNING: Van der Waals parameters for element SI indicate inner wall+shielding, but earlier atoms indicate a different van der Waals method. This may cause division-by-zero errors. Keeping van der Waals setting for earlier atoms. (src/REAXFF/reaxff_ffield.cpp:251)
Neighbor list info ...
  update: every = 10 steps, delay = 0 steps, check = yes
  max neighbors/atom: 2000, page size: 100000
  master list distance cutoff = 12
  ghost atom cutoff = 12
  binsize = 6, bins = 4 3 3
  2 neighbor lists, perpetual/occasional/extra = 2 0 0
  (1) pair reaxff, perpetual
      attributes: half, newton off, ghost
      pair build: half/bin/newtoff/ghost
      stencil: full/ghost/bin/3d
      bin: standard
  (2) fix qeq/reaxff, perpetual, copy from (1)
      attributes: half, newton off
      pair build: copy
      stencil: none
      bin: none
Setting up Verlet run ...
  Unit style    : real
  Current step  : 0
  Time step     : 0.5
Per MPI rank memory allocation (min/avg/max) = 122.5 | 124 | 125.4 Mbytes
   Step          Temp          PotEng         Press          Volume    
         0   298.51673     -36100.141      12843.044      3758.8201    
       100   304.99571     -36105.603      25314.391      3758.8201    
       200   321.25281     -36112.711     -458.46909      3758.8201    
       300   304.73399     -36081.3       -7800.1836      3758.8201    
       400   320.96303     -36109.161     -2200.4218      3758.8201    
       500   303.68119     -36120.52      -2559.8548      3758.8201    
       600   296.9198      -36121.422      9691.0484      3758.8201    
       700   300.79243     -36115.738     -11782.337      3758.8201    
       800   310.89766     -36100.433      13163.352      3758.8201    
       900   302.49974     -36063.911     -2902.6743      3758.8201    
      1000   310.14832     -36085.684     -4204.9564      3758.8201    
      1100   285.46672     -36084.009      4669.8041      3758.8201    
      1200   293.57967     -36108.895     -2218.9085      3758.8201    
      1300   296.42818     -36113.363     -5279.3682      3758.8201    
      1400   289.35131     -36090.579     -5236.5652      3758.8201    
      1500   323.98235     -36092.528     -21084.151      3758.8201    
      1600   316.86358     -36097.467     -11380.319      3758.8201    
      1700   294.17271     -36094.51       15121.406      3758.8201    
      1800   296.11354     -36107.834     -4076.4162      3758.8201    
      1900   292.81186     -36105.581     -5947.1716      3758.8201    
      2000   328.02544     -36126.882      1039.0998      3758.8201    
      2100   323.39115     -36079.21      -4436.9741      3758.8201    
      2200   339.86678     -36101.642     -13027.584      3758.8201    
      2300   285.56421     -36072.298      12137.649      3758.8201    
      2400   303.43291     -36106.059      7718.4481      3758.8201    
      2500   296.00096     -36118.184      12484.361      3758.8201    
      2600   286.53686     -36113.636     -744.29294      3758.8201    
      2700   293.19608     -36098.162     -476.81808      3758.8201    
      2800   318.20398     -36094.696     -6197.485       3758.8201    
      2900   301.27412     -36092.681      1389.2561      3758.8201    
      3000   292.08462     -36106.448      6937.2379      3758.8201    
      3100   306.36446     -36129.369     -359.04978      3758.8201    
      3200   302.25483     -36120.351     -2075.4151      3758.8201    
      3300   279.50044     -36092.945     -1698.9473      3758.8201    
      3400   319.22952     -36099.896      3832.9517      3758.8201    
      3500   314.27601     -36082.613      3786.1595      3758.8201    
      3600   307.66685     -36098.994      5349.7171      3758.8201    
      3700   287.78324     -36102.289      3469.8117      3758.8201    
      3800   296.49568     -36113.744      8595.2775      3758.8201    
      3900   291.32371     -36099.658     -511.94791      3758.8201    
      4000   307.05516     -36103.216     -11934.32       3758.8201    
      4100   310.76371     -36090.367      9725.4931      3758.8201    
      4200   322.96246     -36106.539     -7238.3189      3758.8201    
      4300   289.7318      -36107.288      7707.933       3758.8201    
      4400   286.32968     -36118.266      12164.558      3758.8201    
      4500   301.68776     -36121.804     -1305.124       3758.8201    
      4600   307.35783     -36108.045      10895.791      3758.8201    
      4700   307.31685     -36080.61       32149.785      3758.8201    
      4800   333.34693     -36081.457      1106.6882      3758.8201    
      4900   312.03945     -36102.075      13133.509      3758.8201    
      5000   302.121       -36106.473     -817.06504      3758.8201    
Loop time of 199.982 on 16 procs for 5000 steps with 350 atoms

Performance: 1.080 ns/day, 22.220 hours/ns, 25.002 timesteps/s, 8.751 katom-step/s
99.1% CPU use with 8 MPI tasks x 2 OpenMP threads

MPI task timing breakdown:
Section |  min time  |  avg time  |  max time  |%varavg| %total
---------------------------------------------------------------
Pair    | 112.71     | 146.04     | 176.67     | 192.6 | 73.03
Bond    | 0.011975   | 0.013181   | 0.014639   |   0.6 |  0.01
Neigh   | 1.6697     | 2.024      | 2.3915     |  19.6 |  1.01
Comm    | 2.4058     | 33.029     | 66.347     | 404.8 | 16.52
Output  | 0.014486   | 0.037354   | 0.083052   |  12.7 |  0.02
Modify  | 18.331     | 18.721     | 19.084     |   6.6 |  9.36
Other   |            | 0.1167     |            |       |  0.06

Nlocal:          43.75 ave          53 max          27 min
Histogram: 1 0 0 0 1 1 1 0 3 1
Nghost:        3171.25 ave        3197 max        3148 min
Histogram: 2 1 1 0 1 0 0 0 1 2
Neighs:        28508.5 ave       34290 max       17945 min
Histogram: 1 0 0 0 1 1 1 0 3 1

Total # of neighbors = 228068
Ave neighs/atom = 651.62286
Ave special neighs/atom = 0
Neighbor list builds = 74
Dangerous builds = 0
  using 2 OpenMP thread(s) per MPI task
Reading restart file ...
  restart file = 2 Aug 2023, LAMMPS = 2 Aug 2023
  restoring atom style full from restart
  triclinic box = (0 0 0) to (15.2382 14.5028 17.0085) with tilt (-6.2627 -0.4482 -0.642)
  2 by 2 by 2 MPI processor grid
  pair style reaxff stores no restart info
  350 atoms
Finding 1-2 1-3 1-4 neighbors ...
  special bond factors lj:    0        0        0       
  special bond factors coul:  0        0        0       
     0 = max # of 1-2 neighbors
     0 = max # of 1-3 neighbors
     0 = max # of 1-4 neighbors
     1 = max # of special neighbors
  special bonds CPU = 0.000 seconds
  read_restart CPU = 0.002 seconds
*****debug*****
xy = -6.2626999999999997115, deltaxy = 0.062627
xz = -0.4481999999999999873, deltaxz = 0.004482
yz = -0.6420000000000000151, deltayz = 0.00642
*****
*****Negative-deform 6 starts.*****
WARNING: Van der Waals parameters for element SI indicate inner wall+shielding, but earlier atoms indicate a different van der Waals method. This may cause division-by-zero errors. Keeping van der Waals setting for earlier atoms. (src/REAXFF/reaxff_ffield.cpp:251)
Neighbor list info ...
  update: every = 10 steps, delay = 0 steps, check = yes
  max neighbors/atom: 2000, page size: 100000
  master list distance cutoff = 12
  ghost atom cutoff = 12
  binsize = 6, bins = 4 3 3
  2 neighbor lists, perpetual/occasional/extra = 2 0 0
  (1) pair reaxff, perpetual
      attributes: half, newton off, ghost
      pair build: half/bin/newtoff/ghost
      stencil: full/ghost/bin/3d
      bin: standard
  (2) fix qeq/reaxff, perpetual, copy from (1)
      attributes: half, newton off
      pair build: copy
      stencil: none
      bin: none
Setting up Verlet run ...
  Unit style    : real
  Current step  : 0
  Time step     : 0.5
Per MPI rank memory allocation (min/avg/max) = 122.5 | 124 | 125.3 Mbytes
   Step          Temp          PotEng         Press          Volume    
         0   298.51673     -36100.141      12843.044      3758.8201    
       100   305.00255     -36105.605      25318.787      3758.8201    
       200   320.74842     -36112.213     -702.96247      3758.8201    
       300   303.55671     -36081.734     -7916.0701      3758.8201    
       400   320.2759      -36110.592     -2110.3886      3758.8201    
       500   303.36859     -36120.921     -2364.9887      3758.8201    
       600   297.51426     -36122.416      9865.2271      3758.8201    
       700   304.00084     -36117.738     -14581.977      3758.8201    
       800   314.1062      -36097.751      15465.035      3758.8201    
       900   297.0217      -36056.474      1718.9562      3758.8201    
      1000   301.64171     -36078.522     -2496.1177      3758.8201    
      1100   294.19714     -36096.358      3894.0491      3758.8201    
      1200   288.58244     -36106.37      -4645.5575      3758.8201    
      1300   301.51179     -36118.154     -18011.656      3758.8201    
      1400   286.2437      -36087.802     -3336.96        3758.8201    
      1500   330.92827     -36099.179     -15264.645      3758.8201    
      1600   309.96432     -36086.034     -7743.7732      3758.8201    
      1700   286.04166     -36080.977      4242.9318      3758.8201    
      1800   300.15904     -36107.803     -6494.3751      3758.8201    
      1900   311.16181     -36124.195      5075.753       3758.8201    
      2000   301.6797      -36110.445      837.35302      3758.8201    
      2100   309.8177      -36098.19       16035.92       3758.8201    
      2200   317.45702     -36082.038      1979.205       3758.8201    
      2300   314.12521     -36093.587      14220.06       3758.8201    
      2400   300.8409      -36112.061      985.05106      3758.8201    
      2500   302.93471     -36122.486      8403.3555      3758.8201    
      2600   289.19079     -36109.983      8162.2169      3758.8201    
      2700   310.08879     -36107.341     -3759.6127      3758.8201    
      2800   318.65992     -36098.9       -6576.3924      3758.8201    
      2900   305.97576     -36104.685      8164.346       3758.8201    
      3000   309.62335     -36116.745      6231.5891      3758.8201    
      3100   310.81323     -36119.319     -4906.0949      3758.8201    
      3200   297.08859     -36110.593      18945.198      3758.8201    
      3300   275.36046     -36104.723      4375.022       3758.8201    
      3400   294.34633     -36135.127      2805.0854      3758.8201    
      3500   307.75766     -36129.46       7626.4354      3758.8201    
      3600   297.37186     -36093.57       6443.6071      3758.8201    
      3700   321.39404     -36111.634      5879.4546      3758.8201    
      3800   291.25032     -36097.735      5094.2429      3758.8201    
      3900   302.59038     -36121.052      171.94502      3758.8201    
      4000   286.97395     -36100.773      2787.1719      3758.8201    
      4100   313.95861     -36118.878     -2094.2414      3758.8201    
      4200   304.22237     -36100.767      1122.936       3758.8201    
      4300   324.5892      -36126.35      -5382.4501      3758.8201    
      4400   275.78805     -36102.593     -4480.9631      3758.8201    
      4500   277.52763     -36109.096     -2935.9321      3758.8201    
      4600   308.46611     -36125.302      16720.05       3758.8201    
      4700   301.15655     -36084.591      5163.071       3758.8201    
      4800   312.89807     -36094.894      1998.7845      3758.8201    
      4900   303.48295     -36096.729      2018.9398      3758.8201    
      5000   313.18225     -36124.111      8527.9598      3758.8201    
Loop time of 190.757 on 16 procs for 5000 steps with 350 atoms

Performance: 1.132 ns/day, 21.195 hours/ns, 26.211 timesteps/s, 9.174 katom-step/s
99.1% CPU use with 8 MPI tasks x 2 OpenMP threads

MPI task timing breakdown:
Section |  min time  |  avg time  |  max time  |%varavg| %total
---------------------------------------------------------------
Pair    | 108.49     | 129.42     | 169.23     | 199.8 | 67.85
Bond    | 0.010837   | 0.01226    | 0.013915   |   0.9 |  0.01
Neigh   | 1.6507     | 1.8654     | 2.3926     |  22.1 |  0.98
Comm    | 1.5582     | 41.353     | 62.264     | 353.3 | 21.68
Output  | 0.013521   | 0.034217   | 0.075807   |  12.1 |  0.02
Modify  | 17.423     | 17.96      | 18.175     |   7.3 |  9.41
Other   |            | 0.1088     |            |       |  0.06

Nlocal:          43.75 ave          50 max          32 min
Histogram: 1 0 1 0 0 0 2 0 2 2
Nghost:           3164 ave        3216 max        3116 min
Histogram: 1 0 1 0 2 2 1 0 0 1
Neighs:        28502.1 ave       32488 max       21127 min
Histogram: 1 0 1 0 0 0 2 0 2 2

Total # of neighbors = 228017
Ave neighs/atom = 651.47714
Ave special neighs/atom = 0
Neighbor list builds = 74
Dangerous builds = 0
  using 2 OpenMP thread(s) per MPI task
Reading restart file ...
  restart file = 2 Aug 2023, LAMMPS = 2 Aug 2023
  restoring atom style full from restart
  triclinic box = (0 0 0) to (15.2382 14.5028 17.0085) with tilt (-6.2627 -0.4482 -0.642)
  2 by 2 by 2 MPI processor grid
  pair style reaxff stores no restart info
  350 atoms
Finding 1-2 1-3 1-4 neighbors ...
  special bond factors lj:    0        0        0       
  special bond factors coul:  0        0        0       
     0 = max # of 1-2 neighbors
     0 = max # of 1-3 neighbors
     0 = max # of 1-4 neighbors
     1 = max # of special neighbors
  special bonds CPU = 0.000 seconds
  read_restart CPU = 0.003 seconds
*****Positive-deform 6 starts.*****
WARNING: Van der Waals parameters for element SI indicate inner wall+shielding, but earlier atoms indicate a different van der Waals method. This may cause division-by-zero errors. Keeping van der Waals setting for earlier atoms. (src/REAXFF/reaxff_ffield.cpp:251)
Neighbor list info ...
  update: every = 10 steps, delay = 0 steps, check = yes
  max neighbors/atom: 2000, page size: 100000
  master list distance cutoff = 12
  ghost atom cutoff = 12
  binsize = 6, bins = 4 3 3
  2 neighbor lists, perpetual/occasional/extra = 2 0 0
  (1) pair reaxff, perpetual
      attributes: half, newton off, ghost
      pair build: half/bin/newtoff/ghost
      stencil: full/ghost/bin/3d
      bin: standard
  (2) fix qeq/reaxff, perpetual, copy from (1)
      attributes: half, newton off
      pair build: copy
      stencil: none
      bin: none
Setting up Verlet run ...
  Unit style    : real
  Current step  : 0
  Time step     : 0.5
Per MPI rank memory allocation (min/avg/max) = 122.5 | 124 | 125.4 Mbytes
   Step          Temp          PotEng         Press          Volume    
         0   298.51673     -36100.141      12843.044      3758.8201    
       100   305.00335     -36105.606      25319.562      3758.8201    
       200   321.15702     -36112.585     -584.18414      3758.8201    
       300   304.54084     -36081.384     -7762.9129      3758.8201    
       400   320.40311     -36108.98      -1986.4441      3758.8201    
       500   304.8742      -36121.629     -3164.1249      3758.8201    
       600   297.63606     -36122.106      9878.8141      3758.8201    
       700   300.67222     -36115.136     -14467.689      3758.8201    
       800   314.77308     -36100.305      13910.291      3758.8201    
       900   297.673       -36058.102     -2485.2253      3758.8201    
      1000   301.79309     -36079.131     -5938.5682      3758.8201    
      1100   293.85177     -36097.787      8173.7417      3758.8201    
      1200   296.75587     -36112.19       770.01727      3758.8201    
      1300   297.90806     -36112.141     -7343.1696      3758.8201    
      1400   282.80804     -36083.951     -2304.4681      3758.8201    
      1500   332.5885      -36105.275     -8047.3002      3758.8201    
      1600   314.20195     -36098.207     -12206.992      3758.8201    
      1700   284.18332     -36093.47       6494.1556      3758.8201    
      1800   292.10128     -36108.232     -234.78454      3758.8201    
      1900   286.6529      -36104.677      8176.9581      3758.8201    
      2000   320.21619     -36118.359      9594.0041      3758.8201    
      2100   312.82017     -36079.799      15537.743      3758.8201    
      2200   307.76893     -36079.796     -7276.2542      3758.8201    
      2300   299.01036     -36096.376      22373.67       3758.8201    
      2400   286.98065     -36089.895     -3425.1325      3758.8201    
      2500   298.74161     -36115.821     -7755.3227      3758.8201    
      2600   284.48151     -36104.052     -2856.9091      3758.8201    
      2700   309.69238     -36114.382      6559.7709      3758.8201    
      2800   322.32939     -36102.489     -3342.1117      3758.8201    
      2900   294.74815     -36068.144     -10128.312      3758.8201    
      3000   295.61588     -36099.627      15325.763      3758.8201    
      3100   285.67128     -36113.573     -3677.3044      3758.8201    
      3200   289.6938      -36110.283      7856.266       3758.8201    
      3300   305.45438     -36105.72      -2673.5759      3758.8201    
      3400   312.10141     -36100.955     -5463.1207      3758.8201    
      3500   293.80026     -36088.156     -4354.6689      3758.8201    
      3600   297.3775      -36126.275      4792.2011      3758.8201    
      3700   285.77317     -36121.834     -6759.8527      3758.8201    
      3800   288.29979     -36111.439     -7965.0586      3758.8201    
      3900   307.81595     -36101.514      20742.25       3758.8201    
      4000   307.00662     -36097.941      9787.1877      3758.8201    
      4100   309.03462     -36108.921     -8798.9291      3758.8201    
      4200   288.16808     -36099.718     -5074.3117      3758.8201    
      4300   302.7734      -36108.623      4272.857       3758.8201    
      4400   302.12106     -36105.662      2570.7942      3758.8201    
      4500   303.48234     -36107.202      2671.7902      3758.8201    
      4600   293.35134     -36100.307      5806.3872      3758.8201    
      4700   310.50386     -36122.836     -3173.6347      3758.8201    
      4800   285.78887     -36106.967      376.46588      3758.8201    
      4900   278.88264     -36132.179      2118.6075      3758.8201    
      5000   273.02029     -36118.586     -950.72907      3758.8201    
Loop time of 191.244 on 16 procs for 5000 steps with 350 atoms

Performance: 1.129 ns/day, 21.249 hours/ns, 26.145 timesteps/s, 9.151 katom-step/s
99.1% CPU use with 8 MPI tasks x 2 OpenMP threads

MPI task timing breakdown:
Section |  min time  |  avg time  |  max time  |%varavg| %total
---------------------------------------------------------------
Pair    | 108.55     | 129.17     | 169.74     | 201.7 | 67.54
Bond    | 0.01087    | 0.012657   | 0.014653   |   1.0 |  0.01
Neigh   | 1.5941     | 1.8015     | 2.3191     |  22.2 |  0.94
Comm    | 1.3938     | 41.957     | 62.549     | 353.7 | 21.94
Output  | 0.013419   | 0.033699   | 0.07455    |  11.9 |  0.02
Modify  | 17.636     | 18.159     | 18.368     |   7.1 |  9.50
Other   |            | 0.1102     |            |       |  0.06

Nlocal:          43.75 ave          54 max          31 min
Histogram: 1 0 0 1 1 1 1 2 0 1
Nghost:        3131.12 ave        3164 max        3104 min
Histogram: 2 1 0 0 2 0 1 0 0 2
Neighs:          28479 ave       34855 max       20482 min
Histogram: 1 0 0 1 1 1 1 2 0 1

Total # of neighbors = 227832
Ave neighs/atom = 650.94857
Ave special neighs/atom = 0
Neighbor list builds = 72
Dangerous builds = 0
Total wall time: 0:39:57
