LAMMPS (2 Aug 2023 - Update 2)
OMP_NUM_THREADS environment is not set. Defaulting to 1 thread. (src/comm.cpp:98)
  using 1 OpenMP thread(s) per MPI task
# Initialization
units           real
dimension       3
boundary        p p p
atom_style      full
timestep        0.5   # fs

# Define MD parameters
variable nevery equal 10                  # sampling interval
variable nrepeat equal 10                 # number of samples
variable nthermo equal ${nevery}*${nrepeat}           # interval for thermo output
variable nthermo equal 10*${nrepeat}           
variable nthermo equal 10*10           
variable nfreq equal ${nthermo} # length of one average
variable nfreq equal 100 
# 1 ps : 1e3 fs / 0.5 fs = 2e3 steps
variable nequil equal 20*${nthermo}       # steps of equilibration run 20
variable nequil equal 20*100       
variable nrun equal 20*${nthermo}          # stpes of equilibrated run 20
variable nrun equal 20*100          
variable temp equal 300.0                # temperature of initial sample
variable tdamp equal 50.0                 # time constant for thermostat
variable seed equal 123457                # seed for thermostat
variable ufac equal 1.01325e-4         # pressure unit conversion, from atm to Gpa
variable up equal 0.01                  # the deformation magnitude 2.0e-2

# Read the initial sctructure
# box tilt large
variable structure string 333U-50C-5-vasp-an
read_data       ${structure}.data
read_data       333U-50C-5-vasp-an.data
Reading data file ...
  triclinic box = (0.069742272 0.40119664 -0.14695996) to (15.608458 13.818203 17.78526) with tilt (-7.7490667 -1.5378211 0.14232347)
WARNING: Triclinic box skew is large. LAMMPS will run inefficiently. (src/domain.cpp:220)
  2 by 2 by 2 MPI processor grid
  reading atoms ...
  350 atoms
  reading velocities ...
  350 velocities
Finding 1-2 1-3 1-4 neighbors ...
  special bond factors lj:    0        0        0       
  special bond factors coul:  0        0        0       
     0 = max # of 1-2 neighbors
     0 = max # of 1-3 neighbors
     0 = max # of 1-4 neighbors
     1 = max # of special neighbors
  special bonds CPU = 0.001 seconds
  read_data CPU = 0.008 seconds

# Energy minimization
print "*****Minimization starts.*****"
*****Minimization starts.*****
velocity        all create ${temp} ${seed} dist gaussian
velocity        all create 300 ${seed} dist gaussian
velocity        all create 300 123457 dist gaussian
minimize 1.0e-6 1.0e-6 100 1000
WARNING: No pairwise cutoff or binsize set. Atom sorting therefore disabled. (src/atom.cpp:2366)
WARNING: Communication cutoff is 0.0. No ghost atoms will be generated. Atoms may get lost. (src/comm_brick.cpp:210)
Per MPI rank memory allocation (min/avg/max) = 6.365 | 6.365 | 6.365 Mbytes
   Step          Temp          E_pair         E_mol          TotEng         Press     
         0   300            0              0              312.09081      3816.0058    
         1   300            0              0              312.09081      3816.0058    
Loop time of 4.47489e-05 on 8 procs for 1 steps with 350 atoms

51.1% CPU use with 8 MPI tasks x 1 OpenMP threads

Minimization stats:
  Stopping criterion = search direction is not downhill
  Energy initial, next-to-last, final = 
                     0                  0                  0
  Force two-norm initial, final = 0 0
  Force max component initial, final = 0 0
  Final line search alpha, max atom move = 0 0
  Iterations, force evaluations = 1 0

MPI task timing breakdown:
Section |  min time  |  avg time  |  max time  |%varavg| %total
---------------------------------------------------------------
Pair    | 0          | 0          | 0          |   0.0 |  0.00
Bond    | 1.34e-07   | 1.63e-07   | 2.16e-07   |   0.0 |  0.36
Neigh   | 0          | 0          | 0          |   0.0 |  0.00
Comm    | 8.69e-07   | 1.0148e-06 | 1.132e-06  |   0.0 |  2.27
Output  | 0          | 0          | 0          |   0.0 |  0.00
Modify  | 0          | 0          | 0          |   0.0 |  0.00
Other   |            | 4.357e-05  |            |       | 97.37

Nlocal:          43.75 ave          48 max          39 min
Histogram: 1 0 0 2 1 0 2 1 0 1
Nghost:              0 ave           0 max           0 min
Histogram: 8 0 0 0 0 0 0 0 0 0
Neighs:              0 ave           0 max           0 min
Histogram: 8 0 0 0 0 0 0 0 0 0

Total # of neighbors = 0
Ave neighs/atom = 0
Ave special neighs/atom = 0
Neighbor list builds = 0
Dangerous builds = 0
min_style cg

# Equilibration
include ff.mod.lmp
# Setup forcefield, system
# undefine any fix ave/* fix before using reset_timestep
if "$(is_defined(fix,avgp))" then "unfix avgp"
reset_timestep 0

# Assign the force field
pair_style reaxff NULL safezone 3.0 mincap 150
# pair_coeff * * CHONSSi.ff O Si
# pair_coeff * * CHOSiNa.ff O Si
# pair_coeff * * SiOCHN_2018.ff O Si
# pair_coeff * * PDMSDecomp.ff Si O
pair_coeff * * CHONSi.ff C H O Si
# pair_coeff * * CHOFe.ff O Si

# charge method for reaxff
fix myqeq all qeq/reaxff 1 0.0 10.0 1.0e-6 reaxff maxiter 400
# Setup neighbor style
neighbor        2 bin
neigh_modify    every 10 delay 0 check no

# Setup output
fix avgp all ave/time  ${nevery} ${nrepeat} ${nfreq} c_thermo_press mode vector
fix avgp all ave/time  10 ${nrepeat} ${nfreq} c_thermo_press mode vector
fix avgp all ave/time  10 10 ${nfreq} c_thermo_press mode vector
fix avgp all ave/time  10 10 100 c_thermo_press mode vector
thermo		${nthermo}
thermo		100
thermo_style custom step temp pe press f_avgp[1] vol
thermo_modify norm no

# NVT
fix 4 all nvt temp ${temp} ${temp} ${tdamp}
fix 4 all nvt temp 300 ${temp} ${tdamp}
fix 4 all nvt temp 300 300 ${tdamp}
fix 4 all nvt temp 300 300 50
thermo_style custom step temp pe press f_avgp[1] density vol
WARNING: New thermo_style command, previous thermo_modify settings will be lost (src/output.cpp:903)
run ${nequil}
run 2000

CITE-CITE-CITE-CITE-CITE-CITE-CITE-CITE-CITE-CITE-CITE-CITE-CITE

Your simulation uses code contributions which should be cited:

- pair reaxff command: doi:10.1016/j.parco.2011.08.005

@Article{Aktulga12,
 author = {H. M. Aktulga and J. C. Fogarty and S. A. Pandit and A. Y. Grama},
 title = {Parallel Reactive Molecular Dynamics: {N}umerical Methods and Algorithmic Techniques},
 journal = {Parallel Computing},
 year =    2012,
 volume =  38,
 number =  {4--5},
 pages =   {245--259}
}

- fix qeq/reaxff command: doi:10.1016/j.parco.2011.08.005

@Article{Aktulga12,
 author = {H. M. Aktulga and J. C. Fogarty and S. A. Pandit and A. Y. Grama},
 title = {Parallel Reactive Molecular Dynamics: {N}umerical Methods and Algorithmic Techniques},
 journal = {Parallel Computing},
 year =    2012,
 volume =  38,
 pages =   {245--259}
}

CITE-CITE-CITE-CITE-CITE-CITE-CITE-CITE-CITE-CITE-CITE-CITE-CITE

Neighbor list info ...
  update: every = 10 steps, delay = 0 steps, check = no
  max neighbors/atom: 2000, page size: 100000
  master list distance cutoff = 12
  ghost atom cutoff = 12
  binsize = 6, bins = 5 3 3
  2 neighbor lists, perpetual/occasional/extra = 2 0 0
  (1) pair reaxff, perpetual
      attributes: half, newton off, ghost
      pair build: half/bin/newtoff/ghost
      stencil: full/ghost/bin/3d
      bin: standard
  (2) fix qeq/reaxff, perpetual, copy from (1)
      attributes: half, newton off
      pair build: copy
      stencil: none
      bin: none
Per MPI rank memory allocation (min/avg/max) = 128.4 | 130 | 131.4 Mbytes
   Step          Temp          PotEng         Press        f_avgp[1]       Density         Volume    
         0   300           -41262.556     -800.07054      0              1.737228       3738.5639    
       100   303.25539     -41252.064      3695.3185     -89.366972      1.737228       3738.5639    
       200   329.83131     -41256.975     -5129.7212      796.4096       1.737228       3738.5639    
       300   304.37764     -41231.859      5123.6253     -1406.4714      1.737228       3738.5639    
       400   295.99995     -41267.796      1799.2349     -2028.0588      1.737228       3738.5639    
       500   285.61215     -41259.084     -13030.69      -7047.5778      1.737228       3738.5639    
       600   287.17298     -41245.44      -6638.434      -14.171983      1.737228       3738.5639    
       700   304.79562     -41240.258      7335.7978     -1052.5714      1.737228       3738.5639    
       800   318.66561     -41247.554      2338.4461     -78.300923      1.737228       3738.5639    
       900   283.61171     -41240.663     -4126.3589      2952.8758      1.737228       3738.5639    
      1000   297.99774     -41280.089     -9230.7053     -5872.201       1.737228       3738.5639    
      1100   291.03215     -41263.296     -3349.9883     -1551.339       1.737228       3738.5639    
      1200   311.15342     -41258.32      -11760.172      1611.7529      1.737228       3738.5639    
      1300   307.05128     -41244.52      -2064.6871     -1058.3679      1.737228       3738.5639    
      1400   305.44626     -41253.164     -2471.8802      2747.6744      1.737228       3738.5639    
      1500   282.14822     -41263.995      2878.9234      736.33195      1.737228       3738.5639    
      1600   276.56828     -41258.167     -6224.4509      1385.6215      1.737228       3738.5639    
      1700   291.09479     -41250.912     -3591.0593      466.92691      1.737228       3738.5639    
      1800   307.42344     -41252.498     -4997.9032     -1043.4312      1.737228       3738.5639    
      1900   315.75584     -41258.95      -3163.4949     -2054.4441      1.737228       3738.5639    
      2000   289.20158     -41249.632     -5135.9957      1253.0994      1.737228       3738.5639    
Loop time of 97.5019 on 8 procs for 2000 steps with 350 atoms

Performance: 0.886 ns/day, 27.084 hours/ns, 20.512 timesteps/s, 7.179 katom-step/s
98.8% CPU use with 8 MPI tasks x 1 OpenMP threads

MPI task timing breakdown:
Section |  min time  |  avg time  |  max time  |%varavg| %total
---------------------------------------------------------------
Pair    | 55.217     | 77.323     | 82.262     |  95.8 | 79.30
Bond    | 0.00072409 | 0.00079976 | 0.0009851  |   0.0 |  0.00
Neigh   | 4.4135     | 6.0452     | 6.4519     |  25.4 |  6.20
Comm    | 0.8064     | 5.7379     | 27.855     | 351.8 |  5.88
Output  | 0.0011037  | 0.0012392  | 0.0017738  |   0.6 |  0.00
Modify  | 7.9208     | 8.3524     | 9.979      |  21.6 |  8.57
Other   |            | 0.0418     |            |       |  0.04

Nlocal:          43.75 ave          48 max          36 min
Histogram: 1 0 0 0 1 1 0 2 1 2
Nghost:         3352.5 ave        3379 max        3317 min
Histogram: 1 0 0 1 2 0 1 0 1 2
Neighs:        28695.8 ave       31336 max       23879 min
Histogram: 1 0 0 0 2 0 0 2 1 2

Total # of neighbors = 229566
Ave neighs/atom = 655.90286
Ave special neighs/atom = 0
Neighbor list builds = 200
Dangerous builds not checked
# Save the optimized structure
write_data ${structure}_opt.data
write_data 333U-50C-5-vasp-an_opt.data
System init for write_data ...

# Save initial pressure, box size
variable pxx0 equal f_avgp[1]
variable pyy0 equal f_avgp[2]
variable pzz0 equal f_avgp[3]
variable pxy0 equal f_avgp[4]
variable pxz0 equal f_avgp[5]
variable pyz0 equal f_avgp[6]

# use tmp to save initial box length
variable tmp equal lx
variable lx0 equal ${tmp}
variable lx0 equal 15.5387154558726
variable tmp equal ly
variable ly0 equal ${tmp}
variable ly0 equal 13.4170067184353
variable tmp equal lz
variable lz0 equal ${tmp}
variable lz0 equal 17.9322199223083

# define the derivatives, w.r.t. strain tensor
# Constants uses $, variables use v_
variable d1 equal -(v_pxx1-${pxx0})/(v_delta/v_len0)*${ufac}
variable d1 equal -(v_pxx1-1253.0993950643)/(v_delta/v_len0)*${ufac}
variable d1 equal -(v_pxx1-1253.0993950643)/(v_delta/v_len0)*0.000101325
variable d2 equal -(v_pyy1-${pyy0})/(v_delta/v_len0)*${ufac}
variable d2 equal -(v_pyy1--9132.31449896996)/(v_delta/v_len0)*${ufac}
variable d2 equal -(v_pyy1--9132.31449896996)/(v_delta/v_len0)*0.000101325
variable d3 equal -(v_pzz1-${pzz0})/(v_delta/v_len0)*${ufac}
variable d3 equal -(v_pzz1-1622.30031668922)/(v_delta/v_len0)*${ufac}
variable d3 equal -(v_pzz1-1622.30031668922)/(v_delta/v_len0)*0.000101325
variable d4 equal -(v_pyz1-${pyz0})/(v_delta/v_len0)*${ufac}*0.5
variable d4 equal -(v_pyz1--1031.26831497638)/(v_delta/v_len0)*${ufac}*0.5
variable d4 equal -(v_pyz1--1031.26831497638)/(v_delta/v_len0)*0.000101325*0.5
variable d5 equal -(v_pxz1-${pxz0})/(v_delta/v_len0)*${ufac}*0.5
variable d5 equal -(v_pxz1--1739.5466368942)/(v_delta/v_len0)*${ufac}*0.5
variable d5 equal -(v_pxz1--1739.5466368942)/(v_delta/v_len0)*0.000101325*0.5
variable d6 equal -(v_pxy1-${pxy0})/(v_delta/v_len0)*${ufac}*0.5
variable d6 equal -(v_pxy1-2911.51649118783)/(v_delta/v_len0)*${ufac}*0.5
variable d6 equal -(v_pxy1-2911.51649118783)/(v_delta/v_len0)*0.000101325*0.5

# Write restart
write_restart equil.res
System init for write_restart ...

# dir: direction
# uxx Perturbation
variable dir equal 1
include displace.mod.lmp
# Find which reference length to use
if "${dir} == 1" then    "variable len0 equal ${lx0}"
variable len0 equal ${lx0}
variable len0 equal 15.5387154558726
if "${dir} == 2" then    "variable len0 equal ${ly0}"
if "${dir} == 3" then    "variable len0 equal ${lz0}"
if "${dir} == 4" then    "variable len0 equal ${lz0}"
if "${dir} == 5" then    "variable len0 equal ${lz0}"
if "${dir} == 6" then    "variable len0 equal ${ly0}"

# Reset box and simulation parameters
clear
OMP_NUM_THREADS environment is not set. Defaulting to 1 thread. (src/comm.cpp:98)
  using 1 OpenMP thread(s) per MPI task
# box tilt large
read_restart equil.res
Reading restart file ...
  restart file = 2 Aug 2023, LAMMPS = 2 Aug 2023
  restoring atom style full from restart
  triclinic box = (0.069742272 0.40119664 -0.14695996) to (15.608458 13.818203 17.78526) with tilt (-7.7490667 -1.5378211 0.14232347)
WARNING: Triclinic box skew is large. LAMMPS will run inefficiently. (src/domain.cpp:220)
  2 by 2 by 2 MPI processor grid
  pair style reaxff stores no restart info
  350 atoms
Finding 1-2 1-3 1-4 neighbors ...
  special bond factors lj:    0        0        0       
  special bond factors coul:  0        0        0       
     0 = max # of 1-2 neighbors
     0 = max # of 1-3 neighbors
     0 = max # of 1-4 neighbors
     1 = max # of special neighbors
  special bonds CPU = 0.000 seconds
  read_restart CPU = 0.003 seconds
print "*****Negative-change ${dir} starts.*****"
*****Negative-change 1 starts.*****
include ff.mod.lmp
# Setup forcefield, system
# undefine any fix ave/* fix before using reset_timestep
if "$(is_defined(fix,avgp))" then "unfix avgp"
reset_timestep 0

# Assign the force field
pair_style reaxff NULL safezone 3.0 mincap 150
# pair_coeff * * CHONSSi.ff O Si
# pair_coeff * * CHOSiNa.ff O Si
# pair_coeff * * SiOCHN_2018.ff O Si
# pair_coeff * * PDMSDecomp.ff Si O
pair_coeff * * CHONSi.ff C H O Si
# pair_coeff * * CHOFe.ff O Si

# charge method for reaxff
fix myqeq all qeq/reaxff 1 0.0 10.0 1.0e-6 reaxff maxiter 400
# Setup neighbor style
neighbor        2 bin
neigh_modify    every 10 delay 0 check no

# Setup output
fix avgp all ave/time  ${nevery} ${nrepeat} ${nfreq} c_thermo_press mode vector
fix avgp all ave/time  10 ${nrepeat} ${nfreq} c_thermo_press mode vector
fix avgp all ave/time  10 10 ${nfreq} c_thermo_press mode vector
fix avgp all ave/time  10 10 100 c_thermo_press mode vector
thermo		${nthermo}
thermo		100
thermo_style custom step temp pe press f_avgp[1] vol
thermo_modify norm no

# NVT
fix 4 all nvt temp ${temp} ${temp} ${tdamp}
fix 4 all nvt temp 300 ${temp} ${tdamp}
fix 4 all nvt temp 300 300 ${tdamp}
fix 4 all nvt temp 300 300 50
Resetting global fix info from restart file:
  fix style: nvt, fix ID: 4

# Negative deformation
variable delta equal -${up}*${len0}
variable delta equal -0.01*${len0}
variable delta equal -0.01*15.5387154558726
variable deltaxy equal -${up}*xy
variable deltaxy equal -0.01*xy
variable deltaxz equal -${up}*xz
variable deltaxz equal -0.01*xz
variable deltayz equal -${up}*yz
variable deltayz equal -0.01*yz
if "${dir} == 1" then    "change_box all x delta 0 ${delta} xy delta ${deltaxy} xz delta ${deltaxz} remap units box"
change_box all x delta 0 ${delta} xy delta ${deltaxy} xz delta ${deltaxz} remap units box
change_box all x delta 0 -0.155387154558726 xy delta ${deltaxy} xz delta ${deltaxz} remap units box
change_box all x delta 0 -0.155387154558726 xy delta 0.0774906665315158 xz delta ${deltaxz} remap units box
change_box all x delta 0 -0.155387154558726 xy delta 0.0774906665315158 xz delta 0.01537821112214 remap units box
Changing box ...
WARNING: Triclinic box skew is large. LAMMPS will run inefficiently. (src/domain.cpp:220)
  triclinic box = (0.069742272 0.40119664 -0.14695996) to (15.453071 13.818203 17.78526) with tilt (-7.7490667 -1.5378211 0.14232347)
WARNING: Triclinic box skew is large. LAMMPS will run inefficiently. (src/domain.cpp:220)
  triclinic box = (0.069742272 0.40119664 -0.14695996) to (15.453071 13.818203 17.78526) with tilt (-7.671576 -1.5378211 0.14232347)
WARNING: Triclinic box skew is large. LAMMPS will run inefficiently. (src/domain.cpp:220)
  triclinic box = (0.069742272 0.40119664 -0.14695996) to (15.453071 13.818203 17.78526) with tilt (-7.671576 -1.5224429 0.14232347)
if "${dir} == 2" then    "change_box all y delta 0 ${delta} yz delta ${deltayz} remap units box"
if "${dir} == 3" then    "change_box all z delta 0 ${delta} remap units box"
if "${dir} == 4" then    "change_box all yz delta ${delta} remap units box"
if "${dir} == 5" then    "change_box all xz delta ${delta} remap units box"
if "${dir} == 6" then    "change_box all xy delta ${delta} remap units box"

# Run MD for Negative deformation
# save trajectory
dump dump_neg${dir} all custom ${nthermo} dump/neg_deform${dir}.lammpstrj id type x y z
dump dump_neg1 all custom ${nthermo} dump/neg_deform${dir}.lammpstrj id type x y z
dump dump_neg1 all custom 100 dump/neg_deform${dir}.lammpstrj id type x y z
dump dump_neg1 all custom 100 dump/neg_deform1.lammpstrj id type x y z
run ${nrun}
run 2000
All restart file global fix info was re-assigned
Neighbor list info ...
  update: every = 10 steps, delay = 0 steps, check = no
  max neighbors/atom: 2000, page size: 100000
  master list distance cutoff = 12
  ghost atom cutoff = 12
  binsize = 6, bins = 5 3 3
  2 neighbor lists, perpetual/occasional/extra = 2 0 0
  (1) pair reaxff, perpetual
      attributes: half, newton off, ghost
      pair build: half/bin/newtoff/ghost
      stencil: full/ghost/bin/3d
      bin: standard
  (2) fix qeq/reaxff, perpetual, copy from (1)
      attributes: half, newton off
      pair build: copy
      stencil: none
      bin: none
Per MPI rank memory allocation (min/avg/max) = 129.7 | 131 | 132.1 Mbytes
   Step          Temp          PotEng         Press        f_avgp[1]        Volume    
         0   289.20158     -41234.459      46885.011      0              3701.1783    
       100   278.03603     -41258.863      13321.711      12657.137      3701.1783    
       200   289.09501     -41269.918     -450.40331     -2181.0494      3701.1783    
       300   298.32938     -41270.549     -35.793194      756.42172      3701.1783    
       400   307.35082     -41267.055     -614.68366      2477.2646      3701.1783    
       500   297.86447     -41236.887     -8882.3615      1519.1533      3701.1783    
       600   348.26114     -41260.734      3801.9433      7288.3266      3701.1783    
       700   309.37357     -41240.819     -2973.8229      3465.685       3701.1783    
       800   297.40721     -41252.706     -1237.6853      2753.3005      3701.1783    
       900   284.60467     -41246.551      13661.297      7693.8126      3701.1783    
      1000   306.31322     -41267.661      4607.3828      1822.3958      3701.1783    
      1100   305.03592     -41252.662     -6781.5958     -1678.5113      3701.1783    
      1200   317.96448     -41251.53      -1915.4972     -351.30196      3701.1783    
      1300   314.66499     -41266.142     -3408.8003     -5001.7292      3701.1783    
      1400   282.6912      -41263.212      1409.2528      4929.9923      3701.1783    
      1500   315.52866     -41292.591      10794.832      560.69117      3701.1783    
      1600   305.03306     -41267.963     -444.37543     -4715.414       3701.1783    
      1700   300.409       -41238.693      4235.8146     -2029.5688      3701.1783    
      1800   320.73831     -41226.307     -5597.2593      2888.2798      3701.1783    
      1900   320.2565      -41239.769      6469.6397      7774.2325      3701.1783    
      2000   296.42264     -41233.295     -3614.5997      4941.6227      3701.1783    
Loop time of 98.8329 on 8 procs for 2000 steps with 350 atoms

Performance: 0.874 ns/day, 27.454 hours/ns, 20.236 timesteps/s, 7.083 katom-step/s
98.9% CPU use with 8 MPI tasks x 1 OpenMP threads

MPI task timing breakdown:
Section |  min time  |  avg time  |  max time  |%varavg| %total
---------------------------------------------------------------
Pair    | 56.721     | 78.74      | 83.292     |  94.4 | 79.67
Bond    | 0.00067312 | 0.00077397 | 0.00092116 |   0.0 |  0.00
Neigh   | 4.4648     | 6.1126     | 6.5028     |  25.4 |  6.18
Comm    | 0.91704    | 5.4578     | 27.492     | 358.9 |  5.52
Output  | 0.00431    | 0.0052221  | 0.0059457  |   0.8 |  0.01
Modify  | 8.0618     | 8.4752     | 10.115     |  21.6 |  8.58
Other   |            | 0.04126    |            |       |  0.04

Nlocal:          43.75 ave          49 max          38 min
Histogram: 1 0 0 1 1 2 2 0 0 1
Nghost:        3391.25 ave        3419 max        3353 min
Histogram: 1 0 0 3 0 0 0 1 1 2
Neighs:        29022.1 ave       32362 max       25434 min
Histogram: 1 0 0 1 1 2 2 0 0 1

Total # of neighbors = 232177
Ave neighs/atom = 663.36286
Ave special neighs/atom = 0
Neighbor list builds = 200
Dangerous builds not checked
undump dump_neg${dir}
undump dump_neg1

# Run equilibration
print "*****Equilibration neg${dir} starts.*****"
*****Equilibration neg1 starts.*****
include ff.mod.lmp
# Setup forcefield, system
# undefine any fix ave/* fix before using reset_timestep
if "$(is_defined(fix,avgp))" then "unfix avgp"
unfix avgp
reset_timestep 0

# Assign the force field
pair_style reaxff NULL safezone 3.0 mincap 150
# pair_coeff * * CHONSSi.ff O Si
# pair_coeff * * CHOSiNa.ff O Si
# pair_coeff * * SiOCHN_2018.ff O Si
# pair_coeff * * PDMSDecomp.ff Si O
pair_coeff * * CHONSi.ff C H O Si
# pair_coeff * * CHOFe.ff O Si

# charge method for reaxff
fix myqeq all qeq/reaxff 1 0.0 10.0 1.0e-6 reaxff maxiter 400
# Setup neighbor style
neighbor        2 bin
neigh_modify    every 10 delay 0 check no

# Setup output
fix avgp all ave/time  ${nevery} ${nrepeat} ${nfreq} c_thermo_press mode vector
fix avgp all ave/time  10 ${nrepeat} ${nfreq} c_thermo_press mode vector
fix avgp all ave/time  10 10 ${nfreq} c_thermo_press mode vector
fix avgp all ave/time  10 10 100 c_thermo_press mode vector
thermo		${nthermo}
thermo		100
thermo_style custom step temp pe press f_avgp[1] vol
WARNING: New thermo_style command, previous thermo_modify settings will be lost (src/output.cpp:903)
thermo_modify norm no

# NVT
fix 4 all nvt temp ${temp} ${temp} ${tdamp}
fix 4 all nvt temp 300 ${temp} ${tdamp}
fix 4 all nvt temp 300 300 ${tdamp}
fix 4 all nvt temp 300 300 50
run ${nequil}
run 2000
Neighbor list info ...
  update: every = 10 steps, delay = 0 steps, check = no
  max neighbors/atom: 2000, page size: 100000
  master list distance cutoff = 12
  ghost atom cutoff = 12
  binsize = 6, bins = 5 3 3
  2 neighbor lists, perpetual/occasional/extra = 2 0 0
  (1) pair reaxff, perpetual
      attributes: half, newton off, ghost
      pair build: half/bin/newtoff/ghost
      stencil: full/ghost/bin/3d
      bin: standard
  (2) fix qeq/reaxff, perpetual, copy from (1)
      attributes: half, newton off
      pair build: copy
      stencil: none
      bin: none
Per MPI rank memory allocation (min/avg/max) = 129.7 | 131 | 132.1 Mbytes
   Step          Temp          PotEng         Press        f_avgp[1]        Volume    
         0   296.42264     -41233.295     -3614.6448      0              3701.1783    
       100   289.166       -41232.995     -15014.285      3469.2965      3701.1783    
       200   276.49538     -41246.435     -13521.002      1846.9598      3701.1783    
       300   280.84612     -41276.649      3891.4991      8123.6744      3701.1783    
       400   291.24324     -41283.225     -10376.094      629.67095      3701.1783    
       500   270.64525     -41247.415      9262.3199      1515.5478      3701.1783    
       600   305.47682     -41266.135      16108.266     -85.860065      3701.1783    
       700   310.30004     -41263.623     -2699.3459     -678.42485      3701.1783    
       800   304.04725     -41261.039      6056.9424      2049.3214      3701.1783    
       900   301.80724     -41288.537      3608.6353      4268.5916      3701.1783    
      1000   272.57294     -41270.784     -8465.6726     -4280.2134      3701.1783    
      1100   298.68096     -41274.881      14259.043      2419.6762      3701.1783    
      1200   297.54444     -41260.92      -5185.5664     -1821.3541      3701.1783    
      1300   289.12029     -41255.341      2535.1968      2199.2282      3701.1783    
      1400   293.61582     -41263.356     -3196.5439     -578.19145      3701.1783    
      1500   296.95038     -41252.426     -7031.0668      3234.9966      3701.1783    
      1600   325.4271      -41256.333     -6823.8035      1687.5192      3701.1783    
      1700   339.22364     -41271.782      7521.7574     -3296.2007      3701.1783    
      1800   305.72447     -41273.11       8915.2151      3545.5549      3701.1783    
      1900   291.34614     -41266.421      1542.8105      5202.8816      3701.1783    
      2000   296.53831     -41269.98       5277.1283     -3160.665       3701.1783    
Loop time of 99.1652 on 8 procs for 2000 steps with 350 atoms

Performance: 0.871 ns/day, 27.546 hours/ns, 20.168 timesteps/s, 7.059 katom-step/s
99.0% CPU use with 8 MPI tasks x 1 OpenMP threads

MPI task timing breakdown:
Section |  min time  |  avg time  |  max time  |%varavg| %total
---------------------------------------------------------------
Pair    | 56.576     | 78.86      | 83.794     |  95.5 | 79.52
Bond    | 0.0006668  | 0.00077761 | 0.00090758 |   0.0 |  0.00
Neigh   | 4.4824     | 6.134      | 6.5408     |  25.5 |  6.19
Comm    | 0.73997    | 5.6615     | 27.956     | 356.7 |  5.71
Output  | 0.0008295  | 0.00093282 | 0.001372   |   0.0 |  0.00
Modify  | 8.0356     | 8.466      | 10.112     |  21.7 |  8.54
Other   |            | 0.04163    |            |       |  0.04

Nlocal:          43.75 ave          48 max          39 min
Histogram: 1 1 1 0 0 2 0 1 0 2
Nghost:        3390.75 ave        3439 max        3351 min
Histogram: 1 1 1 2 0 0 1 1 0 1
Neighs:        28975.6 ave       31805 max       26043 min
Histogram: 2 0 1 0 0 2 0 1 0 2

Total # of neighbors = 231805
Ave neighs/atom = 662.3
Ave special neighs/atom = 0
Neighbor list builds = 200
Dangerous builds not checked

# Obtain new stress tensor Negative deformation, convert index from LAMMPS to Voigt
variable pxx1 equal f_avgp[1]
variable pyy1 equal f_avgp[2]
variable pzz1 equal f_avgp[3]
variable pxy1 equal f_avgp[4]
variable pxz1 equal f_avgp[5]
variable pyz1 equal f_avgp[6]

# Compute elastic constant from pressure
# d1 = -[pxx1-pxx0]/[(]v_delta/v_len0] defined in input script
variable C1neg equal ${d1}
variable C1neg equal -44.7224675384467
variable C2neg equal ${d2}
variable C2neg equal 33.7034226117595
variable C3neg equal ${d3}
variable C3neg equal -16.9462808479382
variable C4neg equal ${d4}
variable C4neg equal -3.66171372108444
variable C5neg equal ${d5}
variable C5neg equal 16.6693047296377
variable C6neg equal ${d6}
variable C6neg equal -26.1862964419686

# Reset box and simulation parameters
clear
OMP_NUM_THREADS environment is not set. Defaulting to 1 thread. (src/comm.cpp:98)
  using 1 OpenMP thread(s) per MPI task
# box tilt large
read_restart equil.res
Reading restart file ...
  restart file = 2 Aug 2023, LAMMPS = 2 Aug 2023
  restoring atom style full from restart
  triclinic box = (0.069742272 0.40119664 -0.14695996) to (15.608458 13.818203 17.78526) with tilt (-7.7490667 -1.5378211 0.14232347)
WARNING: Triclinic box skew is large. LAMMPS will run inefficiently. (src/domain.cpp:220)
  2 by 2 by 2 MPI processor grid
  pair style reaxff stores no restart info
  350 atoms
Finding 1-2 1-3 1-4 neighbors ...
  special bond factors lj:    0        0        0       
  special bond factors coul:  0        0        0       
     0 = max # of 1-2 neighbors
     0 = max # of 1-3 neighbors
     0 = max # of 1-4 neighbors
     1 = max # of special neighbors
  special bonds CPU = 0.000 seconds
  read_restart CPU = 0.003 seconds
print "*****Positive-change ${dir} starts.*****"
*****Positive-change 1 starts.*****
include ff.mod.lmp
# Setup forcefield, system
# undefine any fix ave/* fix before using reset_timestep
if "$(is_defined(fix,avgp))" then "unfix avgp"
reset_timestep 0

# Assign the force field
pair_style reaxff NULL safezone 3.0 mincap 150
# pair_coeff * * CHONSSi.ff O Si
# pair_coeff * * CHOSiNa.ff O Si
# pair_coeff * * SiOCHN_2018.ff O Si
# pair_coeff * * PDMSDecomp.ff Si O
pair_coeff * * CHONSi.ff C H O Si
# pair_coeff * * CHOFe.ff O Si

# charge method for reaxff
fix myqeq all qeq/reaxff 1 0.0 10.0 1.0e-6 reaxff maxiter 400
# Setup neighbor style
neighbor        2 bin
neigh_modify    every 10 delay 0 check no

# Setup output
fix avgp all ave/time  ${nevery} ${nrepeat} ${nfreq} c_thermo_press mode vector
fix avgp all ave/time  10 ${nrepeat} ${nfreq} c_thermo_press mode vector
fix avgp all ave/time  10 10 ${nfreq} c_thermo_press mode vector
fix avgp all ave/time  10 10 100 c_thermo_press mode vector
thermo		${nthermo}
thermo		100
thermo_style custom step temp pe press f_avgp[1] vol
thermo_modify norm no

# NVT
fix 4 all nvt temp ${temp} ${temp} ${tdamp}
fix 4 all nvt temp 300 ${temp} ${tdamp}
fix 4 all nvt temp 300 300 ${tdamp}
fix 4 all nvt temp 300 300 50
Resetting global fix info from restart file:
  fix style: nvt, fix ID: 4

# Positive deformation
variable delta equal ${up}*${len0}
variable delta equal 0.01*${len0}
variable delta equal 0.01*15.5387154558726
variable deltaxy equal ${up}*xy
variable deltaxy equal 0.01*xy
variable deltaxz equal ${up}*xz
variable deltaxz equal 0.01*xz
variable deltayz equal ${up}*yz
variable deltayz equal 0.01*yz
if "${dir} == 1" then    "change_box all x delta 0 ${delta} xy delta ${deltaxy} xz delta ${deltaxz} remap units box"
change_box all x delta 0 ${delta} xy delta ${deltaxy} xz delta ${deltaxz} remap units box
change_box all x delta 0 0.155387154558726 xy delta ${deltaxy} xz delta ${deltaxz} remap units box
change_box all x delta 0 0.155387154558726 xy delta -0.0774906665315158 xz delta ${deltaxz} remap units box
change_box all x delta 0 0.155387154558726 xy delta -0.0774906665315158 xz delta -0.01537821112214 remap units box
Changing box ...
WARNING: Triclinic box skew is large. LAMMPS will run inefficiently. (src/domain.cpp:220)
  triclinic box = (0.069742272 0.40119664 -0.14695996) to (15.763845 13.818203 17.78526) with tilt (-7.7490667 -1.5378211 0.14232347)
WARNING: Triclinic box skew is large. LAMMPS will run inefficiently. (src/domain.cpp:220)
  triclinic box = (0.069742272 0.40119664 -0.14695996) to (15.763845 13.818203 17.78526) with tilt (-7.8265573 -1.5378211 0.14232347)
WARNING: Triclinic box skew is large. LAMMPS will run inefficiently. (src/domain.cpp:220)
  triclinic box = (0.069742272 0.40119664 -0.14695996) to (15.763845 13.818203 17.78526) with tilt (-7.8265573 -1.5531993 0.14232347)
if "${dir} == 2" then    "change_box all y delta 0 ${delta} yz delta ${deltayz} remap units box"
if "${dir} == 3" then    "change_box all z delta 0 ${delta} remap units box"
if "${dir} == 4" then    "change_box all yz delta ${delta} remap units box"
if "${dir} == 5" then    "change_box all xz delta ${delta} remap units box"
if "${dir} == 6" then    "change_box all xy delta ${delta} remap units box"

# Run positive deformation MD
# save trajectory
dump dump_pos${dir} all custom ${nthermo} dump/pos_deform${dir}.lammpstrj id type x y z
dump dump_pos1 all custom ${nthermo} dump/pos_deform${dir}.lammpstrj id type x y z
dump dump_pos1 all custom 100 dump/pos_deform${dir}.lammpstrj id type x y z
dump dump_pos1 all custom 100 dump/pos_deform1.lammpstrj id type x y z
run ${nrun}
run 2000
All restart file global fix info was re-assigned
Neighbor list info ...
  update: every = 10 steps, delay = 0 steps, check = no
  max neighbors/atom: 2000, page size: 100000
  master list distance cutoff = 12
  ghost atom cutoff = 12
  binsize = 6, bins = 5 3 3
  2 neighbor lists, perpetual/occasional/extra = 2 0 0
  (1) pair reaxff, perpetual
      attributes: half, newton off, ghost
      pair build: half/bin/newtoff/ghost
      stencil: full/ghost/bin/3d
      bin: standard
  (2) fix qeq/reaxff, perpetual, copy from (1)
      attributes: half, newton off
      pair build: copy
      stencil: none
      bin: none
Per MPI rank memory allocation (min/avg/max) = 128.7 | 129.9 | 131.1 Mbytes
   Step          Temp          PotEng         Press        f_avgp[1]        Volume    
         0   289.20158     -41230.897     -48636.107      0              3775.9495    
       100   276.28968     -41253.87      -4154.542      -4998.4513      3775.9495    
       200   285.18281     -41260.962     -6313.4954     -7293.5603      3775.9495    
       300   299.27146     -41262.053      892.83132     -1694.1997      3775.9495    
       400   300.31224     -41247.087     -2211.4063     -5550.8472      3775.9495    
       500   305.60142     -41232.72      -489.18135     -6138.8768      3775.9495    
       600   306.769       -41216.398     -5492.943      -7789.2256      3775.9495    
       700   317.17555     -41214.649     -7986.4785     -7380.7754      3775.9495    
       800   293.61156     -41219.962     -10299.934     -2472.3022      3775.9495    
       900   298.66212     -41246.992     -3507.5151     -6755.5668      3775.9495    
      1000   298.89424     -41256.097      1508.9734     -4138.8962      3775.9495    
      1100   299.9682      -41249.115     -44.438129     -3544.3766      3775.9495    
      1200   320.95424     -41244.495      9326.6448      3463.7265      3775.9495    
      1300   328.45933     -41237.088     -5973.6374     -5467.3577      3775.9495    
      1400   302.62035     -41233.78      -12166.098     -3532.3762      3775.9495    
      1500   294.9722      -41242.303     -1152.8399     -6001.0686      3775.9495    
      1600   286.51605     -41239.061      3035.7591     -4444.4119      3775.9495    
      1700   302.20682     -41259.964     -3658.1779     -6297.5438      3775.9495    
      1800   289.76735     -41249.191      10969.612     -3101.8642      3775.9495    
      1900   300.42809     -41247.348     -6769.3527     -6879.2735      3775.9495    
      2000   311.03947     -41233.769     -2038.6276     -3765.1355      3775.9495    
Loop time of 96.4497 on 8 procs for 2000 steps with 350 atoms

Performance: 0.896 ns/day, 26.792 hours/ns, 20.736 timesteps/s, 7.258 katom-step/s
98.9% CPU use with 8 MPI tasks x 1 OpenMP threads

MPI task timing breakdown:
Section |  min time  |  avg time  |  max time  |%varavg| %total
---------------------------------------------------------------
Pair    | 55.448     | 76.602     | 81.122     |  92.2 | 79.42
Bond    | 0.00065142 | 0.00075898 | 0.0008843  |   0.0 |  0.00
Neigh   | 4.3965     | 6.025      | 6.4421     |  25.4 |  6.25
Comm    | 0.83448    | 5.345      | 26.511     | 349.0 |  5.54
Output  | 0.0040744  | 0.0049569  | 0.0056711  |   0.8 |  0.01
Modify  | 7.991      | 8.4306     | 10.054     |  21.5 |  8.74
Other   |            | 0.04151    |            |       |  0.04

Nlocal:          43.75 ave          49 max          40 min
Histogram: 2 0 0 2 2 0 0 1 0 1
Nghost:           3334 ave        3372 max        3292 min
Histogram: 1 1 0 0 2 1 1 0 0 2
Neighs:          28393 ave       31579 max       26078 min
Histogram: 2 0 0 2 2 0 0 1 0 1

Total # of neighbors = 227144
Ave neighs/atom = 648.98286
Ave special neighs/atom = 0
Neighbor list builds = 200
Dangerous builds not checked
undump dump_pos${dir}
undump dump_pos1

# Run equilibration
print "*****Equilibration pos${dir} starts.*****"
*****Equilibration pos1 starts.*****
include ff.mod.lmp
# Setup forcefield, system
# undefine any fix ave/* fix before using reset_timestep
if "$(is_defined(fix,avgp))" then "unfix avgp"
unfix avgp
reset_timestep 0

# Assign the force field
pair_style reaxff NULL safezone 3.0 mincap 150
# pair_coeff * * CHONSSi.ff O Si
# pair_coeff * * CHOSiNa.ff O Si
# pair_coeff * * SiOCHN_2018.ff O Si
# pair_coeff * * PDMSDecomp.ff Si O
pair_coeff * * CHONSi.ff C H O Si
# pair_coeff * * CHOFe.ff O Si

# charge method for reaxff
fix myqeq all qeq/reaxff 1 0.0 10.0 1.0e-6 reaxff maxiter 400
# Setup neighbor style
neighbor        2 bin
neigh_modify    every 10 delay 0 check no

# Setup output
fix avgp all ave/time  ${nevery} ${nrepeat} ${nfreq} c_thermo_press mode vector
fix avgp all ave/time  10 ${nrepeat} ${nfreq} c_thermo_press mode vector
fix avgp all ave/time  10 10 ${nfreq} c_thermo_press mode vector
fix avgp all ave/time  10 10 100 c_thermo_press mode vector
thermo		${nthermo}
thermo		100
thermo_style custom step temp pe press f_avgp[1] vol
WARNING: New thermo_style command, previous thermo_modify settings will be lost (src/output.cpp:903)
thermo_modify norm no

# NVT
fix 4 all nvt temp ${temp} ${temp} ${tdamp}
fix 4 all nvt temp 300 ${temp} ${tdamp}
fix 4 all nvt temp 300 300 ${tdamp}
fix 4 all nvt temp 300 300 50
run ${nequil}
run 2000
Neighbor list info ...
  update: every = 10 steps, delay = 0 steps, check = no
  max neighbors/atom: 2000, page size: 100000
  master list distance cutoff = 12
  ghost atom cutoff = 12
  binsize = 6, bins = 5 3 3
  2 neighbor lists, perpetual/occasional/extra = 2 0 0
  (1) pair reaxff, perpetual
      attributes: half, newton off, ghost
      pair build: half/bin/newtoff/ghost
      stencil: full/ghost/bin/3d
      bin: standard
  (2) fix qeq/reaxff, perpetual, copy from (1)
      attributes: half, newton off
      pair build: copy
      stencil: none
      bin: none
Per MPI rank memory allocation (min/avg/max) = 128.6 | 129.9 | 131 Mbytes
   Step          Temp          PotEng         Press        f_avgp[1]        Volume    
         0   311.03947     -41233.769     -2038.6879      0              3775.9495    
       100   305.34136     -41237.822      5901.9742     -1601.875       3775.9495    
       200   289.6238      -41254.093      5009.5343      2347.1045      3775.9495    
       300   296.19889     -41271.2       -5038.5922     -2992.1699      3775.9495    
       400   295.43469     -41256.268      7407.0046     -2057.5401      3775.9495    
       500   293.55619     -41241.323      6592.1176      1880.1251      3775.9495    
       600   315.27924     -41246.723     -13074.721     -6763.4711      3775.9495    
       700   300.74175     -41223.779     -8278.1715     -5409.7978      3775.9495    
       800   315.44756     -41251.508      10463.446     -4818.7186      3775.9495    
       900   279.95496     -41251.15      -10939.064     -8139.0331      3775.9495    
      1000   289.99546     -41260.566      335.47914      920.4803       3775.9495    
      1100   298.82949     -41240.475     -2843.5281     -4872.2535      3775.9495    
      1200   293.38744     -41225.45       1818.2628     -4989.3554      3775.9495    
      1300   301.62654     -41239.061      6885.6793     -1940.1731      3775.9495    
      1400   288.44598     -41243.91       4017.2209     -5363.6855      3775.9495    
      1500   298.93664     -41279.666     -1749.4315      2737.2436      3775.9495    
      1600   283.91479     -41271.004     -5231.517      -6803.1528      3775.9495    
      1700   293.2796      -41241.993     -15461.166     -4560.0439      3775.9495    
      1800   329.36046     -41263.016      8989.3669     -1744.442       3775.9495    
      1900   296.08894     -41232.317     -3668.5131      2232.3635      3775.9495    
      2000   313.20301     -41251.27      -18666.32      -2346.7485      3775.9495    
Loop time of 98.2511 on 8 procs for 2000 steps with 350 atoms

Performance: 0.879 ns/day, 27.292 hours/ns, 20.356 timesteps/s, 7.125 katom-step/s
98.5% CPU use with 8 MPI tasks x 1 OpenMP threads

MPI task timing breakdown:
Section |  min time  |  avg time  |  max time  |%varavg| %total
---------------------------------------------------------------
Pair    | 59.335     | 77.423     | 81.6       |  79.2 | 78.80
Bond    | 0.00066817 | 0.00075294 | 0.00087777 |   0.0 |  0.00
Neigh   | 4.6361     | 6.0668     | 6.4639     |  22.7 |  6.17
Comm    | 1.7797     | 5.9518     | 24.049     | 285.6 |  6.06
Output  | 0.00082689 | 0.00094546 | 0.001395   |   0.0 |  0.00
Modify  | 8.3637     | 8.7669     | 10.194     |  18.9 |  8.92
Other   |            | 0.04091    |            |       |  0.04

Nlocal:          43.75 ave          49 max          38 min
Histogram: 1 1 0 2 0 0 0 2 1 1
Nghost:        3361.12 ave        3408 max        3308 min
Histogram: 1 0 0 1 2 0 1 2 0 1
Neighs:          28401 ave       31607 max       24860 min
Histogram: 1 1 0 2 0 0 0 2 1 1

Total # of neighbors = 227208
Ave neighs/atom = 649.16571
Ave special neighs/atom = 0
Neighbor list builds = 200
Dangerous builds not checked

# Obtain new stress tensor, convert index from LAMMPS to Voigt
variable pxx1 equal f_avgp[1]
variable pyy1 equal f_avgp[2]
variable pzz1 equal f_avgp[3]
variable pxy1 equal f_avgp[4]
variable pxz1 equal f_avgp[5]
variable pyz1 equal f_avgp[6]

# Compute elastic constant from pressure tensor
# d1 = -[pxx1-pxx0]/[(]v_delta/v_len0] defined in input script
variable C1pos equal ${d1}
variable C1pos equal 36.475459048927
variable C2pos equal ${d2}
variable C2pos equal -29.4602798945451
variable C3pos equal ${d3}
variable C3pos equal 54.7151757029292
variable C4pos equal ${d4}
variable C4pos equal 15.9018708705082
variable C5pos equal ${d5}
variable C5pos equal -22.9341342791816
variable C6pos equal ${d6}
variable C6pos equal 11.2577048493079

# Combine positive and negative
variable C1${dir} equal 0.5*(${C1neg}+${C1pos})
variable C11 equal 0.5*(${C1neg}+${C1pos})
variable C11 equal 0.5*(-44.7224675384467+${C1pos})
variable C11 equal 0.5*(-44.7224675384467+36.475459048927)
variable C2${dir} equal 0.5*(${C2neg}+${C2pos})
variable C21 equal 0.5*(${C2neg}+${C2pos})
variable C21 equal 0.5*(33.7034226117595+${C2pos})
variable C21 equal 0.5*(33.7034226117595+-29.4602798945451)
variable C3${dir} equal 0.5*(${C3neg}+${C3pos})
variable C31 equal 0.5*(${C3neg}+${C3pos})
variable C31 equal 0.5*(-16.9462808479382+${C3pos})
variable C31 equal 0.5*(-16.9462808479382+54.7151757029292)
variable C4${dir} equal 0.5*(${C4neg}+${C4pos})
variable C41 equal 0.5*(${C4neg}+${C4pos})
variable C41 equal 0.5*(-3.66171372108444+${C4pos})
variable C41 equal 0.5*(-3.66171372108444+15.9018708705082)
variable C5${dir} equal 0.5*(${C5neg}+${C5pos})
variable C51 equal 0.5*(${C5neg}+${C5pos})
variable C51 equal 0.5*(16.6693047296377+${C5pos})
variable C51 equal 0.5*(16.6693047296377+-22.9341342791816)
variable C6${dir} equal 0.5*(${C6neg}+${C6pos})
variable C61 equal 0.5*(${C6neg}+${C6pos})
variable C61 equal 0.5*(-26.1862964419686+${C6pos})
variable C61 equal 0.5*(-26.1862964419686+11.2577048493079)

# Delete dir to make sure it is not reused
variable dir delete
# uyy Perturbation
variable dir equal 2
include displace.mod.lmp
# Find which reference length to use
if "${dir} == 1" then    "variable len0 equal ${lx0}"
if "${dir} == 2" then    "variable len0 equal ${ly0}"
variable len0 equal ${ly0}
variable len0 equal 13.4170067184353
if "${dir} == 3" then    "variable len0 equal ${lz0}"
if "${dir} == 4" then    "variable len0 equal ${lz0}"
if "${dir} == 5" then    "variable len0 equal ${lz0}"
if "${dir} == 6" then    "variable len0 equal ${ly0}"

# Reset box and simulation parameters
clear
OMP_NUM_THREADS environment is not set. Defaulting to 1 thread. (src/comm.cpp:98)
  using 1 OpenMP thread(s) per MPI task
# box tilt large
read_restart equil.res
Reading restart file ...
  restart file = 2 Aug 2023, LAMMPS = 2 Aug 2023
  restoring atom style full from restart
  triclinic box = (0.069742272 0.40119664 -0.14695996) to (15.608458 13.818203 17.78526) with tilt (-7.7490667 -1.5378211 0.14232347)
WARNING: Triclinic box skew is large. LAMMPS will run inefficiently. (src/domain.cpp:220)
  2 by 2 by 2 MPI processor grid
  pair style reaxff stores no restart info
  350 atoms
Finding 1-2 1-3 1-4 neighbors ...
  special bond factors lj:    0        0        0       
  special bond factors coul:  0        0        0       
     0 = max # of 1-2 neighbors
     0 = max # of 1-3 neighbors
     0 = max # of 1-4 neighbors
     1 = max # of special neighbors
  special bonds CPU = 0.000 seconds
  read_restart CPU = 0.003 seconds
print "*****Negative-change ${dir} starts.*****"
*****Negative-change 2 starts.*****
include ff.mod.lmp
# Setup forcefield, system
# undefine any fix ave/* fix before using reset_timestep
if "$(is_defined(fix,avgp))" then "unfix avgp"
reset_timestep 0

# Assign the force field
pair_style reaxff NULL safezone 3.0 mincap 150
# pair_coeff * * CHONSSi.ff O Si
# pair_coeff * * CHOSiNa.ff O Si
# pair_coeff * * SiOCHN_2018.ff O Si
# pair_coeff * * PDMSDecomp.ff Si O
pair_coeff * * CHONSi.ff C H O Si
# pair_coeff * * CHOFe.ff O Si

# charge method for reaxff
fix myqeq all qeq/reaxff 1 0.0 10.0 1.0e-6 reaxff maxiter 400
# Setup neighbor style
neighbor        2 bin
neigh_modify    every 10 delay 0 check no

# Setup output
fix avgp all ave/time  ${nevery} ${nrepeat} ${nfreq} c_thermo_press mode vector
fix avgp all ave/time  10 ${nrepeat} ${nfreq} c_thermo_press mode vector
fix avgp all ave/time  10 10 ${nfreq} c_thermo_press mode vector
fix avgp all ave/time  10 10 100 c_thermo_press mode vector
thermo		${nthermo}
thermo		100
thermo_style custom step temp pe press f_avgp[1] vol
thermo_modify norm no

# NVT
fix 4 all nvt temp ${temp} ${temp} ${tdamp}
fix 4 all nvt temp 300 ${temp} ${tdamp}
fix 4 all nvt temp 300 300 ${tdamp}
fix 4 all nvt temp 300 300 50
Resetting global fix info from restart file:
  fix style: nvt, fix ID: 4

# Negative deformation
variable delta equal -${up}*${len0}
variable delta equal -0.01*${len0}
variable delta equal -0.01*13.4170067184353
variable deltaxy equal -${up}*xy
variable deltaxy equal -0.01*xy
variable deltaxz equal -${up}*xz
variable deltaxz equal -0.01*xz
variable deltayz equal -${up}*yz
variable deltayz equal -0.01*yz
if "${dir} == 1" then    "change_box all x delta 0 ${delta} xy delta ${deltaxy} xz delta ${deltaxz} remap units box"
if "${dir} == 2" then    "change_box all y delta 0 ${delta} yz delta ${deltayz} remap units box"
change_box all y delta 0 ${delta} yz delta ${deltayz} remap units box
change_box all y delta 0 -0.134170067184353 yz delta ${deltayz} remap units box
change_box all y delta 0 -0.134170067184353 yz delta -0.00142323467109325 remap units box
Changing box ...
WARNING: Triclinic box skew is large. LAMMPS will run inefficiently. (src/domain.cpp:220)
  triclinic box = (0.069742272 0.40119664 -0.14695996) to (15.608458 13.684033 17.78526) with tilt (-7.7490667 -1.5378211 0.14232347)
WARNING: Triclinic box skew is large. LAMMPS will run inefficiently. (src/domain.cpp:220)
  triclinic box = (0.069742272 0.40119664 -0.14695996) to (15.608458 13.684033 17.78526) with tilt (-7.7490667 -1.5378211 0.14090023)
if "${dir} == 3" then    "change_box all z delta 0 ${delta} remap units box"
if "${dir} == 4" then    "change_box all yz delta ${delta} remap units box"
if "${dir} == 5" then    "change_box all xz delta ${delta} remap units box"
if "${dir} == 6" then    "change_box all xy delta ${delta} remap units box"

# Run MD for Negative deformation
# save trajectory
dump dump_neg${dir} all custom ${nthermo} dump/neg_deform${dir}.lammpstrj id type x y z
dump dump_neg2 all custom ${nthermo} dump/neg_deform${dir}.lammpstrj id type x y z
dump dump_neg2 all custom 100 dump/neg_deform${dir}.lammpstrj id type x y z
dump dump_neg2 all custom 100 dump/neg_deform2.lammpstrj id type x y z
run ${nrun}
run 2000
All restart file global fix info was re-assigned
Neighbor list info ...
  update: every = 10 steps, delay = 0 steps, check = no
  max neighbors/atom: 2000, page size: 100000
  master list distance cutoff = 12
  ghost atom cutoff = 12
  binsize = 6, bins = 5 3 3
  2 neighbor lists, perpetual/occasional/extra = 2 0 0
  (1) pair reaxff, perpetual
      attributes: half, newton off, ghost
      pair build: half/bin/newtoff/ghost
      stencil: full/ghost/bin/3d
      bin: standard
  (2) fix qeq/reaxff, perpetual, copy from (1)
      attributes: half, newton off
      pair build: copy
      stencil: none
      bin: none
Per MPI rank memory allocation (min/avg/max) = 130.6 | 131.6 | 132.4 Mbytes
   Step          Temp          PotEng         Press        f_avgp[1]        Volume    
         0   289.20158     -41241.598      45829.511      0              3701.1783    
       100   283.58037     -41271.465      6840.4063      5916.2149      3701.1783    
       200   287.90479     -41275.717     -11853.288     -6327.559       3701.1783    
       300   297.6509      -41275.806      1595.764       2193.6172      3701.1783    
       400   292.68474     -41257.099      6673.9831     -1062.0961      3701.1783    
       500   299.31193     -41242.509      1114.8784     -621.52274      3701.1783    
       600   306.50464     -41227.858     -5554.4646      1598.5063      3701.1783    
       700   313.07279     -41244.792      13982.502     -310.66502      3701.1783    
       800   300.19469     -41269.261     -1214.5542      748.31507      3701.1783    
       900   292.666       -41275.242     -9418.777       7121.4601      3701.1783    
      1000   292.71458     -41271.43      -2620.0587     -537.52629      3701.1783    
      1100   287.63307     -41236.933     -15731.339     -1527.1808      3701.1783    
      1200   304.53169     -41246.991      10716.033      4684.4743      3701.1783    
      1300   293.70136     -41253.867      10811.706     -1822.1401      3701.1783    
      1400   290.09252     -41260.788      12056.768     -2577.2047      3701.1783    
      1500   311.15808     -41274.144      11150.415      801.77145      3701.1783    
      1600   290.03809     -41241.013     -1310.1682      1790.2433      3701.1783    
      1700   320.19107     -41260.418     -4590.1384     -3859.2814      3701.1783    
      1800   309.00588     -41250.753      7007.6038      4690.1628      3701.1783    
      1900   301.56819     -41265.979      5408.8271     -206.98499      3701.1783    
      2000   285.22419     -41269.387      995.72626      1926.1739      3701.1783    
Loop time of 99.0305 on 8 procs for 2000 steps with 350 atoms

Performance: 0.872 ns/day, 27.508 hours/ns, 20.196 timesteps/s, 7.069 katom-step/s
98.7% CPU use with 8 MPI tasks x 1 OpenMP threads

MPI task timing breakdown:
Section |  min time  |  avg time  |  max time  |%varavg| %total
---------------------------------------------------------------
Pair    | 68.483     | 80.433     | 83.216     |  51.3 | 81.22
Bond    | 0.00062101 | 0.00073544 | 0.00087128 |   0.0 |  0.00
Neigh   | 5.3414     | 6.2108     | 6.4375     |  13.5 |  6.27
Comm    | 1.4234     | 4.2114     | 16.161     | 224.3 |  4.25
Output  | 0.0041045  | 0.0050612  | 0.0058164  |   0.8 |  0.01
Modify  | 7.8988     | 8.1289     | 9.0012     |  11.9 |  8.21
Other   |            | 0.04076    |            |       |  0.04

Nlocal:          43.75 ave          49 max          40 min
Histogram: 1 2 0 0 2 1 1 0 0 1
Nghost:        3402.38 ave        3435 max        3369 min
Histogram: 2 0 1 0 1 1 1 0 0 2
Neighs:        28994.4 ave       32303 max       26610 min
Histogram: 1 2 0 0 2 1 1 0 0 1

Total # of neighbors = 231955
Ave neighs/atom = 662.72857
Ave special neighs/atom = 0
Neighbor list builds = 200
Dangerous builds not checked
undump dump_neg${dir}
undump dump_neg2

# Run equilibration
print "*****Equilibration neg${dir} starts.*****"
*****Equilibration neg2 starts.*****
include ff.mod.lmp
# Setup forcefield, system
# undefine any fix ave/* fix before using reset_timestep
if "$(is_defined(fix,avgp))" then "unfix avgp"
unfix avgp
reset_timestep 0

# Assign the force field
pair_style reaxff NULL safezone 3.0 mincap 150
# pair_coeff * * CHONSSi.ff O Si
# pair_coeff * * CHOSiNa.ff O Si
# pair_coeff * * SiOCHN_2018.ff O Si
# pair_coeff * * PDMSDecomp.ff Si O
pair_coeff * * CHONSi.ff C H O Si
# pair_coeff * * CHOFe.ff O Si

# charge method for reaxff
fix myqeq all qeq/reaxff 1 0.0 10.0 1.0e-6 reaxff maxiter 400
# Setup neighbor style
neighbor        2 bin
neigh_modify    every 10 delay 0 check no

# Setup output
fix avgp all ave/time  ${nevery} ${nrepeat} ${nfreq} c_thermo_press mode vector
fix avgp all ave/time  10 ${nrepeat} ${nfreq} c_thermo_press mode vector
fix avgp all ave/time  10 10 ${nfreq} c_thermo_press mode vector
fix avgp all ave/time  10 10 100 c_thermo_press mode vector
thermo		${nthermo}
thermo		100
thermo_style custom step temp pe press f_avgp[1] vol
WARNING: New thermo_style command, previous thermo_modify settings will be lost (src/output.cpp:903)
thermo_modify norm no

# NVT
fix 4 all nvt temp ${temp} ${temp} ${tdamp}
fix 4 all nvt temp 300 ${temp} ${tdamp}
fix 4 all nvt temp 300 300 ${tdamp}
fix 4 all nvt temp 300 300 50
run ${nequil}
run 2000
Neighbor list info ...
  update: every = 10 steps, delay = 0 steps, check = no
  max neighbors/atom: 2000, page size: 100000
  master list distance cutoff = 12
  ghost atom cutoff = 12
  binsize = 6, bins = 5 3 3
  2 neighbor lists, perpetual/occasional/extra = 2 0 0
  (1) pair reaxff, perpetual
      attributes: half, newton off, ghost
      pair build: half/bin/newtoff/ghost
      stencil: full/ghost/bin/3d
      bin: standard
  (2) fix qeq/reaxff, perpetual, copy from (1)
      attributes: half, newton off
      pair build: copy
      stencil: none
      bin: none
Per MPI rank memory allocation (min/avg/max) = 130.6 | 131.6 | 132.4 Mbytes
   Step          Temp          PotEng         Press        f_avgp[1]        Volume    
         0   285.22419     -41269.387      995.71521      0              3701.1783    
       100   286.39604     -41259.521      11198.148      8686.9483      3701.1783    
       200   300.48208     -41244.796     -1687.5037      678.45304      3701.1783    
       300   309.75537     -41238.247     -10759.866      1843.3625      3701.1783    
       400   298.01786     -41236.996     -2470.2241     -4472.0015      3701.1783    
       500   302.36573     -41264.111     -6567.611       1272.3323      3701.1783    
       600   313.9084      -41279.637      1745.0258      2030.8882      3701.1783    
       700   312.15982     -41281.183      3248.5621     -1782.2492      3701.1783    
       800   288.9761      -41259.445     -10745.599     -7306.5555      3701.1783    
       900   321.98991     -41281.64       23947.187      2778.7553      3701.1783    
      1000   288.38632     -41242.345     -1600.5066     -1116.8139      3701.1783    
      1100   299.9498      -41262.102      7345.2495     -2429.2643      3701.1783    
      1200   294.89951     -41278.852     -7555.7782      3544.8402      3701.1783    
      1300   292.56726     -41286.036      1472.3968     -5592.9848      3701.1783    
      1400   304.76741     -41280.069      4903.1544      516.27258      3701.1783    
      1500   335.61131     -41276.657      5660.58        3364.5538      3701.1783    
      1600   301.64152     -41246.957     -17105.096     -2334.4733      3701.1783    
      1700   297.05953     -41264.208     -6840.55        1125.8132      3701.1783    
      1800   289.6966      -41270.776     -2091.6418      280.67059      3701.1783    
      1900   298.11945     -41276.397      498.25719     -1515.7168      3701.1783    
      2000   314.82417     -41249.704      12994.234     -2064.8261      3701.1783    
Loop time of 98.9077 on 8 procs for 2000 steps with 350 atoms

Performance: 0.874 ns/day, 27.474 hours/ns, 20.221 timesteps/s, 7.077 katom-step/s
98.8% CPU use with 8 MPI tasks x 1 OpenMP threads

MPI task timing breakdown:
Section |  min time  |  avg time  |  max time  |%varavg| %total
---------------------------------------------------------------
Pair    | 80.081     | 81.936     | 83.173     |  10.9 | 82.84
Bond    | 0.00061239 | 0.00072347 | 0.00088992 |   0.0 |  0.00
Neigh   | 6.2366     | 6.342      | 6.4345     |   2.5 |  6.41
Comm    | 1.3117     | 2.5526     | 4.4091     |  61.6 |  2.58
Output  | 0.00098135 | 0.0010552  | 0.0014222  |   0.4 |  0.00
Modify  | 7.9405     | 8.0344     | 8.1356     |   2.2 |  8.12
Other   |            | 0.04061    |            |       |  0.04

Nlocal:          43.75 ave          48 max          37 min
Histogram: 1 0 0 0 2 1 1 0 0 3
Nghost:        3371.25 ave        3421 max        3315 min
Histogram: 1 0 0 1 3 0 1 0 1 1
Neighs:        29033.5 ave       31732 max       24758 min
Histogram: 1 0 0 0 2 1 1 0 0 3

Total # of neighbors = 232268
Ave neighs/atom = 663.62286
Ave special neighs/atom = 0
Neighbor list builds = 200
Dangerous builds not checked

# Obtain new stress tensor Negative deformation, convert index from LAMMPS to Voigt
variable pxx1 equal f_avgp[1]
variable pyy1 equal f_avgp[2]
variable pzz1 equal f_avgp[3]
variable pxy1 equal f_avgp[4]
variable pxz1 equal f_avgp[5]
variable pyz1 equal f_avgp[6]

# Compute elastic constant from pressure
# d1 = -[pxx1-pxx0]/[(]v_delta/v_len0] defined in input script
variable C1neg equal ${d1}
variable C1neg equal -33.6188797916664
variable C2neg equal ${d2}
variable C2neg equal 72.9459989722896
variable C3neg equal ${d3}
variable C3neg equal -19.3262085755424
variable C4neg equal ${d4}
variable C4neg equal 12.6909711102968
variable C5neg equal ${d5}
variable C5neg equal 10.8895887531292
variable C6neg equal ${d6}
variable C6neg equal -2.83614848848581

# Reset box and simulation parameters
clear
OMP_NUM_THREADS environment is not set. Defaulting to 1 thread. (src/comm.cpp:98)
  using 1 OpenMP thread(s) per MPI task
# box tilt large
read_restart equil.res
Reading restart file ...
  restart file = 2 Aug 2023, LAMMPS = 2 Aug 2023
  restoring atom style full from restart
  triclinic box = (0.069742272 0.40119664 -0.14695996) to (15.608458 13.818203 17.78526) with tilt (-7.7490667 -1.5378211 0.14232347)
WARNING: Triclinic box skew is large. LAMMPS will run inefficiently. (src/domain.cpp:220)
  2 by 2 by 2 MPI processor grid
  pair style reaxff stores no restart info
  350 atoms
Finding 1-2 1-3 1-4 neighbors ...
  special bond factors lj:    0        0        0       
  special bond factors coul:  0        0        0       
     0 = max # of 1-2 neighbors
     0 = max # of 1-3 neighbors
     0 = max # of 1-4 neighbors
     1 = max # of special neighbors
  special bonds CPU = 0.000 seconds
  read_restart CPU = 0.003 seconds
print "*****Positive-change ${dir} starts.*****"
*****Positive-change 2 starts.*****
include ff.mod.lmp
# Setup forcefield, system
# undefine any fix ave/* fix before using reset_timestep
if "$(is_defined(fix,avgp))" then "unfix avgp"
reset_timestep 0

# Assign the force field
pair_style reaxff NULL safezone 3.0 mincap 150
# pair_coeff * * CHONSSi.ff O Si
# pair_coeff * * CHOSiNa.ff O Si
# pair_coeff * * SiOCHN_2018.ff O Si
# pair_coeff * * PDMSDecomp.ff Si O
pair_coeff * * CHONSi.ff C H O Si
# pair_coeff * * CHOFe.ff O Si

# charge method for reaxff
fix myqeq all qeq/reaxff 1 0.0 10.0 1.0e-6 reaxff maxiter 400
# Setup neighbor style
neighbor        2 bin
neigh_modify    every 10 delay 0 check no

# Setup output
fix avgp all ave/time  ${nevery} ${nrepeat} ${nfreq} c_thermo_press mode vector
fix avgp all ave/time  10 ${nrepeat} ${nfreq} c_thermo_press mode vector
fix avgp all ave/time  10 10 ${nfreq} c_thermo_press mode vector
fix avgp all ave/time  10 10 100 c_thermo_press mode vector
thermo		${nthermo}
thermo		100
thermo_style custom step temp pe press f_avgp[1] vol
thermo_modify norm no

# NVT
fix 4 all nvt temp ${temp} ${temp} ${tdamp}
fix 4 all nvt temp 300 ${temp} ${tdamp}
fix 4 all nvt temp 300 300 ${tdamp}
fix 4 all nvt temp 300 300 50
Resetting global fix info from restart file:
  fix style: nvt, fix ID: 4

# Positive deformation
variable delta equal ${up}*${len0}
variable delta equal 0.01*${len0}
variable delta equal 0.01*13.4170067184353
variable deltaxy equal ${up}*xy
variable deltaxy equal 0.01*xy
variable deltaxz equal ${up}*xz
variable deltaxz equal 0.01*xz
variable deltayz equal ${up}*yz
variable deltayz equal 0.01*yz
if "${dir} == 1" then    "change_box all x delta 0 ${delta} xy delta ${deltaxy} xz delta ${deltaxz} remap units box"
if "${dir} == 2" then    "change_box all y delta 0 ${delta} yz delta ${deltayz} remap units box"
change_box all y delta 0 ${delta} yz delta ${deltayz} remap units box
change_box all y delta 0 0.134170067184353 yz delta ${deltayz} remap units box
change_box all y delta 0 0.134170067184353 yz delta 0.00142323467109325 remap units box
Changing box ...
WARNING: Triclinic box skew is large. LAMMPS will run inefficiently. (src/domain.cpp:220)
  triclinic box = (0.069742272 0.40119664 -0.14695996) to (15.608458 13.952373 17.78526) with tilt (-7.7490667 -1.5378211 0.14232347)
WARNING: Triclinic box skew is large. LAMMPS will run inefficiently. (src/domain.cpp:220)
  triclinic box = (0.069742272 0.40119664 -0.14695996) to (15.608458 13.952373 17.78526) with tilt (-7.7490667 -1.5378211 0.1437467)
if "${dir} == 3" then    "change_box all z delta 0 ${delta} remap units box"
if "${dir} == 4" then    "change_box all yz delta ${delta} remap units box"
if "${dir} == 5" then    "change_box all xz delta ${delta} remap units box"
if "${dir} == 6" then    "change_box all xy delta ${delta} remap units box"

# Run positive deformation MD
# save trajectory
dump dump_pos${dir} all custom ${nthermo} dump/pos_deform${dir}.lammpstrj id type x y z
dump dump_pos2 all custom ${nthermo} dump/pos_deform${dir}.lammpstrj id type x y z
dump dump_pos2 all custom 100 dump/pos_deform${dir}.lammpstrj id type x y z
dump dump_pos2 all custom 100 dump/pos_deform2.lammpstrj id type x y z
run ${nrun}
run 2000
All restart file global fix info was re-assigned
Neighbor list info ...
  update: every = 10 steps, delay = 0 steps, check = no
  max neighbors/atom: 2000, page size: 100000
  master list distance cutoff = 12
  ghost atom cutoff = 12
  binsize = 6, bins = 5 3 3
  2 neighbor lists, perpetual/occasional/extra = 2 0 0
  (1) pair reaxff, perpetual
      attributes: half, newton off, ghost
      pair build: half/bin/newtoff/ghost
      stencil: full/ghost/bin/3d
      bin: standard
  (2) fix qeq/reaxff, perpetual, copy from (1)
      attributes: half, newton off
      pair build: copy
      stencil: none
      bin: none
Per MPI rank memory allocation (min/avg/max) = 128.1 | 129.3 | 130.1 Mbytes
   Step          Temp          PotEng         Press        f_avgp[1]        Volume    
         0   289.20158     -41223.42      -47221.3        0              3775.9495    
       100   273.01347     -41244.154      1775.61        829.53387      3775.9495    
       200   287.92025     -41258.804     -1418.824      -3391.436       3775.9495    
       300   305.09611     -41265.442     -3940.0728     -2357.1497      3775.9495    
       400   304.55843     -41247.246     -7310.2094     -4473.0973      3775.9495    
       500   321.39377     -41243.521      120.27174     -2350.6228      3775.9495    
       600   302.86714     -41216.174      3901.4916     -1864.6539      3775.9495    
       700   302.24219     -41234.861     -4699.3906     -1818.27        3775.9495    
       800   286.34098     -41244.825      1661.4327     -2031.8251      3775.9495    
       900   301.17356     -41255.652     -3810.5185     -2686.51        3775.9495    
      1000   304.65433     -41239.661      11094.335     -4497.0361      3775.9495    
      1100   314.28993     -41228.024      1257.6621     -2959.8242      3775.9495    
      1200   310.03814     -41213.874     -6411.4455     -5921.6195      3775.9495    
      1300   288.90551     -41223.005     -10692.413     -6173.8634      3775.9495    
      1400   289.1036      -41244.502     -6563.2446     -3610.0144      3775.9495    
      1500   281.93134     -41239.733     -5839.2199     -5487.4034      3775.9495    
      1600   274.56833     -41213.632     -802.21806     -5947.227       3775.9495    
      1700   303.58497     -41217.47      -1255.6413     -3598.401       3775.9495    
      1800   318.9722      -41235.079      4065.4811     -1100.1595      3775.9495    
      1900   281.19107     -41233.253      2201.0001      3531.1249      3775.9495    
      2000   290.46513     -41253.277      3601.9519      2153.6719      3775.9495    
Loop time of 94.8775 on 8 procs for 2000 steps with 350 atoms

Performance: 0.911 ns/day, 26.355 hours/ns, 21.080 timesteps/s, 7.378 katom-step/s
98.7% CPU use with 8 MPI tasks x 1 OpenMP threads

MPI task timing breakdown:
Section |  min time  |  avg time  |  max time  |%varavg| %total
---------------------------------------------------------------
Pair    | 73.767     | 77.617     | 78.955     |  19.0 | 81.81
Bond    | 0.0006521  | 0.00072408 | 0.0008446  |   0.0 |  0.00
Neigh   | 5.7459     | 6.0549     | 6.176      |   5.3 |  6.38
Comm    | 1.9224     | 3.2666     | 7.1077     |  92.4 |  3.44
Output  | 0.0041862  | 0.0050727  | 0.0057302  |   0.7 |  0.01
Modify  | 7.7684     | 7.8935     | 8.211      |   4.8 |  8.32
Other   |            | 0.03969    |            |       |  0.04

Nlocal:          43.75 ave          51 max          40 min
Histogram: 3 1 0 1 0 2 0 0 0 1
Nghost:        3328.12 ave        3369 max        3282 min
Histogram: 1 1 0 1 1 0 1 1 0 2
Neighs:        28424.6 ave       32893 max       26137 min
Histogram: 3 1 0 1 0 2 0 0 0 1

Total # of neighbors = 227397
Ave neighs/atom = 649.70571
Ave special neighs/atom = 0
Neighbor list builds = 200
Dangerous builds not checked
undump dump_pos${dir}
undump dump_pos2

# Run equilibration
print "*****Equilibration pos${dir} starts.*****"
*****Equilibration pos2 starts.*****
include ff.mod.lmp
# Setup forcefield, system
# undefine any fix ave/* fix before using reset_timestep
if "$(is_defined(fix,avgp))" then "unfix avgp"
unfix avgp
reset_timestep 0

# Assign the force field
pair_style reaxff NULL safezone 3.0 mincap 150
# pair_coeff * * CHONSSi.ff O Si
# pair_coeff * * CHOSiNa.ff O Si
# pair_coeff * * SiOCHN_2018.ff O Si
# pair_coeff * * PDMSDecomp.ff Si O
pair_coeff * * CHONSi.ff C H O Si
# pair_coeff * * CHOFe.ff O Si

# charge method for reaxff
fix myqeq all qeq/reaxff 1 0.0 10.0 1.0e-6 reaxff maxiter 400
# Setup neighbor style
neighbor        2 bin
neigh_modify    every 10 delay 0 check no

# Setup output
fix avgp all ave/time  ${nevery} ${nrepeat} ${nfreq} c_thermo_press mode vector
fix avgp all ave/time  10 ${nrepeat} ${nfreq} c_thermo_press mode vector
fix avgp all ave/time  10 10 ${nfreq} c_thermo_press mode vector
fix avgp all ave/time  10 10 100 c_thermo_press mode vector
thermo		${nthermo}
thermo		100
thermo_style custom step temp pe press f_avgp[1] vol
WARNING: New thermo_style command, previous thermo_modify settings will be lost (src/output.cpp:903)
thermo_modify norm no

# NVT
fix 4 all nvt temp ${temp} ${temp} ${tdamp}
fix 4 all nvt temp 300 ${temp} ${tdamp}
fix 4 all nvt temp 300 300 ${tdamp}
fix 4 all nvt temp 300 300 50
run ${nequil}
run 2000
Neighbor list info ...
  update: every = 10 steps, delay = 0 steps, check = no
  max neighbors/atom: 2000, page size: 100000
  master list distance cutoff = 12
  ghost atom cutoff = 12
  binsize = 6, bins = 5 3 3
  2 neighbor lists, perpetual/occasional/extra = 2 0 0
  (1) pair reaxff, perpetual
      attributes: half, newton off, ghost
      pair build: half/bin/newtoff/ghost
      stencil: full/ghost/bin/3d
      bin: standard
  (2) fix qeq/reaxff, perpetual, copy from (1)
      attributes: half, newton off
      pair build: copy
      stencil: none
      bin: none
Per MPI rank memory allocation (min/avg/max) = 128.1 | 129.3 | 130.1 Mbytes
   Step          Temp          PotEng         Press        f_avgp[1]        Volume    
         0   290.46513     -41253.277      3601.9433      0              3775.9495    
       100   297.81027     -41247.981      6412.2725      3040.5411      3775.9495    
       200   330.27115     -41252.615      957.05573      2392.4191      3775.9495    
       300   295.19407     -41205.832     -18326.284     -3497.4937      3775.9495    
       400   310.70852     -41231.652     -12447.999     -193.21994      3775.9495    
       500   309.3954      -41244.071     -5389.531      -7002.1733      3775.9495    
       600   301.34899     -41239.833      132.97108     -4296.4493      3775.9495    
       700   311.4435      -41262.633      3454.9212     -2091.7655      3775.9495    
       800   283.88892     -41255.84      -4687.1595     -2197.855       3775.9495    
       900   268.55496     -41260.789      1953.4202      1489.2995      3775.9495    
      1000   282.41918     -41254.489     -9471.8284      94.184372      3775.9495    
      1100   294.40813     -41241.557      8717.1033     -3036.3434      3775.9495    
      1200   295.83649     -41234.731     -4672.3284     -4988.7886      3775.9495    
      1300   308.98123     -41244.885     -2403.5082      4177.0437      3775.9495    
      1400   305.39761     -41252.169     -16691.155      723.66999      3775.9495    
      1500   289.76883     -41256.366     -3009.9418     -1164.8133      3775.9495    
      1600   299.198       -41277.533     -10170.224     -2924.5415      3775.9495    
      1700   299.40985     -41271.04      -4947.6907     -2645.3802      3775.9495    
      1800   276.10224     -41207.607     -4527.1495     -2321.1842      3775.9495    
      1900   314.03135     -41234.21      -4445.489      -2636.9661      3775.9495    
      2000   301.36298     -41237.184     -12986.212      1428.041       3775.9495    
Loop time of 94.2739 on 8 procs for 2000 steps with 350 atoms

Performance: 0.916 ns/day, 26.187 hours/ns, 21.215 timesteps/s, 7.425 katom-step/s
98.9% CPU use with 8 MPI tasks x 1 OpenMP threads

MPI task timing breakdown:
Section |  min time  |  avg time  |  max time  |%varavg| %total
---------------------------------------------------------------
Pair    | 53.957     | 75.054     | 79.314     |  92.6 | 79.61
Bond    | 0.0006195  | 0.00071752 | 0.0008226  |   0.0 |  0.00
Neigh   | 4.3474     | 5.8992     | 6.2089     |  24.4 |  6.26
Comm    | 1.0757     | 5.3471     | 26.423     | 346.6 |  5.67
Output  | 0.00076756 | 0.00083024 | 0.0011236  |   0.0 |  0.00
Modify  | 7.6122     | 7.9332     | 9.5083     |  21.3 |  8.42
Other   |            | 0.03863    |            |       |  0.04

Nlocal:          43.75 ave          48 max          37 min
Histogram: 1 0 0 1 1 0 2 0 1 2
Nghost:        3332.62 ave        3372 max        3283 min
Histogram: 1 0 0 3 0 0 1 1 0 2
Neighs:        28417.9 ave       31305 max       24182 min
Histogram: 1 0 0 1 1 0 2 1 0 2

Total # of neighbors = 227343
Ave neighs/atom = 649.55143
Ave special neighs/atom = 0
Neighbor list builds = 200
Dangerous builds not checked

# Obtain new stress tensor, convert index from LAMMPS to Voigt
variable pxx1 equal f_avgp[1]
variable pyy1 equal f_avgp[2]
variable pzz1 equal f_avgp[3]
variable pxy1 equal f_avgp[4]
variable pxz1 equal f_avgp[5]
variable pyz1 equal f_avgp[6]

# Compute elastic constant from pressure tensor
# d1 = -[pxx1-pxx0]/[(]v_delta/v_len0] defined in input script
variable C1pos equal ${d1}
variable C1pos equal -1.77259593700631
variable C2pos equal ${d2}
variable C2pos equal -33.8275920543438
variable C3pos equal ${d3}
variable C3pos equal 6.18928605703525
variable C4pos equal ${d4}
variable C4pos equal -4.15105164558896
variable C5pos equal ${d5}
variable C5pos equal 0.16258480218166
variable C6pos equal ${d6}
variable C6pos equal 21.9902622895498

# Combine positive and negative
variable C1${dir} equal 0.5*(${C1neg}+${C1pos})
variable C12 equal 0.5*(${C1neg}+${C1pos})
variable C12 equal 0.5*(-33.6188797916664+${C1pos})
variable C12 equal 0.5*(-33.6188797916664+-1.77259593700631)
variable C2${dir} equal 0.5*(${C2neg}+${C2pos})
variable C22 equal 0.5*(${C2neg}+${C2pos})
variable C22 equal 0.5*(72.9459989722896+${C2pos})
variable C22 equal 0.5*(72.9459989722896+-33.8275920543438)
variable C3${dir} equal 0.5*(${C3neg}+${C3pos})
variable C32 equal 0.5*(${C3neg}+${C3pos})
variable C32 equal 0.5*(-19.3262085755424+${C3pos})
variable C32 equal 0.5*(-19.3262085755424+6.18928605703525)
variable C4${dir} equal 0.5*(${C4neg}+${C4pos})
variable C42 equal 0.5*(${C4neg}+${C4pos})
variable C42 equal 0.5*(12.6909711102968+${C4pos})
variable C42 equal 0.5*(12.6909711102968+-4.15105164558896)
variable C5${dir} equal 0.5*(${C5neg}+${C5pos})
variable C52 equal 0.5*(${C5neg}+${C5pos})
variable C52 equal 0.5*(10.8895887531292+${C5pos})
variable C52 equal 0.5*(10.8895887531292+0.16258480218166)
variable C6${dir} equal 0.5*(${C6neg}+${C6pos})
variable C62 equal 0.5*(${C6neg}+${C6pos})
variable C62 equal 0.5*(-2.83614848848581+${C6pos})
variable C62 equal 0.5*(-2.83614848848581+21.9902622895498)

# Delete dir to make sure it is not reused
variable dir delete
# uzz Perturbation
variable dir equal 3
include displace.mod.lmp
# Find which reference length to use
if "${dir} == 1" then    "variable len0 equal ${lx0}"
if "${dir} == 2" then    "variable len0 equal ${ly0}"
if "${dir} == 3" then    "variable len0 equal ${lz0}"
variable len0 equal ${lz0}
variable len0 equal 17.9322199223083
if "${dir} == 4" then    "variable len0 equal ${lz0}"
if "${dir} == 5" then    "variable len0 equal ${lz0}"
if "${dir} == 6" then    "variable len0 equal ${ly0}"

# Reset box and simulation parameters
clear
OMP_NUM_THREADS environment is not set. Defaulting to 1 thread. (src/comm.cpp:98)
  using 1 OpenMP thread(s) per MPI task
# box tilt large
read_restart equil.res
Reading restart file ...
  restart file = 2 Aug 2023, LAMMPS = 2 Aug 2023
  restoring atom style full from restart
  triclinic box = (0.069742272 0.40119664 -0.14695996) to (15.608458 13.818203 17.78526) with tilt (-7.7490667 -1.5378211 0.14232347)
WARNING: Triclinic box skew is large. LAMMPS will run inefficiently. (src/domain.cpp:220)
  2 by 2 by 2 MPI processor grid
  pair style reaxff stores no restart info
  350 atoms
Finding 1-2 1-3 1-4 neighbors ...
  special bond factors lj:    0        0        0       
  special bond factors coul:  0        0        0       
     0 = max # of 1-2 neighbors
     0 = max # of 1-3 neighbors
     0 = max # of 1-4 neighbors
     1 = max # of special neighbors
  special bonds CPU = 0.000 seconds
  read_restart CPU = 0.003 seconds
print "*****Negative-change ${dir} starts.*****"
*****Negative-change 3 starts.*****
include ff.mod.lmp
# Setup forcefield, system
# undefine any fix ave/* fix before using reset_timestep
if "$(is_defined(fix,avgp))" then "unfix avgp"
reset_timestep 0

# Assign the force field
pair_style reaxff NULL safezone 3.0 mincap 150
# pair_coeff * * CHONSSi.ff O Si
# pair_coeff * * CHOSiNa.ff O Si
# pair_coeff * * SiOCHN_2018.ff O Si
# pair_coeff * * PDMSDecomp.ff Si O
pair_coeff * * CHONSi.ff C H O Si
# pair_coeff * * CHOFe.ff O Si

# charge method for reaxff
fix myqeq all qeq/reaxff 1 0.0 10.0 1.0e-6 reaxff maxiter 400
# Setup neighbor style
neighbor        2 bin
neigh_modify    every 10 delay 0 check no

# Setup output
fix avgp all ave/time  ${nevery} ${nrepeat} ${nfreq} c_thermo_press mode vector
fix avgp all ave/time  10 ${nrepeat} ${nfreq} c_thermo_press mode vector
fix avgp all ave/time  10 10 ${nfreq} c_thermo_press mode vector
fix avgp all ave/time  10 10 100 c_thermo_press mode vector
thermo		${nthermo}
thermo		100
thermo_style custom step temp pe press f_avgp[1] vol
thermo_modify norm no

# NVT
fix 4 all nvt temp ${temp} ${temp} ${tdamp}
fix 4 all nvt temp 300 ${temp} ${tdamp}
fix 4 all nvt temp 300 300 ${tdamp}
fix 4 all nvt temp 300 300 50
Resetting global fix info from restart file:
  fix style: nvt, fix ID: 4

# Negative deformation
variable delta equal -${up}*${len0}
variable delta equal -0.01*${len0}
variable delta equal -0.01*17.9322199223083
variable deltaxy equal -${up}*xy
variable deltaxy equal -0.01*xy
variable deltaxz equal -${up}*xz
variable deltaxz equal -0.01*xz
variable deltayz equal -${up}*yz
variable deltayz equal -0.01*yz
if "${dir} == 1" then    "change_box all x delta 0 ${delta} xy delta ${deltaxy} xz delta ${deltaxz} remap units box"
if "${dir} == 2" then    "change_box all y delta 0 ${delta} yz delta ${deltayz} remap units box"
if "${dir} == 3" then    "change_box all z delta 0 ${delta} remap units box"
change_box all z delta 0 ${delta} remap units box
change_box all z delta 0 -0.179322199223083 remap units box
Changing box ...
WARNING: Triclinic box skew is large. LAMMPS will run inefficiently. (src/domain.cpp:220)
  triclinic box = (0.069742272 0.40119664 -0.14695996) to (15.608458 13.818203 17.605938) with tilt (-7.7490667 -1.5378211 0.14232347)
if "${dir} == 4" then    "change_box all yz delta ${delta} remap units box"
if "${dir} == 5" then    "change_box all xz delta ${delta} remap units box"
if "${dir} == 6" then    "change_box all xy delta ${delta} remap units box"

# Run MD for Negative deformation
# save trajectory
dump dump_neg${dir} all custom ${nthermo} dump/neg_deform${dir}.lammpstrj id type x y z
dump dump_neg3 all custom ${nthermo} dump/neg_deform${dir}.lammpstrj id type x y z
dump dump_neg3 all custom 100 dump/neg_deform${dir}.lammpstrj id type x y z
dump dump_neg3 all custom 100 dump/neg_deform3.lammpstrj id type x y z
run ${nrun}
run 2000
All restart file global fix info was re-assigned
Neighbor list info ...
  update: every = 10 steps, delay = 0 steps, check = no
  max neighbors/atom: 2000, page size: 100000
  master list distance cutoff = 12
  ghost atom cutoff = 12
  binsize = 6, bins = 5 3 3
  2 neighbor lists, perpetual/occasional/extra = 2 0 0
  (1) pair reaxff, perpetual
      attributes: half, newton off, ghost
      pair build: half/bin/newtoff/ghost
      stencil: full/ghost/bin/3d
      bin: standard
  (2) fix qeq/reaxff, perpetual, copy from (1)
      attributes: half, newton off
      pair build: copy
      stencil: none
      bin: none
Per MPI rank memory allocation (min/avg/max) = 129.8 | 130.9 | 132 Mbytes
   Step          Temp          PotEng         Press        f_avgp[1]        Volume    
         0   289.20158     -41231.328      52325.507      0              3701.1783    
       100   278.8223      -41256.351      9671.9713      6812.7802      3701.1783    
       200   296.92337     -41275.533     -3087.1158     -3644.0838      3701.1783    
       300   292.79428     -41261.031     -2820.7004     -424.03636      3701.1783    
       400   297.65444     -41251.15       14799.91       1595.8753      3701.1783    
       500   299.40265     -41227.184      8202.0267     -931.3265       3701.1783    
       600   302.21616     -41222.957     -9392.3272     -1543.0784      3701.1783    
       700   296.20822     -41259.615     -14583.595     -4587.6986      3701.1783    
       800   272.82944     -41251.788     -2674.6435      640.93441      3701.1783    
       900   295.61037     -41268.998      2668.278       9115.8919      3701.1783    
      1000   296.96211     -41244.222     -8378.1586      1564.6495      3701.1783    
      1100   310.47541     -41239.371      6115.7068     -1493.2998      3701.1783    
      1200   296.27324     -41238.221      440.8998       5700.6124      3701.1783    
[...]
Pair    | 55.616     | 75.78      | 81.534     | 101.8 | 78.05
Bond    | 0.00062161 | 0.00074724 | 0.00093273 |   0.0 |  0.00
Neigh   | 4.4574     | 5.9771     | 6.4047     |  27.3 |  6.16
Comm    | 1.4082     | 7.1581     | 27.31      | 331.0 |  7.37
Output  | 0.0007224  | 0.00081778 | 0.0011471  |   0.0 |  0.00
Modify  | 7.7005     | 8.1346     | 9.6719     |  23.6 |  8.38
Other   |            | 0.03995    |            |       |  0.04

Nlocal:          43.75 ave          47 max          36 min
Histogram: 1 0 0 0 0 0 2 1 2 2
Nghost:        3385.75 ave        3428 max        3339 min
Histogram: 1 0 1 1 1 1 1 0 1 1
Neighs:        28698.9 ave       30921 max       23859 min
Histogram: 1 0 0 0 0 1 1 2 1 2

Total # of neighbors = 229591
Ave neighs/atom = 655.97429
Ave special neighs/atom = 0
Neighbor list builds = 200
Dangerous builds not checked

# Obtain new stress tensor Negative deformation, convert index from LAMMPS to Voigt
variable pxx1 equal f_avgp[1]
variable pyy1 equal f_avgp[2]
variable pzz1 equal f_avgp[3]
variable pxy1 equal f_avgp[4]
variable pxz1 equal f_avgp[5]
variable pyz1 equal f_avgp[6]

# Compute elastic constant from pressure
# d1 = -[pxx1-pxx0]/[(]v_delta/v_len0] defined in input script
variable C1neg equal ${d1}
variable C1neg equal -43.4419238124192
variable C2neg equal ${d2}
variable C2neg equal 31.1478387428337
variable C3neg equal ${d3}
variable C3neg equal -29.7892952926212
variable C4neg equal ${d4}
variable C4neg equal -3.56810457933514
variable C5neg equal ${d5}
variable C5neg equal 11.8779142035717
variable C6neg equal ${d6}
variable C6neg equal -8.38978408382461

# Reset box and simulation parameters
clear
OMP_NUM_THREADS environment is not set. Defaulting to 1 thread. (src/comm.cpp:98)
  using 1 OpenMP thread(s) per MPI task
# box tilt large
read_restart equil.res
Reading restart file ...
  restart file = 2 Aug 2023, LAMMPS = 2 Aug 2023
  restoring atom style full from restart
  triclinic box = (0.069742272 0.40119664 -0.14695996) to (15.608458 13.818203 17.78526) with tilt (-7.7490667 -1.5378211 0.14232347)
WARNING: Triclinic box skew is large. LAMMPS will run inefficiently. (src/domain.cpp:220)
  2 by 2 by 2 MPI processor grid
  pair style reaxff stores no restart info
  350 atoms
Finding 1-2 1-3 1-4 neighbors ...
  special bond factors lj:    0        0        0       
  special bond factors coul:  0        0        0       
     0 = max # of 1-2 neighbors
     0 = max # of 1-3 neighbors
     0 = max # of 1-4 neighbors
     1 = max # of special neighbors
  special bonds CPU = 0.000 seconds
  read_restart CPU = 0.002 seconds
print "*****Positive-change ${dir} starts.*****"
*****Positive-change 6 starts.*****
include ff.mod.lmp
# Setup forcefield, system
# undefine any fix ave/* fix before using reset_timestep
if "$(is_defined(fix,avgp))" then "unfix avgp"
reset_timestep 0

# Assign the force field
pair_style reaxff NULL safezone 3.0 mincap 150
# pair_coeff * * CHONSSi.ff O Si
# pair_coeff * * CHOSiNa.ff O Si
# pair_coeff * * SiOCHN_2018.ff O Si
# pair_coeff * * PDMSDecomp.ff Si O
pair_coeff * * CHONSi.ff C H O Si
# pair_coeff * * CHOFe.ff O Si

# charge method for reaxff
fix myqeq all qeq/reaxff 1 0.0 10.0 1.0e-6 reaxff maxiter 400
# Setup neighbor style
neighbor        2 bin
neigh_modify    every 10 delay 0 check no

# Setup output
fix avgp all ave/time  ${nevery} ${nrepeat} ${nfreq} c_thermo_press mode vector
fix avgp all ave/time  10 ${nrepeat} ${nfreq} c_thermo_press mode vector
fix avgp all ave/time  10 10 ${nfreq} c_thermo_press mode vector
fix avgp all ave/time  10 10 100 c_thermo_press mode vector
thermo		${nthermo}
thermo		100
thermo_style custom step temp pe press f_avgp[1] vol
thermo_modify norm no

# NVT
fix 4 all nvt temp ${temp} ${temp} ${tdamp}
fix 4 all nvt temp 300 ${temp} ${tdamp}
fix 4 all nvt temp 300 300 ${tdamp}
fix 4 all nvt temp 300 300 50
Resetting global fix info from restart file:
  fix style: nvt, fix ID: 4

# Positive deformation
variable delta equal ${up}*${len0}
variable delta equal 0.01*${len0}
variable delta equal 0.01*13.4170067184353
variable deltaxy equal ${up}*xy
variable deltaxy equal 0.01*xy
variable deltaxz equal ${up}*xz
variable deltaxz equal 0.01*xz
variable deltayz equal ${up}*yz
variable deltayz equal 0.01*yz
if "${dir} == 1" then    "change_box all x delta 0 ${delta} xy delta ${deltaxy} xz delta ${deltaxz} remap units box"
if "${dir} == 2" then    "change_box all y delta 0 ${delta} yz delta ${deltayz} remap units box"
if "${dir} == 3" then    "change_box all z delta 0 ${delta} remap units box"
if "${dir} == 4" then    "change_box all yz delta ${delta} remap units box"
if "${dir} == 5" then    "change_box all xz delta ${delta} remap units box"
if "${dir} == 6" then    "change_box all xy delta ${delta} remap units box"
change_box all xy delta ${delta} remap units box
change_box all xy delta 0.134170067184353 remap units box
Changing box ...
WARNING: Triclinic box skew is large. LAMMPS will run inefficiently. (src/domain.cpp:220)
  triclinic box = (0.069742272 0.40119664 -0.14695996) to (15.608458 13.818203 17.78526) with tilt (-7.6148966 -1.5378211 0.14232347)

# Run positive deformation MD
# save trajectory
dump dump_pos${dir} all custom ${nthermo} dump/pos_deform${dir}.lammpstrj id type x y z
dump dump_pos6 all custom ${nthermo} dump/pos_deform${dir}.lammpstrj id type x y z
dump dump_pos6 all custom 100 dump/pos_deform${dir}.lammpstrj id type x y z
dump dump_pos6 all custom 100 dump/pos_deform6.lammpstrj id type x y z
run ${nrun}
run 2000
All restart file global fix info was re-assigned
Neighbor list info ...
  update: every = 10 steps, delay = 0 steps, check = no
  max neighbors/atom: 2000, page size: 100000
  master list distance cutoff = 12
  ghost atom cutoff = 12
  binsize = 6, bins = 5 3 3
  2 neighbor lists, perpetual/occasional/extra = 2 0 0
  (1) pair reaxff, perpetual
      attributes: half, newton off, ghost
      pair build: half/bin/newtoff/ghost
      stencil: full/ghost/bin/3d
      bin: standard
  (2) fix qeq/reaxff, perpetual, copy from (1)
      attributes: half, newton off
      pair build: copy
      stencil: none
      bin: none
Per MPI rank memory allocation (min/avg/max) = 128.9 | 130.1 | 131.2 Mbytes
   Step          Temp          PotEng         Press        f_avgp[1]        Volume    
         0   289.20158     -41245.934     -5314.4298      0              3738.5639    
       100   265.22252     -41254.885      2882.0173      2567.2308      3738.5639    
       200   284.67812     -41272.881     -278.53338     -3605.7291      3738.5639    
       300   283.13804     -41260.437     -9636.4337     -1570.6882      3738.5639    
       400   305.99461     -41271.023      2548.62        1341.7237      3738.5639    
       500   288.6197      -41234.76      -374.92636     -2932.9052      3738.5639    
       600   296.89723     -41225.047      4419.7951     -1698.6999      3738.5639    
       700   307.59349     -41240.537     -4984.8549     -1032.0136      3738.5639    
       800   296.85766     -41267.659     -4501.4503     -368.50374      3738.5639    
       900   295.42257     -41276.966     -6300.2795     -774.63084      3738.5639    
      1000   294.84524     -41268.774      12411.688      3462.6942      3738.5639    
      1100   316.87086     -41261.683     -4967.8392     -3469.019       3738.5639    
      1200   305.09259     -41244.527     -9305.5725     -2206.8288      3738.5639    
      1300   301.37588     -41251.126      357.73258     -4102.7263      3738.5639    
      1400   304.26848     -41263.806     -1913.0519     -1759.5825      3738.5639    
      1500   301.32763     -41260.269     -2162.0058     -2962.8109      3738.5639    
      1600   289.83559     -41249.386     -6424.9216     -1942.196       3738.5639    
      1700   306.88696     -41246.63      -4862.3246     -4586.9404      3738.5639    
      1800   321.5181      -41231.593      3753.2533     -1159.739       3738.5639    
      1900   311.65488     -41232.195      1401.1903      3370.2001      3738.5639    
      2000   297.68959     -41247.828     -12365.043     -5658.5252      3738.5639    
Loop time of 92.647 on 8 procs for 2000 steps with 350 atoms

Performance: 0.933 ns/day, 25.735 hours/ns, 21.587 timesteps/s, 7.556 katom-step/s
99.0% CPU use with 8 MPI tasks x 1 OpenMP threads

MPI task timing breakdown:
Section |  min time  |  avg time  |  max time  |%varavg| %total
---------------------------------------------------------------
Pair    | 54.8       | 65.078     | 78.431     | 121.2 | 70.24
Bond    | 0.00058005 | 0.0007467  | 0.00088204 |   0.0 |  0.00
Neigh   | 4.3676     | 5.2239     | 6.2801     |  35.0 |  5.64
Comm    | 0.77827    | 14.121     | 24.392     | 260.0 | 15.24
Output  | 0.0036444  | 0.0045034  | 0.0051195  |   0.7 |  0.00
Modify  | 7.124      | 8.1834     | 9.0487     |  28.2 |  8.83
Other   |            | 0.03553    |            |       |  0.04

Nlocal:          43.75 ave          48 max          38 min
Histogram: 1 0 0 1 0 2 0 2 0 2
Nghost:        3348.12 ave        3386 max        3304 min
Histogram: 1 1 1 1 0 0 0 0 3 1
Neighs:        28691.2 ave       31342 max       25067 min
Histogram: 1 0 0 1 1 1 2 0 0 2

Total # of neighbors = 229530
Ave neighs/atom = 655.8
Ave special neighs/atom = 0
Neighbor list builds = 200
Dangerous builds not checked
undump dump_pos${dir}
undump dump_pos6

# Run equilibration
print "*****Equilibration pos${dir} starts.*****"
*****Equilibration pos6 starts.*****
include ff.mod.lmp
# Setup forcefield, system
# undefine any fix ave/* fix before using reset_timestep
if "$(is_defined(fix,avgp))" then "unfix avgp"
unfix avgp
reset_timestep 0

# Assign the force field
pair_style reaxff NULL safezone 3.0 mincap 150
# pair_coeff * * CHONSSi.ff O Si
# pair_coeff * * CHOSiNa.ff O Si
# pair_coeff * * SiOCHN_2018.ff O Si
# pair_coeff * * PDMSDecomp.ff Si O
pair_coeff * * CHONSi.ff C H O Si
# pair_coeff * * CHOFe.ff O Si

# charge method for reaxff
fix myqeq all qeq/reaxff 1 0.0 10.0 1.0e-6 reaxff maxiter 400
# Setup neighbor style
neighbor        2 bin
neigh_modify    every 10 delay 0 check no

# Setup output
fix avgp all ave/time  ${nevery} ${nrepeat} ${nfreq} c_thermo_press mode vector
fix avgp all ave/time  10 ${nrepeat} ${nfreq} c_thermo_press mode vector
fix avgp all ave/time  10 10 ${nfreq} c_thermo_press mode vector
fix avgp all ave/time  10 10 100 c_thermo_press mode vector
thermo		${nthermo}
thermo		100
thermo_style custom step temp pe press f_avgp[1] vol
WARNING: New thermo_style command, previous thermo_modify settings will be lost (src/output.cpp:903)
thermo_modify norm no

# NVT
fix 4 all nvt temp ${temp} ${temp} ${tdamp}
fix 4 all nvt temp 300 ${temp} ${tdamp}
fix 4 all nvt temp 300 300 ${tdamp}
fix 4 all nvt temp 300 300 50
run ${nequil}
run 2000
Neighbor list info ...
  update: every = 10 steps, delay = 0 steps, check = no
  max neighbors/atom: 2000, page size: 100000
  master list distance cutoff = 12
  ghost atom cutoff = 12
  binsize = 6, bins = 5 3 3
  2 neighbor lists, perpetual/occasional/extra = 2 0 0
  (1) pair reaxff, perpetual
      attributes: half, newton off, ghost
      pair build: half/bin/newtoff/ghost
      stencil: full/ghost/bin/3d
      bin: standard
  (2) fix qeq/reaxff, perpetual, copy from (1)
      attributes: half, newton off
      pair build: copy
      stencil: none
      bin: none
Per MPI rank memory allocation (min/avg/max) = 128.9 | 130.1 | 131.2 Mbytes
   Step          Temp          PotEng         Press        f_avgp[1]        Volume    
         0   297.68959     -41247.828     -12365.036      0              3738.5639    
       100   307.26259     -41265.909      257.14581      3846.2514      3738.5639    
       200   291.56305     -41281.62      -7770.9039     -3921.6977      3738.5639    
       300   274.52425     -41269.683     -6160.4492     -377.6026       3738.5639    
       400   289.27086     -41268.946      5657.2751      702.4342       3738.5639    
       500   291.89356     -41251.527      2784.2375     -3385.9867      3738.5639    
       600   306.169       -41254.674     -24824.836     -404.71828      3738.5639    
       700   301.94297     -41252.439     -5105.3733     -930.01174      3738.5639    
       800   276.48457     -41256.653     -5123.1181     -150.44138      3738.5639    
       900   276.69455     -41267.353     -16453.148     -510.09192      3738.5639    
      1000   290.28133     -41269.223     -6715.9067     -3537.1118      3738.5639    
      1100   303.67109     -41270.435      10861.305      331.0025       3738.5639    
      1200   275.3192      -41234.352     -14835.484     -6766.2184      3738.5639    
      1300   309.96246     -41263.419     -1333.0494     -3168.3517      3738.5639    
      1400   318.50024     -41268.912      660.46992     -3723.2208      3738.5639    
      1500   299.03166     -41251.061     -7984.2112      775.42207      3738.5639    
      1600   287.33995     -41256.665     -5546.7181     -4447.4278      3738.5639    
      1700   286.54106     -41264.19      -9275.9166     -3543.5983      3738.5639    
      1800   307.41222     -41272.468      10555.626     -659.46721      3738.5639    
      1900   298.62764     -41232.402     -4462.178       1217.4414      3738.5639    
      2000   325.33932     -41257.58      -13442.649     -2269.5003      3738.5639    
Loop time of 75.1135 on 8 procs for 2000 steps with 350 atoms

Performance: 1.150 ns/day, 20.865 hours/ns, 26.626 timesteps/s, 9.319 katom-step/s
98.9% CPU use with 8 MPI tasks x 1 OpenMP threads

MPI task timing breakdown:
Section |  min time  |  avg time  |  max time  |%varavg| %total
---------------------------------------------------------------
Pair    | 52.714     | 56.486     | 62.73      |  59.0 | 75.20
Bond    | 0.00049552 | 0.00069703 | 0.00082557 |   0.0 |  0.00
Neigh   | 4.3672     | 4.6717     | 5.1929     |  17.4 |  6.22
Comm    | 0.92019    | 7.1595     | 10.929     | 165.5 |  9.53
Output  | 0.00072753 | 0.00081725 | 0.0011208  |   0.0 |  0.00
Modify  | 6.2359     | 6.7581     | 7.0656     |  14.6 |  9.00
Other   |            | 0.03639    |            |       |  0.05

Nlocal:          43.75 ave          52 max          38 min
Histogram: 2 0 1 1 1 1 1 0 0 1
Nghost:        3348.38 ave        3419 max        3273 min
Histogram: 1 0 1 0 2 1 1 1 0 1
Neighs:        28689.4 ave       33817 max       25134 min
Histogram: 2 0 1 1 2 0 1 0 0 1

Total # of neighbors = 229515
Ave neighs/atom = 655.75714
Ave special neighs/atom = 0
Neighbor list builds = 200
Dangerous builds not checked

# Obtain new stress tensor, convert index from LAMMPS to Voigt
variable pxx1 equal f_avgp[1]
variable pyy1 equal f_avgp[2]
variable pzz1 equal f_avgp[3]
variable pxy1 equal f_avgp[4]
variable pxz1 equal f_avgp[5]
variable pyz1 equal f_avgp[6]

# Compute elastic constant from pressure tensor
# d1 = -[pxx1-pxx0]/[(]v_delta/v_len0] defined in input script
variable C1pos equal ${d1}
variable C1pos equal 35.6927417940351
variable C2pos equal ${d2}
variable C2pos equal 9.05248578619456
variable C3pos equal ${d3}
variable C3pos equal 74.5995550585522
variable C4pos equal ${d4}
variable C4pos equal -4.93900214673637
variable C5pos equal ${d5}
variable C5pos equal -3.25617091435581
variable C6pos equal ${d6}
variable C6pos equal 18.4117282327982

# Combine positive and negative
variable C1${dir} equal 0.5*(${C1neg}+${C1pos})
variable C16 equal 0.5*(${C1neg}+${C1pos})
variable C16 equal 0.5*(-43.4419238124192+${C1pos})
variable C16 equal 0.5*(-43.4419238124192+35.6927417940351)
variable C2${dir} equal 0.5*(${C2neg}+${C2pos})
variable C26 equal 0.5*(${C2neg}+${C2pos})
variable C26 equal 0.5*(31.1478387428337+${C2pos})
variable C26 equal 0.5*(31.1478387428337+9.05248578619456)
variable C3${dir} equal 0.5*(${C3neg}+${C3pos})
variable C36 equal 0.5*(${C3neg}+${C3pos})
variable C36 equal 0.5*(-29.7892952926212+${C3pos})
variable C36 equal 0.5*(-29.7892952926212+74.5995550585522)
variable C4${dir} equal 0.5*(${C4neg}+${C4pos})
variable C46 equal 0.5*(${C4neg}+${C4pos})
variable C46 equal 0.5*(-3.56810457933514+${C4pos})
variable C46 equal 0.5*(-3.56810457933514+-4.93900214673637)
variable C5${dir} equal 0.5*(${C5neg}+${C5pos})
variable C56 equal 0.5*(${C5neg}+${C5pos})
variable C56 equal 0.5*(11.8779142035717+${C5pos})
variable C56 equal 0.5*(11.8779142035717+-3.25617091435581)
variable C6${dir} equal 0.5*(${C6neg}+${C6pos})
variable C66 equal 0.5*(${C6neg}+${C6pos})
variable C66 equal 0.5*(-8.38978408382461+${C6pos})
variable C66 equal 0.5*(-8.38978408382461+18.4117282327982)

# Delete dir to make sure it is not reused
variable dir delete

# Calc and output
include calc.mod.lmp
variable C11all equal ${C11}
variable C11all equal -4.12350424475985
variable C22all equal ${C22}
variable C22all equal 19.5592034589729
variable C33all equal ${C33}
variable C33all equal 7.57832914759195

variable C44all equal ${C44}
variable C44all equal 1.53597218845839
variable C55all equal ${C55}
variable C55all equal 7.70642464927368
variable C66all equal ${C66}
variable C66all equal 5.0109720744868

variable C12all equal 0.5*(${C12}+${C21})
variable C12all equal 0.5*(-17.6957378643364+${C21})
variable C12all equal 0.5*(-17.6957378643364+2.1215713586072)
variable C13all equal 0.5*(${C13}+${C31})
variable C13all equal 0.5*(-35.9878058357003+${C31})
variable C13all equal 0.5*(-35.9878058357003+18.8844474274955)
variable C23all equal 0.5*(${C23}+${C32})
variable C23all equal 0.5*(-30.8496812031632+${C32})
variable C23all equal 0.5*(-30.8496812031632+-6.56846125925357)

variable C14all equal 0.5*(${C14}+${C41})
variable C14all equal 0.5*(-36.5602560546346+${C41})
variable C14all equal 0.5*(-36.5602560546346+6.12007857471188)
variable C15all equal 0.5*(${C15}+${C51})
variable C15all equal 0.5*(4.10197985778235+${C51})
variable C15all equal 0.5*(4.10197985778235+-3.13241477477195)
variable C16all equal 0.5*(${C16}+${C61})
variable C16all equal 0.5*(-3.87459100919205+${C61})
variable C16all equal 0.5*(-3.87459100919205+-7.46429579633035)

variable C24all equal 0.5*(${C24}+${C42})
variable C24all equal 0.5*(4.7261123751546+${C42})
variable C24all equal 0.5*(4.7261123751546+4.26995973235392)
variable C25all equal 0.5*(${C25}+${C52})
variable C25all equal 0.5*(24.0510133053544+${C52})
variable C25all equal 0.5*(24.0510133053544+5.52608677765543)
variable C26all equal 0.5*(${C26}+${C62})
variable C26all equal 0.5*(20.1001622645141+${C62})
variable C26all equal 0.5*(20.1001622645141+9.57705690053199)

variable C34all equal 0.5*(${C34}+${C43})
variable C34all equal 0.5*(22.5344723505065+${C43})
variable C34all equal 0.5*(22.5344723505065+0.319127273254855)
variable C35all equal 0.5*(${C35}+${C53})
variable C35all equal 0.5*(25.0326603593686+${C53})
variable C35all equal 0.5*(25.0326603593686+6.27361831062307)
variable C36all equal 0.5*(${C36}+${C63})
variable C36all equal 0.5*(22.4051298829655+${C63})
variable C36all equal 0.5*(22.4051298829655+-2.61229610785641)

variable C45all equal 0.5*(${C45}+${C54})
variable C45all equal 0.5*(5.27968916537504+${C54})
variable C45all equal 0.5*(5.27968916537504+6.18980715269537)
variable C46all equal 0.5*(${C46}+${C64})
variable C46all equal 0.5*(-4.25355336303575+${C64})
variable C46all equal 0.5*(-4.25355336303575+-2.06728360616258)
variable C56all equal 0.5*(${C56}+${C65})
variable C56all equal 0.5*(4.31087164460795+${C65})
variable C56all equal 0.5*(4.31087164460795+-14.3693535339089)

# print stiffness tensor to "C.log"
print """
# stiffness tensor (GPa) for ${structure} by change-box method
${C11all} ${C12all} ${C13all} ${C14all} ${C15all} ${C16all}
${C12all} ${C22all} ${C23all} ${C24all} ${C25all} ${C26all}
${C13all} ${C23all} ${C33all} ${C34all} ${C35all} ${C36all}
${C14all} ${C24all} ${C34all} ${C44all} ${C45all} ${C46all}
${C15all} ${C25all} ${C35all} ${C45all} ${C55all} ${C56all}
${C16all} ${C26all} ${C36all} ${C46all} ${C56all} ${C66all}
"""  file C.log screen no

Total wall time: 0:39:55
