ITEM: TIMESTEP
0
ITEM: NUMBER OF ATOMS
371
ITEM: BOX BOUNDS xy xz yz pp pp pp
-8.8510000000000009e+00 1.7777500000000000e+01 -8.8510000000000009e+00
0.0000000000000000e+00 1.3020299999999999e+01 4.5889999999999997e-01
0.0000000000000000e+00 1.8640300000000000e+01 2.0540000000000000e-01
ITEM: ATOMS id type x y z
1 4 2.16028 0.974246 2.86266
2 2 3.78114 1.26403 3.14187
3 2 1.43419 2.40919 3.2814
4 3 2.09934 0.739384 1.26194
68 2 0.721133 0.692995 7.33902
7 4 0.57787 2.26284 6.49041
11 4 -0.235755 4.50912 2.58989
14 4 -0.867463 4.4822 8.02494
360 2 -2.95021 4.75463 1.61866
31 4 1.77081 6.1078 4.25093
32 4 4.50321 5.41719 0.61322
33 4 5.49325 4.41093 8.46199
35 4 4.38964 5.80101 5.71341
30 4 6.26043 2.98877 1.81806
70 2 0.35361 3.60717 1.28986
335 2 7.23322 0.490605 1.34655
102 2 2.43252 3.31108 5.08973
103 2 2.6789 1.5611 5.94108
104 2 2.88147 3.27147 6.95824
130 2 5.54307 0.894693 3.12578
131 2 4.84918 2.46864 3.98753
132 2 6.71201 2.14342 3.87099
324 2 2.44408 1.37276 8.53536
192 1 2.37992 2.68579 6.05427
202 1 5.67824 1.96208 3.36635
223 3 -0.404322 2.19124 5.28266
225 3 -1.33255 3.70923 3.36192
226 3 -0.945213 5.80326 1.75076
227 3 0.132547 3.35468 7.57988
229 3 -1.33995 5.45972 6.69084
243 3 6.51005 1.89435 0.661003
244 3 1.13452 4.84271 3.449
245 3 5.10557 4.26173 1.59988
325 1 2.34217 0.251874 8.35518
249 3 2.92372 5.78347 5.22398
250 3 4.83326 5.15527 7.15609
247 3 -0.241006 5.35176 9.22352
139 2 3.08825 5.40226 8.69434
10 4 2.17356 1.30775 11.6326
17 4 0.405296 4.31477 15.3517
18 4 -0.488708 6.11206 12.7497
24 4 7.30956 1.49623 17.4926
26 4 4.75812 2.40808 10.5511
38 4 4.33707 6.38309 12.962
28 4 4.51785 2.08646 16.1608
251 3 4.58765 3.4613 15.3236
246 3 4.53275 3.48454 9.34018
326 2 -0.428238 2.49902 18.0906
37 4 2.41286 5.76833 17.4656
69 2 1.69269 0.465897 10.2061
36 4 5.65153 4.42193 14.7816
73 2 -1.99344 5.67261 12.0906
78 2 3.33103 2.50298 17.2985
110 2 0.226101 1.68527 10.5008
111 2 0.37577 3.19492 11.6308
112 2 -0.219069 1.55548 12.3534
113 2 2.24591 3.0183 14.8098
114 2 0.836681 2.53221 13.5249
115 2 0.758095 1.97341 15.3549
253 3 1.48343 4.81125 16.4826
34 4 0.993248 6.13945 9.69448
141 2 3.00163 4.89603 10.5246
142 2 2.62909 5.08223 13.8869
143 2 3.11426 4.09572 12.2786
144 2 1.94566 5.67266 12.1758
195 1 0.451275 2.10573 11.616
196 1 1.12913 2.78645 14.6619
205 1 2.43664 4.92568 9.52101
206 1 2.91212 5.14961 12.7836
224 3 2.43996 0.238097 12.8989
230 3 -1.12673 3.88321 16.1572
231 3 -0.0772166 5.21702 13.976
237 3 4.85752 0.875686 9.9071
238 3 3.28984 2.4245 11.4853
239 3 3.75459 0.855352 15.2973
240 3 5.90127 1.59494 16.7229
241 3 5.99184 2.63445 11.4565
242 3 7.96286 1.47245 12.6895
254 3 3.56868 5.11896 18.3429
248 3 0.593787 6.39116 11.569
118 2 -3.83447 6.14211 11.4375
140 2 2.04511 3.92618 9.32749
334 1 -6.24487 10.5781 5.53055
12 4 -4.19989 7.18253 4.14664
13 4 -0.358787 6.89406 0.537777
16 4 -2.21357 6.81612 6.75602
333 2 -5.38529 11.21 5.33509
21 4 -3.2912 10.3914 7.03503
331 2 -6.15443 9.35836 5.2534
40 4 0.826787 9.49828 4.14684
42 4 1.9619 8.65584 7.98344
74 2 -4.48033 9.76223 5.99756
79 2 0.546771 6.93905 5.11265
80 2 -1.24204 8.21361 6.95837
344 2 0.350264 10.9322 8.95473
84 2 0.086497 9.00225 5.78979
86 2 0.659682 9.61807 7.72566
87 2 2.09603 8.25241 6.36893
105 2 -4.75622 9.28345 3.17199
106 2 -3.26305 8.31162 2.33284
107 2 -2.87498 9.40149 3.81203
108 2 -0.122552 8.61887 1.25376
77 2 -0.845363 12.8743 6.66114
128 2 -1.75654 11.9688 2.77098
129 2 -1.24577 11.3595 1.11795
145 2 0.0319465 8.15984 2.9755
146 2 -1.57503 8.97246 4.19453
147 2 -1.00589 7.20935 4.4735
346 1 -0.260294 11.9018 8.99644
149 2 -2.57963 11.0345 4.954
150 2 -0.948049 11.2316 6.05831
193 1 -3.67221 8.75952 3.33818
20 4 -2.8206 8.15838 9.16445
201 1 -1.25081 12.2076 1.82199
207 1 -0.664402 8.26357 4.29831
208 1 -2.07125 11.4486 6.00443
228 3 -3.19147 6.98371 5.42738
233 3 -3.10315 6.58471 8.43927
234 3 -2.47878 9.22046 7.83848
235 3 -4.01037 11.5286 8.1682
370 3 -7.25505 12.5484 3.73247
257 3 2.22305 7.11891 3.17408
259 3 0.558584 10.9381 3.62331
345 2 -1.30786 11.785 8.4221
309 4 -6.29002 12.4797 0.208367
322 2 -7.47321 12.6479 8.79588
311 2 -6.0059 10.3333 0.953843
312 2 -5.19241 11.5863 2.26943
313 1 -5.13913 11.1544 1.18118
262 3 1.51879 7.36636 8.77042
323 2 -6.28888 12.7127 7.3019
332 2 -6.71291 10.7409 6.51293
148 2 -2.45676 12.4906 6.27586
310 2 -4.13209 10.8093 0.838028
6 4 -4.7212 12.3904 9.25024
109 2 -2.06919 9.14157 0.302866
83 2 2.44513 9.16326 4.44954
8 4 -5.77665 12.4391 14.4293
22 4 -3.73363 10.0631 13.4631
363 2 -4.75683 8.16116 17.5513
43 4 -1.50254 10.0557 11.1342
45 4 1.39422 10.8663 11.9179
120 2 -2.45183 7.15378 14.0097
75 2 -3.07562 8.9637 14.6953
88 2 -1.82797 11.3468 10.0655
99 2 -6.3739 11.5567 10.6088
100 2 -4.6685 11.6032 11.4889
101 2 -4.98811 10.0471 10.4197
119 2 -0.995168 8.27268 13.3181
337 2 -1.85311 12.0134 18.271
121 2 -2.52133 7.69814 12.2429
126 2 -4.14777 7.44556 13.414
265 3 3.52529 7.72403 13.4085
151 2 2.86414 8.13387 16.8831
152 2 3.09097 6.83405 15.4347
154 2 1.22523 7.43586 14.5852
155 2 0.391333 9.18329 14.124
156 2 0.940249 8.76218 15.8814
191 1 -5.18702 11.2245 10.5743
198 1 -1.81652 7.38584 13.023
200 1 -4.63054 8.3964 13.694
209 1 3.38061 7.14136 16.5117
210 1 1.13695 8.55456 14.7966
232 3 -4.48994 8.35949 10.0356
236 3 -4.63573 11.3174 13.9844
317 2 -4.09455 12.698 18.6019
263 3 -1.68299 8.70786 10.2958
264 3 -2.60457 10.139 12.3498
266 3 -0.062345 10.3579 11.8302
71 2 -1.493 7.33208 18.0515
315 3 -6.61663 11.9418 17.7087
316 3 -7.11533 11.7931 15.1027
319 2 -1.39328 11.725 13.2613
194 1 -0.777856 8.75338 18.5575
330 2 -0.251836 9.08738 17.5744
336 2 -1.77563 12.1808 16.3526
320 2 0.833796 9.92919 18.589
338 2 -0.219748 12.2561 17.4245
339 1 -1.30508 12.4632 17.3927
127 2 -5.37022 8.73121 12.7935
347 2 -0.175185 12.5301 9.99266
255 3 1.37029 6.66204 18.3665
361 2 -3.80148 6.67322 17.1124
27 4 -0.22081 12.9315 13.3647
125 2 -5.12976 8.30156 14.8121
212 1 8.48563 3.51585 8.51869
47 4 10.529 2.2177 3.83257
50 4 10.1817 2.74107 8.81463
51 4 13.1517 1.94659 5.59069
55 4 12.0879 4.80289 2.12865
81 2 6.64967 3.3289 7.79246
57 4 12.1852 4.4109 7.07492
136 2 5.55793 5.14267 3.88065
89 2 16.4792 1.03097 3.10305
352 2 15.707 1.9473 8.59316
93 2 13.4511 5.28024 7.80761
137 2 6.94665 6.16712 4.75304
133 2 7.61062 4.96628 2.1859
134 2 8.61391 3.7697 1.14056
135 2 8.51392 3.51374 2.98081
351 1 15.0722 0.538631 1.82454
170 2 9.10568 5.80799 4.08278
157 2 8.30595 2.3789 4.82507
158 2 9.13932 4.08239 5.01235
159 2 9.71012 2.49269 5.98482
161 2 8.39168 3.59094 7.40711
166 2 13.1819 3.55199 0.480647
167 2 13.8013 2.92815 2.17386
49 4 14.1302 0.256135 8.0641
172 2 8.43899 5.24241 5.74343
203 1 7.98918 3.90194 2.0535
357 2 10.9969 1.80919 1.24046
211 1 9.24071 2.87517 4.98811
354 1 14.7136 1.77587 9.17895
214 1 13.5831 3.84709 1.54528
329 2 14.6681 1.96303 0.227608
269 3 9.74199 0.895467 3.05511
271 3 9.94747 1.32033 8.21374
272 3 14.4092 1.81409 4.67697
273 3 11.7482 1.78237 4.70367
274 3 13.0701 0.828019 7.05249
280 3 11.1257 3.60891 2.81852
281 3 12.5416 6.01025 3.11332
282 3 11.214 5.68754 0.666696
283 3 11.2847 3.56053 8.09684
284 3 13.1316 3.45047 6.21329
288 3 11.2054 5.4901 6.42762
348 2 15.0301 1.7195 1.52862
359 1 10.6907 2.25812 0.234182
353 2 13.9414 2.63208 9.09725
204 1 5.77508 6.15775 4.46673
371 3 12.6823 0.309788 0.121328
72 2 15.0618 3.65807 8.63055
350 2 14.799 0.380443 2.96734
216 1 8.93535 6.09827 5.10832
162 2 8.61945 4.49735 9.11609
349 2 16.1192 0.130764 1.62505
5 4 15.8778 2.27296 4.15709
160 2 7.75361 2.72946 9.04581
356 2 10.9384 3.37912 0.248381
9 4 15.204 2.64463 16.4982
48 4 12.2958 1.54667 17.7442
174 2 8.23418 5.66539 13.5566
53 4 9.82592 1.63818 15.6969
54 4 11.8963 1.9766 11.5215
60 4 11.8265 3.25675 14.2386
82 2 6.42585 4.96826 16.2569
252 3 6.73742 3.61672 13.8268
91 2 13.1619 1.73702 10.434
92 2 11.432 0.411909 11.7954
95 2 12.9747 2.92226 15.4898
96 2 12.0613 4.94334 14.1164
116 2 12.3298 5.08828 10.2974
117 2 11.8714 5.4959 12.1534
369 1 9.86676 5.46675 17.2116
217 1 9.02195 6.50238 13.6101
256 3 5.29646 5.84048 14.1456
163 2 7.65914 4.5193 10.783
164 2 9.39421 3.5725 11.235
165 2 8.69629 5.04756 12.2995
366 2 9.63518 4.41882 17.4628
197 1 12.4028 5.8374 11.1892
213 1 8.38411 4.14224 11.5776
368 2 8.88954 6.1903 17.4389
270 3 13.4313 2.84587 17
275 3 15.2126 1.4174 15.253
276 3 9.02337 0.371811 14.8761
277 3 11.1808 1.04392 16.6832
278 3 8.57078 2.21128 16.8532
279 3 10.7846 2.71731 10.7176
355 2 14.8878 1.28308 10.1991
289 3 10.3707 2.95106 14.762
290 3 12.4327 2.65615 12.897
328 2 16.1459 0.852271 18.0754
342 2 6.91386 5.00203 17.9208
343 1 6.3055 5.97465 17.963
173 2 10.131 6.11256 13.7724
341 2 5.73129 6.38289 17.0213
29 4 7.20951 2.95912 12.4772
327 1 15.9221 1.92403 18.0405
367 2 10.2886 5.68049 16.1074
56 4 11.0181 6.56239 18.0678
358 2 10.0519 2.22796 18.5377
285 3 6.33469 5.48978 9.33824
19 4 9.50107 11.3125 4.53375
296 3 5.86991 11.1748 0.413535
171 2 8.39469 7.17921 5.27267
46 4 4.95637 12.1434 1.18466
186 2 8.84971 10.1886 9.05402
59 4 10.5328 6.8039 5.9425
62 4 4.35066 10.7361 4.10427
64 4 6.98143 8.89284 8.27995
66 4 6.6434 11.0568 6.21235
94 2 10.7403 6.7205 8.82661
85 2 5.15582 7.46828 5.75516
98 2 8.26818 7.82969 7.79014
122 2 9.40147 10.7133 2.01373
123 2 7.85938 10.118 2.99401
124 2 9.50205 9.30557 3.40213
41 4 1.97455 10.2793 0.524231
25 4 0.663794 12.7142 7.57865
297 3 6.04291 8.04546 9.20466
298 3 3.18306 9.49408 8.34001
179 2 2.59713 10.5952 5.81017
180 2 2.41726 12.0161 4.45693
181 2 3.53825 12.2949 5.99909
182 2 9.62672 8.85479 6.9027
183 2 11.298 8.50532 7.5651
184 2 9.80533 8.16901 8.67473
23 4 0.563359 12.2074 2.4465
199 1 8.9552 10.2608 2.99911
169 2 8.97526 7.96418 0.697086
219 1 3.10627 11.5011 5.26391
220 1 10.2049 8.13123 7.59508
76 2 1.90707 11.8834 6.76657
258 3 4.2974 7.0159 1.44386
261 3 1.55891 11.6233 1.26455
287 3 11.4142 7.71136 4.93401
293 3 3.93948 8.94411 3.6019
294 3 4.39182 11.6082 2.64736
138 2 5.43948 7.04081 3.83357
304 3 6.5534 12.3742 7.369
299 3 4.46922 11.9872 9.12798
301 3 8.23546 11.0948 5.55927
302 3 5.6148 11.0169 5.03438
303 3 6.30915 9.67216 7.04787
97 2 7.59098 9.05667 0.0303107
39 4 3.25344 8.04455 2.35441
260 3 2.45563 9.07282 1.39579
15 4 11.6063 7.2555 10.3236
58 4 6.19163 6.72976 10.319
61 4 8.74036 7.63359 12.0436
63 4 7.07803 10.5306 17.8812
221 1 7.76522 10.195 9.48122
67 4 4.456 10.5914 16.534
364 2 12.186 7.39465 15.8129
365 2 9.02318 8.397 17.5526
314 4 9.87003 11.2153 16.5718
175 2 8.72819 7.40844 14.3092
176 2 8.91711 10.1094 12.1803
177 2 8.13637 9.33699 13.7897
178 2 7.04395 9.67505 12.3441
340 2 6.85144 6.81528 18.5279
215 1 9.80192 8.42374 18.343
188 2 5.89231 10.1782 10.2646
189 2 4.5843 8.95921 10.8698
190 2 4.8384 10.6424 11.8035
52 4 6.03707 12.7301 15.1195
218 1 8.09064 9.39919 12.6575
222 1 4.86848 10.0392 10.8113
187 2 7.73138 9.87558 10.6838
44 4 2.80122 9.16644 14.1312
268 3 1.08666 12.5853 12.5895
362 1 12.541 7.22538 16.9771
291 3 10.3662 7.64975 11.3666
292 3 7.5802 7.00757 11.1903
295 3 8.11711 11.3075 16.9706
286 3 4.99269 6.63256 11.3751
300 3 2.27592 10.9097 10.6131
305 3 3.71569 9.7873 15.3089
306 3 5.86277 9.77489 16.9827
307 3 4.79567 12.1443 15.9404
308 3 3.39206 10.5327 17.8798
65 4 3.55148 10.7467 9.64725
321 2 7.34483 11.7566 15.5481
153 2 4.55272 7.15815 16.7107
318 2 10.1426 9.53649 16.6793
267 3 2.30937 10.2741 13.0704
90 2 5.97969 12.2881 13.5114
168 2 10.3614 9.37563 18.377
185 2 7.29703 11.1904 9.33279
ITEM: TIMESTEP
100
ITEM: NUMBER OF ATOMS
371
ITEM: BOX BOUNDS xy xz yz pp pp pp
-8.8510000000000009e+00 1.7768179849999999e+01 -8.8510000000000009e+00
0.0000000000000000e+00 1.3020299999999999e+01 4.4957984999999923e-01
0.0000000000000000e+00 1.8640300000000000e+01 2.0540000000000000e-01
ITEM: ATOMS id type x y z
1 4 2.19011 1.04004 2.87198
2 2 3.81163 1.2685 3.33886
3 2 1.53226 2.53992 3.08443
4 3 2.13273 0.721731 1.30755
68 2 0.694591 0.657978 7.4234
7 4 0.617426 2.25877 6.68343
11 4 -0.226186 4.54571 2.43232
14 4 -0.926057 4.39705 8.09214
360 2 -3.07376 4.70219 1.66759
31 4 1.73824 6.15335 4.00893
32 4 4.48841 5.5857 0.625339
33 4 5.59071 4.42101 8.39468
35 4 4.37565 5.90815 5.78353
30 4 6.32015 3.12061 1.80014
70 2 0.133398 3.50262 1.15442
335 2 7.26449 0.358532 1.38963
102 2 2.19177 3.42231 5.04313
103 2 2.92836 1.95867 6.01929
104 2 2.52891 3.62531 6.99304
130 2 5.47936 1.17778 3.26124
131 2 4.53349 2.80328 3.60871
132 2 6.36732 2.6671 4.09209
324 2 2.36685 1.34202 8.61071
192 1 2.33421 2.914 6.04245
202 1 5.52557 2.28823 3.39215
223 3 -0.369002 2.29519 5.43681
225 3 -1.26198 3.69851 3.31275
226 3 -0.789133 6.07773 1.84712
227 3 0.267885 3.4145 7.7156
229 3 -1.47748 5.37253 6.84026
243 3 6.65994 1.81608 0.675108
244 3 1.11216 4.94225 3.33169
245 3 5.22738 4.3511 1.39339
325 1 2.32256 0.206535 8.44406
249 3 2.91302 5.88332 5.15342
250 3 4.97978 5.1767 7.06525
247 3 -0.371847 5.33977 9.24401
139 2 2.81412 5.2546 8.56793
246 3 4.43725 3.58375 9.05737
5 4 -1.3366 2.35603 4.19603
254 3 3.102 5.00635 0.00102978
10 4 2.21528 1.34214 11.6796
17 4 0.402899 4.33819 15.4221
18 4 -0.267339 6.17877 12.7931
24 4 7.2581 1.47263 17.4615
26 4 4.64422 2.4875 10.4715
38 4 4.26456 6.34309 12.9267
28 4 4.34634 2.17334 16.0309
251 3 4.4041 3.47697 15.2226
140 2 1.68561 4.03718 9.44657
326 2 -0.359493 2.49092 18.161
37 4 2.42953 5.88673 17.4799
69 2 1.7224 0.360408 10.3
36 4 5.66323 4.39806 14.8392
73 2 -1.75335 5.58452 12.186
78 2 3.43321 2.58254 17.3598
110 2 0.253557 2.26639 10.4681
111 2 0.560295 3.27713 12.0723
112 2 -0.191894 1.5398 12.1775
113 2 2.12631 2.94406 14.8322
114 2 0.759831 2.60902 13.563
115 2 0.702332 1.81853 15.3434
253 3 1.59809 4.99172 16.2663
34 4 1.02001 6.27141 9.89259
141 2 2.99411 5.02605 10.4378
142 2 2.78343 4.84672 14.0765
143 2 3.14113 4.12983 12.4088
144 2 2.16099 5.61645 12.4687
195 1 0.536214 2.23346 11.5874
196 1 1.01027 2.75616 14.7334
205 1 2.3195 4.97003 9.56847
206 1 2.94521 5.06954 12.9926
224 3 2.48432 0.375797 12.9306
230 3 -1.01264 3.88548 16.0771
231 3 0.151336 5.52272 14.1209
237 3 4.7263 0.915388 9.87036
238 3 3.35445 2.55578 11.4064
239 3 3.67417 0.868173 15.2386
240 3 5.81913 1.7756 16.6379
241 3 5.93828 2.72494 11.4218
242 3 7.87447 1.46584 12.8699
27 4 8.59944 0.233318 13.4167
248 3 0.795303 6.4567 11.6481
334 1 -6.37192 10.525 5.52656
12 4 -4.44813 7.08338 4.22336
13 4 -0.433992 6.92514 0.517222
16 4 -2.28109 6.7118 6.78317
333 2 -5.50999 11.2485 5.48093
21 4 -3.35665 10.5035 7.121
194 1 -1.16335 8.71226 0.0902775
40 4 0.814132 9.57821 4.19903
42 4 1.99561 8.56194 7.94923
74 2 -4.58979 9.86538 6.06261
79 2 0.292363 6.94654 4.67978
80 2 -1.07602 7.92031 6.4588
344 2 0.358217 10.938 9.08979
84 2 0.350754 9.10457 5.92968
86 2 0.697984 9.59416 7.58438
87 2 2.54011 7.79626 6.54854
105 2 -4.64276 9.36171 3.23087
106 2 -3.89599 8.06315 2.01737
107 2 -2.8714 8.73996 3.55027
108 2 -0.098628 8.68945 1.3842
77 2 -0.360148 12.5991 6.21774
128 2 -1.66663 11.7448 2.81374
129 2 -1.18217 11.4328 0.92262
145 2 0.0203602 8.2061 3.13017
146 2 -1.62685 9.39885 4.5517
147 2 -1.27568 7.60953 4.72412
346 1 -0.357567 11.8929 9.09587
149 2 -2.3072 11.602 5.07674
150 2 -1.02803 10.9353 6.3211
193 1 -3.91229 8.47194 3.05957
20 4 -2.87888 8.26858 9.12687
201 1 -1.16883 12.1647 1.76497
207 1 -0.845735 8.586 4.66023
208 1 -2.0112 11.5159 6.14519
228 3 -3.30057 6.81367 5.59837
233 3 -3.01668 6.7408 8.5248
234 3 -2.58921 9.31789 7.82293
235 3 -3.92705 11.4841 8.26071
370 3 -7.37416 12.6375 3.75416
257 3 2.20947 7.14166 2.90862
259 3 0.41784 10.9822 3.68389
345 2 -1.38907 11.8795 8.49832
309 4 -6.26651 12.4484 0.318546
322 2 -7.40978 12.4587 8.85527
311 2 -5.78765 10.4729 1.34984
312 2 -4.5103 11.8167 2.01664
313 1 -4.88557 11.2869 1.14094
262 3 1.48665 7.58923 8.94655
323 2 -6.08031 12.6395 7.40105
332 2 -6.86478 10.5302 6.54538
148 2 -2.19416 12.5248 6.82884
310 2 -4.03441 10.8315 0.56141
109 2 -2.00637 9.44 0.334964
331 2 -6.09295 9.44756 5.14283
6 4 -4.74009 12.3271 9.2735
8 4 -5.78282 12.4503 14.3118
22 4 -3.75675 10.0274 13.398
363 2 -4.5211 8.12252 17.3723
43 4 -1.55713 9.92039 11.1271
45 4 1.40197 10.959 11.9866
120 2 -2.46208 6.94834 13.7867
75 2 -3.20984 9.21683 14.8215
88 2 -1.91936 11.1495 10.0185
99 2 -6.53198 11.1264 10.6211
100 2 -5.03609 11.6874 11.5311
101 2 -5.02647 10.1125 10.4197
119 2 -1.03417 8.17092 13.5156
337 2 -2.11842 12.2096 18.4985
121 2 -2.27245 7.64302 12.0703
126 2 -3.98993 7.35869 13.4324
265 3 3.47345 7.82546 13.3788
151 2 3.01618 8.22317 16.9289
152 2 3.40083 6.94807 15.5827
154 2 1.15936 7.3995 14.6855
155 2 0.449041 9.16529 14.5675
156 2 1.44137 8.51394 16.184
191 1 -5.45374 11.1526 10.635
198 1 -1.75873 7.31979 13.0299
200 1 -4.55067 8.33418 13.7235
209 1 3.50603 7.23558 16.7161
210 1 1.31236 8.4873 15.0557
232 3 -4.5301 8.42974 10.0911
236 3 -4.71462 11.3962 13.9568
317 2 -4.09332 12.6747 18.3893
263 3 -1.59373 8.56442 10.3276
264 3 -2.72328 10.0734 12.2474
266 3 -0.0689066 10.1263 11.7117
71 2 -1.58601 7.48746 18.2027
315 3 -6.66888 12.0204 17.8234
316 3 -6.97803 11.6512 15.1147
319 2 -1.36201 11.7413 13.6017
320 2 1.03411 9.69935 18.5709
330 2 -0.232433 9.27474 17.755
336 2 -1.8786 12.0675 16.5616
125 2 -5.04391 8.27261 14.8676
338 2 -0.318984 12.1254 17.7467
339 1 -1.4024 12.4163 17.5959
127 2 -5.3755 8.67276 12.7531
347 2 -0.197089 12.7856 9.77391
255 3 1.23587 6.76504 18.254
212 1 8.66454 3.68368 8.61075
47 4 10.5819 2.2477 3.81589
50 4 10.2687 2.76007 8.7926
51 4 13.2064 2.13985 5.4663
55 4 11.8849 4.78284 2.1586
81 2 6.85105 3.39097 7.8309
57 4 12.31 4.53257 7.16111
136 2 5.524 4.83438 4.17983
89 2 16.4823 1.08761 3.16087
352 2 15.5805 1.79966 8.54296
93 2 13.4185 5.43233 7.98226
137 2 6.83406 6.15787 4.73351
133 2 7.64445 5.1892 1.99319
134 2 8.76326 3.78558 1.29839
135 2 8.4225 3.73165 3.07628
351 1 15.0284 0.603805 1.92549
170 2 9.07418 5.75878 3.94961
157 2 8.26201 2.6056 4.49571
158 2 9.14015 4.2576 4.88717
159 2 9.63816 2.74177 5.8782
161 2 8.57714 3.78169 7.46818
166 2 13.4111 4.23818 0.0874467
167 2 13.3433 3.04909 1.58994
49 4 14.0501 0.150618 7.96179
172 2 8.33002 5.63099 5.74126
203 1 7.97729 4.04162 2.057
357 2 10.9023 1.81951 1.1454
211 1 9.2088 3.12008 4.87005
354 1 14.5931 1.63515 9.20368
214 1 13.3984 4.19683 1.1922
329 2 14.8159 2.09907 0.292084
269 3 9.79009 0.999145 3.03939
271 3 9.87 1.29745 8.08901
272 3 14.4372 1.96575 4.51806
273 3 11.7813 1.73175 4.78576
274 3 13.382 0.87136 6.81013
280 3 11.0257 3.52148 2.78933
281 3 12.5773 5.83182 3.21341
282 3 10.9653 5.59155 0.866575
283 3 11.5082 3.59351 8.08096
284 3 13.1315 3.53938 6.19173
288 3 11.2851 5.54709 6.52028
348 2 14.7976 1.75153 1.78392
359 1 10.6989 2.30878 0.0816231
353 2 13.8645 2.49646 9.18802
204 1 5.74243 6.04782 4.48399
371 3 12.7882 0.44637 0.178556
72 2 15.0626 3.48847 8.68762
350 2 14.8693 0.116752 3.03394
216 1 8.889 6.27118 4.98738
162 2 8.91117 4.74286 9.09331
349 2 15.9631 0.206722 1.30172
160 2 7.85384 3.08062 9.19002
9 4 15.2272 2.62909 16.4729
48 4 12.3544 1.57249 17.6583
174 2 8.29281 5.53905 13.8919
53 4 9.85617 1.56632 15.7585
54 4 11.7769 1.95477 11.5601
60 4 11.6617 3.34456 14.192
82 2 6.53829 4.7712 16.2569
252 3 6.68748 3.70683 13.8525
91 2 13.1529 1.66908 10.6195
92 2 11.294 0.355279 11.5298
95 2 12.8438 3.30803 15.4421
96 2 11.74 4.99398 13.8887
116 2 11.8847 5.0327 10.6775
117 2 12.4356 5.92725 12.2778
369 1 9.97637 5.3565 17.1767
285 3 6.42598 5.36174 9.442
256 3 5.18277 5.80706 14.0943
163 2 7.8054 4.4383 10.8186
164 2 9.38461 3.39234 11.3096
165 2 8.69908 4.88977 12.3899
366 2 9.75745 4.33827 17.6527
197 1 12.5007 5.89702 11.1474
213 1 8.4095 3.97168 11.682
368 2 8.9696 6.0369 17.0431
270 3 13.4426 2.82133 16.9036
275 3 15.2315 1.4872 15.2605
276 3 9.03832 0.422908 14.9068
277 3 11.2603 0.963901 16.6463
278 3 8.61753 2.07971 16.9528
279 3 10.77 2.67359 10.69
355 2 14.8058 1.37122 10.368
289 3 10.3119 2.9323 14.7793
290 3 12.2164 2.52195 12.9726
328 2 16.0843 0.745898 17.998
342 2 6.79791 5.17075 17.9495
343 1 6.20942 6.08809 17.763
173 2 10.0622 6.09272 13.9328
341 2 5.56707 6.13624 16.7822
29 4 7.14474 2.81905 12.4827
327 1 15.9468 1.89624 18.0419
367 2 10.5294 5.20809 16.2085
56 4 10.9742 6.56635 18.1253
358 2 10.0278 2.43706 18.4501
361 2 13.4239 6.36362 16.9218
286 3 4.75054 6.39614 11.3479
217 1 8.93955 6.43949 13.7164
118 2 13.5394 5.95626 10.7341
356 2 11.5111 3.62926 18.5625
19 4 9.45074 11.2027 4.43603
296 3 5.94145 11.1705 0.250872
171 2 8.36256 7.21513 4.8287
46 4 4.90719 12.2652 1.15222
186 2 8.70321 10.2476 9.01452
59 4 10.4545 6.78066 5.96846
62 4 4.39003 10.8519 4.04046
64 4 7.03105 8.83919 8.29064
66 4 6.79128 11.2631 6.19494
94 2 10.9935 6.68329 8.91927
85 2 5.01612 7.52823 5.42203
98 2 8.21706 7.73315 7.55522
122 2 9.30979 10.2412 2.10996
123 2 8.07332 9.44694 3.24997
124 2 9.93363 9.01555 3.46277
41 4 2.09904 10.2487 0.475692
25 4 0.575177 12.6223 7.62496
297 3 5.84422 7.85392 9.12284
298 3 3.11568 9.56183 8.52615
179 2 2.88256 10.4724 5.97234
180 2 2.31226 11.8415 4.57822
181 2 3.68253 12.3345 5.96978
182 2 9.65952 8.80758 7.04796
183 2 11.2358 8.30345 7.89677
184 2 9.69663 7.62228 8.46632
23 4 0.595037 12.188 2.36868
199 1 9.14893 9.79983 3.14276
169 2 8.59992 7.77517 0.48469
219 1 3.13175 11.4377 5.33979
220 1 10.1934 7.94988 7.574
76 2 2.00032 11.8539 6.87666
258 3 4.44916 6.94014 1.45169
261 3 1.55223 11.5626 1.15683
287 3 11.3966 7.60817 4.76238
293 3 3.95507 9.01739 3.76782
294 3 4.2909 11.6144 2.63233
138 2 5.47988 6.75476 3.62033
304 3 6.64876 12.3933 7.43693
299 3 4.22174 11.9594 8.88514
301 3 8.2141 11.4206 5.45071
302 3 5.7139 11.1444 4.89464
303 3 6.72241 9.79756 7.05294
260 3 2.77332 9.20203 1.41459
39 4 3.41402 7.91711 2.28239
83 2 2.49716 9.17284 4.02793
15 4 11.6667 7.35356 10.3895
58 4 6.11728 6.7203 10.2202
61 4 8.77122 7.62426 12.1132
63 4 7.14465 10.5589 17.7987
221 1 7.71623 10.0365 9.56308
67 4 4.52057 10.6684 16.5122
364 2 12.0342 7.27973 15.8009
365 2 9.11399 8.16684 17.2344
314 4 9.87189 11.2536 16.7006
175 2 8.62778 7.33466 14.3514
176 2 9.18025 9.97988 12.1899
177 2 8.54535 9.12196 13.8102
178 2 7.30932 9.76486 12.4765
340 2 6.7253 7.07473 18.0576
215 1 9.69025 8.18632 18.2429
188 2 5.86614 10.023 10.4172
189 2 4.51543 8.81103 10.7974
190 2 4.59671 10.3651 11.8262
52 4 6.11126 12.7754 15.0228
218 1 8.35447 9.41002 12.6981
222 1 4.76725 9.86722 10.8542
187 2 7.93659 9.83123 10.7682
44 4 2.84231 9.09995 14.1159
268 3 1.13711 12.4277 12.4642
362 1 12.5276 7.16386 16.9348
291 3 10.2813 7.7335 11.4173
292 3 7.41718 7.25855 11.1863
295 3 8.22761 11.4668 16.7854
97 2 8.0465 9.27304 18.5211
300 3 2.23206 11.1387 10.4787
305 3 3.67692 9.76439 15.3824
306 3 5.96511 9.8537 16.8403
307 3 5.00915 12.0697 15.7976
308 3 3.47177 10.716 17.8894
65 4 3.4732 10.6414 9.64084
321 2 7.52039 11.8996 15.2589
153 2 4.57392 7.20392 17.0169
318 2 10.0322 9.56243 16.8273
267 3 2.33638 10.174 13.0737
90 2 5.92393 12.5179 13.3289
168 2 10.497 9.05817 18.4341
185 2 6.91892 10.8819 9.39314
ITEM: TIMESTEP
200
ITEM: NUMBER OF ATOMS
371
ITEM: BOX BOUNDS xy xz yz pp pp pp
0.0000000000000000e+00 2.6226459699999999e+01 8.4675999999999991e+00
0.0000000000000000e+00 1.3020299999999999e+01 4.4025969999999859e-01
0.0000000000000000e+00 1.8640300000000000e+01 2.0540000000000000e-01
ITEM: ATOMS id type x y z
1 4 2.17832 1.03235 2.93541
2 2 3.8646 1.36281 3.02798
246 3 4.59331 3.55106 9.22644
4 3 1.9666 0.849363 1.37353
68 2 0.880098 0.760132 7.08609
250 3 4.98712 5.08931 6.9658
325 1 2.24602 0.299836 8.37564
245 3 5.30795 4.15505 1.28918
243 3 6.64206 1.87497 0.618789
202 1 5.53149 2.3496 3.46482
32 4 4.54759 5.55624 0.660669
33 4 5.59071 4.4006 8.39147
35 4 4.37825 5.93229 5.54968
30 4 6.29454 3.04678 1.7445
192 1 2.40246 2.90431 5.84588
335 2 7.4473 0.363536 1.30063
324 2 2.30155 1.43921 8.59344
103 2 2.8362 1.86962 5.61993
104 2 2.9006 3.41393 6.68683
130 2 5.45368 1.24215 3.50085
131 2 4.52923 2.87608 3.62629
132 2 6.51255 2.73992 4.03948
212 1 8.88875 3.83287 8.6047
160 2 8.11196 3.20989 9.24413
50 4 10.4341 2.7196 8.91347
162 2 9.07549 4.90164 9.07732
216 1 8.76306 6.2898 5.02515
81 2 7.02579 3.52672 7.97746
136 2 5.57523 4.80025 4.11036
137 2 6.8086 6.33133 4.47414
204 1 5.68647 6.05677 4.1573
133 2 7.56803 5.1838 2.29593
134 2 8.51314 3.85411 1.39555
135 2 8.34194 3.6013 3.29903
288 3 11.157 5.46996 6.57368
170 2 9.272 5.82049 4.12629
157 2 8.41751 2.42928 4.67241
282 3 10.9008 5.71276 0.784629
158 2 9.11777 4.29292 4.96751
280 3 10.9933 3.55079 2.88122
159 2 9.65092 2.75824 6.01643
161 2 8.54666 3.88717 7.54413
172 2 8.16623 5.51255 5.66699
203 1 7.84811 4.07444 2.26477
211 1 9.28834 3.10122 5.00468
55 4 11.8397 4.801 2.13538
10 4 2.10478 1.27357 11.6714
165 2 8.26697 4.96074 12.326
242 3 7.72379 1.35013 12.9193
24 4 7.13205 1.64328 17.6237
26 4 4.66672 2.38 10.4485
241 3 5.85721 2.80792 11.5338
28 4 4.3527 1.96036 16.0314
251 3 4.24063 3.37757 15.2375
240 3 5.7416 1.75224 16.8311
239 3 3.74104 0.782538 15.2563
238 3 3.19388 2.56106 11.5107
69 2 1.70236 0.344386 10.2303
36 4 5.56312 4.34386 14.8415
237 3 4.76599 0.923394 9.87407
78 2 3.13048 2.24533 17.1601
224 3 2.27697 0.509195 13.0738
143 2 3.0195 4.06043 12.3323
174 2 7.61592 6.20312 13.6867
53 4 9.78931 1.55062 15.8117
82 2 6.23066 4.79313 16.3597
217 1 8.75455 6.50353 13.5901
286 3 4.94861 6.49222 11.4675
252 3 6.61515 3.56945 13.9692
358 2 10.1788 2.36502 18.3778
56 4 10.816 6.53141 18.0203
367 2 10.3318 5.19091 15.828
96 2 11.7288 4.88796 14.0609
29 4 6.9906 2.81387 12.576
341 2 5.4921 6.20989 16.7926
173 2 9.48798 5.71028 13.3196
343 1 6.08143 6.16483 17.7957
342 2 6.97687 5.40439 17.8464
116 2 12.0189 5.0288 10.7549
117 2 12.6764 6.10607 12.1814
289 3 10.1673 2.88362 14.7677
369 1 9.93007 5.20281 16.8565
285 3 6.51169 5.36622 9.41782
278 3 8.59019 2.10628 16.8905
256 3 5.20414 5.7394 14.127
366 2 10.0498 4.22831 17.4296
163 2 7.52895 4.46155 10.725
164 2 9.04634 3.49857 11.3216
368 2 8.88932 5.63196 16.9196
213 1 8.10881 4.05531 11.6173
197 1 12.6868 5.90789 11.0828
317 2 4.74728 0.436938 18.5656
347 2 8.40229 0.187618 9.66676
334 1 11.1567 10.5628 5.6048
12 4 12.8981 7.10928 4.31167
6 4 12.5009 12.4431 9.24419
331 2 11.2555 9.48901 5.34013
333 2 12.0437 11.2248 5.23609
21 4 13.9791 10.4975 7.05804
310 2 13.0959 10.9795 0.107044
148 2 15.0349 12.7498 6.22944
332 2 10.7875 10.8193 6.60318
74 2 12.9399 9.85877 5.83006
323 2 10.9801 12.8394 7.27647
313 1 12.6041 11.4578 0.984655
312 2 13.3532 11.7425 1.83968
311 2 11.7458 10.6099 1.46172
322 2 9.832 12.5326 8.84912
309 4 11.1068 12.4628 0.298194
105 2 12.7361 9.19223 3.24131
106 2 13.0464 7.71043 1.99452
184 2 9.36838 7.50394 8.64206
345 2 15.951 11.8408 8.32373
77 2 16.7578 12.6843 6.43112
128 2 15.6206 11.9444 2.67686
199 1 9.22149 9.98138 3.17634
370 3 10.1761 12.5332 3.77654
235 3 13.2353 11.5075 8.08116
234 3 14.6572 9.18099 7.8181
208 1 15.1199 11.603 6.00481
149 2 14.619 11.245 4.96887
201 1 16.2783 12.194 1.78909
193 1 13.3922 8.30484 2.94067
19 4 9.54931 11.3174 4.50144
171 2 8.20438 7.27379 4.75909
186 2 8.79946 10.1383 8.94818
59 4 10.4057 6.7857 5.96289
303 3 6.81966 9.67638 7.05229
64 4 7.04751 8.70849 8.25446
301 3 8.26161 11.4324 5.48488
94 2 11.0607 6.74303 8.90593
98 2 8.03873 7.50205 7.61343
138 2 5.4151 6.44965 3.08045
122 2 8.88891 10.4662 2.26752
123 2 8.48357 9.18363 3.52386
287 3 11.5175 7.75685 5.00332
124 2 10.2605 9.53897 3.08912
297 3 5.90954 7.92888 9.10294
182 2 9.46502 8.66604 6.98771
220 1 9.98091 7.84388 7.6504
183 2 11.0112 8.17084 7.89567
169 2 9.02776 7.95227 0.844006
85 2 5.14074 7.48618 5.31321
8 4 11.4217 12.5525 14.3781
22 4 13.6017 10.0865 13.4915
363 2 12.5538 8.05277 17.8599
338 2 17.0406 12.5322 17.6533
127 2 11.9895 8.6198 12.9187
339 1 15.9163 12.5804 17.5696
75 2 14.2794 9.24902 14.9138
88 2 15.6079 11.3379 10.2603
99 2 10.7762 11.3832 10.358
100 2 12.1605 11.5309 11.7042
101 2 12.3037 10.0997 10.3519
125 2 12.1195 8.47332 14.9273
337 2 15.3494 12.1052 18.472
336 2 15.4941 12.2581 16.535
126 2 13.436 7.51581 13.933
319 2 15.9514 11.6413 13.3267
316 3 10.3086 11.7127 15.1333
315 3 10.6926 12.0225 17.8193
264 3 14.7459 9.9919 12.392
187 2 7.96505 9.7851 10.6744
236 3 12.6884 11.4696 13.7388
191 1 11.976 11.2945 10.609
232 3 12.6677 8.44853 10.119
200 1 12.7744 8.46496 13.9887
15 4 11.5986 7.32511 10.4422
58 4 6.07153 6.69755 10.2726
97 2 8.063 9.27669 18.5047
61 4 8.72547 7.69751 12.0691
221 1 7.78017 9.99406 9.53229
318 2 9.99392 9.51573 16.7125
364 2 12.2464 7.46033 16.0384
365 2 9.09196 8.25198 17.5521
314 4 9.85535 11.2725 16.673
175 2 9.04183 6.96211 14.4962
176 2 9.1926 10.2712 12.4141
177 2 8.35003 9.23076 13.7665
178 2 7.3439 9.84802 12.2507
340 2 6.35844 7.27744 18.1771
168 2 10.5398 9.25423 18.3133
295 3 8.25378 11.5166 16.877
292 3 7.51908 7.17667 11.1902
291 3 10.2678 7.61196 11.2033
362 1 12.3705 7.11307 17.1215
215 1 9.83187 8.38386 18.3685
218 1 8.35114 9.55595 12.6394
27 4 17.1134 12.9193 13.4661
349 2 16.1 0.199784 1.47298
47 4 10.5366 2.26561 3.81204
350 2 14.9924 0.274931 3.02168
51 4 13.2285 2.10716 5.61162
223 3 16.9509 2.45288 5.42309
72 2 15.0714 3.62728 8.80893
57 4 12.2733 4.48108 7.21464
371 3 12.9396 0.311081 0.220057
89 2 16.4679 1.11435 3.25674
352 2 15.6991 1.97571 8.84071
93 2 13.267 5.52164 8.05028
353 2 13.8342 2.429 8.98375
359 1 10.8695 2.37751 0.162405
348 2 15.0097 1.71153 1.65421
284 3 13.1829 3.6007 6.23248
351 1 15.1375 0.586564 1.92016
283 3 11.6169 3.64058 8.31341
102 2 19.4315 3.54974 4.95034
274 3 13.3815 1.04154 6.86197
273 3 11.8379 1.80982 4.71672
272 3 14.4314 2.00337 4.50512
166 2 13.4385 4.30197 0.0780091
167 2 13.0947 2.9944 1.34655
49 4 14.1804 0.267349 8.03312
271 3 10.086 1.25845 8.07016
269 3 10.0538 0.946057 2.86857
357 2 11.1165 2.03271 1.20799
329 2 15.0733 1.97758 0.29526
226 3 16.5848 5.98835 1.87076
214 1 13.2441 4.09602 1.19342
3 2 18.6731 2.39114 3.34194
70 2 17.847 3.62521 1.3206
5 4 15.9186 2.40651 4.23845
7 4 17.9798 2.45428 6.57838
139 2 20.352 5.37035 8.86873
225 3 16.0917 3.66216 3.30171
11 4 17.0785 4.57116 2.5055
249 3 20.1702 6.02194 5.07789
14 4 16.4664 4.47752 8.31204
360 2 14.1016 4.55553 1.84849
244 3 18.5835 4.55701 3.29318
31 4 19.1686 6.15606 3.86132
229 3 16.039 5.3974 6.95673
227 3 17.5573 3.2647 7.89307
281 3 12.5434 5.76006 3.25123