ITEM: TIMESTEP
0
ITEM: NUMBER OF ATOMS
371
ITEM: BOX BOUNDS xy xz yz pp pp pp
-8.8510000000000009e+00 1.7777500000000000e+01 -8.8510000000000009e+00
0.0000000000000000e+00 1.3020299999999999e+01 4.5889999999999997e-01
0.0000000000000000e+00 1.8640300000000000e+01 2.0540000000000000e-01
ITEM: ATOMS id type q x y z
3 2 -0.0487164 0.352568 0.757106 1.51589
7 4 1.12228 1.31239 2.5587 6.09527
11 4 1.19953 0.332841 4.74339 2.54306
14 4 1.20344 -0.482995 4.00631 7.95935
70 2 0.0858014 1.46499 4.40349 1.33634
223 3 -0.853988 0.368642 2.21869 4.91701
225 3 -0.844128 -0.53517 3.43347 2.82263
226 3 -0.815884 -0.683211 6.01253 2.01148
227 3 -0.823536 0.851598 2.98374 7.50138
229 3 -0.80558 -1.02953 5.02134 6.86351
244 3 -0.801192 1.38223 5.20974 3.86441
324 2 0.200576 1.20156 0.9718 8.364
5 4 1.30597 -0.914623 2.37597 3.97477
166 2 0.186899 -3.34198 5.01195 0.052045
360 2 0.230051 -2.35889 4.27501 1.43874
247 3 -0.793686 0.0660482 4.88964 9.25498
72 2 -0.010877 -1.64072 2.96885 8.57863
281 3 -0.78528 -3.8428 5.76811 3.29306
16 4 1.25849 -1.8502 6.40795 7.04567
233 3 -0.823931 -2.63111 6.33395 8.47475
201 1 -0.64597 7.87934 0.199918 1.93875
250 3 -0.831155 5.07818 5.26397 6.89761
25 4 0.726886 8.4965 0.279556 8.11412
68 2 0.0293652 2.49755 1.24708 6.34085
131 2 0.162873 4.44804 0.73803 2.21942
139 2 0.257741 2.82472 4.53753 9.27578
202 1 -0.667542 4.49683 1.58044 2.90777
77 2 0.0625377 6.80541 1.11092 8.29681
102 2 0.219008 2.85802 4.08604 5.35693
192 1 -0.667342 3.18374 2.91321 5.59935
243 3 -0.747957 6.18003 2.11478 0.480207
245 3 -0.786392 4.63139 4.28602 1.64563
246 3 -0.79481 4.72614 3.18266 8.54611
132 2 0.150666 3.58013 2.35422 2.81897
254 3 -0.814576 2.35633 5.38673 0.32305
30 4 1.06228 5.60054 2.8553 1.77105
32 4 1.25532 4.15569 5.65488 0.901549
2 2 -0.00894193 2.71707 0.739241 2.68943
103 2 0.169119 3.66837 2.37886 4.61915
104 2 0.238932 3.88793 3.05693 6.41948
130 2 0.149138 4.97608 1.35756 3.92689
33 4 1.25813 5.53294 4.48375 8.22507
335 2 0.200252 7.77124 1.35339 2.23944
129 2 0.185245 7.65397 0.0421818 0.818183
10 4 1.05233 1.78085 1.82682 11.4002
17 4 1.26284 0.0925698 4.8002 15.6401
34 4 1.2777 0.968819 6.0987 9.89178
37 4 1.20784 1.95415 6.35261 17.8374
69 2 -0.00520862 1.16738 0.808244 10.1374
18 4 1.03479 -0.611643 6.34873 12.9751
110 2 0.160628 -0.285813 2.8388 10.7803
111 2 0.203205 0.648284 3.89158 12.1043
112 2 0.167572 -0.317541 2.35417 12.6005
113 2 0.220427 2.23647 3.62971 15.0268
114 2 0.193114 0.744713 3.30692 13.6997
115 2 0.159497 0.742316 2.56855 15.5718
144 2 0.242058 1.8734 5.705 12.5858
195 1 -0.68929 0.264574 2.88328 11.7789
196 1 -0.654402 1.11908 3.43824 14.8666
230 3 -0.77891 -1.51603 4.14111 16.2041
231 3 -0.829534 -0.0492526 5.73827 14.3764
253 3 -0.806607 0.994993 5.45759 16.8539
326 2 0.166522 -0.19114 2.69407 17.5343
224 3 -0.817392 2.10976 0.921831 12.719
248 3 -0.759322 0.361503 6.31519 11.6899
73 2 0.0272347 -2.1785 5.73677 12.5235
239 3 -0.857392 3.63437 1.07202 15.0036
205 1 -0.643436 2.75285 5.47296 9.9048
240 3 -0.862876 5.64524 1.60034 16.686
237 3 -0.811776 4.00284 0.825416 9.55516
238 3 -0.758108 3.03556 2.8203 10.9937
242 3 -0.85001 7.03008 0.917257 13.178
140 2 0.206659 2.82679 5.24448 11.0248
347 2 0.203398 8.04178 0.751418 10.3193
252 3 -0.835951 5.96124 3.50102 13.419
241 3 -0.813763 5.99722 2.30788 10.9799
251 3 -0.831289 4.23072 3.63099 15.5418
24 4 1.2449 7.0416 1.67337 17.3831
26 4 1.38242 4.5197 2.25401 10.058
28 4 1.24062 4.21611 1.96833 16.087
29 4 1.36351 6.67643 2.33194 12.4464
36 4 1.26244 5.45946 4.23811 14.7015
78 2 -0.0282697 3.06158 1.96664 17.318
142 2 0.214473 2.6149 4.74496 14.2107
143 2 0.217447 3.29406 4.42652 12.5243
206 1 -0.679721 2.78697 5.21048 13.1559
346 1 -0.628552 7.31175 0.200122 9.61852
341 2 0.186626 5.0603 5.46073 17.1592
141 2 0.238079 3.42246 6.35659 9.65171
8 4 1.43372 2.62531 0.230445 14.0341
38 4 1.3209 4.13013 6.50448 13.1917
12 4 1.23432 -3.81629 6.9444 4.48216
21 4 1.01391 -3.89217 10.3615 7.30127
74 2 -0.0135389 -4.59667 9.79775 5.86198
105 2 0.157738 -4.10451 9.26134 3.87108
106 2 0.169453 -2.90432 8.25281 2.61097
107 2 0.146101 -2.26709 8.81229 4.36588
330 2 0.162553 -3.2746 8.82799 0.370684
148 2 0.177768 -2.74526 12.3074 7.40159
193 1 -0.684815 -3.23281 8.5258 3.79039
208 1 -0.676799 -2.20179 11.4674 6.91616
228 3 -0.821608 -2.78771 6.65786 5.83603
234 3 -0.864065 -3.46806 9.14163 8.1813
235 3 -0.831586 -4.79098 11.3554 8.09927
109 2 0.206168 -3.31362 7.16426 1.49861
332 2 0.152789 -6.14977 10.6452 5.63375
333 2 0.1658 -5.57576 10.5754 3.84672
334 1 -0.650001 -6.1536 10.038 4.68343
6 4 1.15525 -5.58916 12.2461 9.13018
149 2 0.0951717 -2.55803 11.0963 5.69678
194 1 -0.65546 -2.72541 7.70218 0.724725
4 3 -0.822055 -6.65518 11.8654 0.748287
312 2 0.15192 -3.81881 10.993 0.918906
20 4 1.37793 -3.16626 7.94034 9.23284
1 4 0.94637 -7.25197 12.5362 1.94547
325 1 -0.677695 -7.32323 12.7127 8.41416
323 2 0.167324 -7.01049 12.3015 7.37543
370 3 -0.794251 -7.71246 11.4886 3.01224
331 2 0.232378 -5.91521 8.83579 4.87751
311 2 0.0606063 -5.29466 9.43106 0.0656526
259 3 -0.769198 0.494244 11.4859 3.83716
108 2 0.0100113 -1.44327 8.69061 1.73266
87 2 0.00389933 1.22971 8.48693 6.70612
146 2 0.15192 -1.1091 9.93561 6.20336
31 4 1.1898 1.83567 6.66625 4.18739
262 3 -0.819824 1.14129 7.49824 9.1207
86 2 -0.0331002 0.1669 9.98287 8.7312
84 2 -0.0151427 0.861195 10.4081 6.3285
145 2 -0.00277585 -0.0996246 8.79444 3.84954
150 2 0.127151 -1.67748 10.7106 7.59791
128 2 0.15875 -1.5879 12.2727 2.6287
76 2 0.0176386 -0.55602 12.3453 6.50174
147 2 0.140499 -0.955138 8.24836 5.22876
207 1 -0.661753 -0.34915 9.05437 5.7646
13 4 1.09064 -0.870252 7.16468 0.979435
257 3 -0.873329 2.07663 7.48222 2.82636
40 4 0.687984 0.902654 10.1128 4.55366
42 4 0.95668 1.4233 8.87562 8.40637
79 2 -0.0195447 0.58684 7.49673 5.07304
80 2 0.0085532 -0.4781 7.49645 6.88212
249 3 -0.76417 3.23374 6.59372 5.32453
344 2 0.0168069 -0.485199 11.5594 9.11996
22 4 0.991622 -3.92854 10.8874 13.585
75 2 0.0782845 -3.10975 12.1346 14.6958
88 2 0.00465164 -2.15348 11.174 9.52547
100 2 0.276122 -5.76807 11.4061 11.7665
101 2 0.191357 -5.65706 10.2975 10.2125
126 2 0.0492641 -4.0158 9.35566 14.7031
317 2 0.0768192 -3.85692 12.2069 17.5327
191 1 -0.677956 -6.08986 11.2348 10.647
200 1 -0.636648 -2.95334 10.5068 15.3104
232 3 -0.769012 -4.61841 7.31559 10.1198
236 3 -0.831245 -5.34934 11.5546 13.4822
263 3 -0.824281 -2.15061 8.58059 10.2111
264 3 -0.784457 -2.97173 10.4409 12.1983
316 3 -0.803466 -7.62575 12.6079 15.0291
121 2 0.216582 -2.79303 7.76842 12.2183
345 2 0.204191 -2.44369 12.7342 10.1978
310 2 0.151036 -2.58109 10.326 18.1084
127 2 0.170053 -3.25213 10.6274 16.509
315 3 -0.812395 -6.38983 11.1884 16.79
71 2 0.123614 -2.1749 7.15901 18.2658
309 4 0.992447 -5.47993 11.3671 18.1209
120 2 0.151962 -2.55977 7.50972 14.0177
313 1 -0.643303 -3.53749 10.8104 18.4988
198 1 -0.668214 -2.02833 7.63536 13.0871
99 2 0.157335 -7.20242 11.2025 10.5359
337 2 0.165376 -1.56011 12.0251 18.4186
125 2 0.143184 -1.89274 10.0793 15.1655
27 4 1.33287 -0.615818 12.7723 13.7321
266 3 -0.848203 -0.380745 10.1538 11.2555
320 2 0.064706 1.22693 9.26671 18.5751
209 1 -0.685369 3.10316 7.20939 16.722
336 2 0.178122 -1.71532 12.1958 16.519
152 2 0.22147 2.85005 6.77137 15.6593
338 2 0.181816 -0.125348 12.8693 17.4902
210 1 -0.686122 0.899955 8.6098 15.1048
43 4 1.20344 -1.91448 10.0666 10.875
151 2 0.175072 2.80382 8.32302 16.8931
44 4 1.3029 2.40968 9.12646 14.101
265 3 -0.80647 3.28281 7.74073 13.5791
156 2 0.191756 1.01196 8.73081 16.1599
319 2 -0.0128166 -1.56992 11.3726 14.3204
119 2 0.175528 -1.13507 8.52799 13.1124
339 1 -0.672084 -1.27461 12.6441 17.5066
45 4 1.44949 0.826237 11.0205 11.804
267 3 -0.777015 1.73966 9.99778 12.8486
154 2 0.228738 0.620709 7.49727 14.7733
155 2 0.151749 0.186699 9.39226 14.6387
153 2 0.200989 4.18359 7.08624 16.9754
268 3 -0.868418 0.302553 12.3525 12.5887
255 3 -0.818974 0.679002 7.71482 18.633
133 2 0.175453 7.20189 4.3264 2.94548
134 2 0.169553 8.17343 3.09025 1.87938
357 2 0.243742 10.5207 1.99974 1.19587
157 2 0.168534 9.87012 3.19521 5.37983
158 2 0.170822 9.00081 3.47959 3.65702
159 2 0.211486 10.4059 4.64661 4.20936
161 2 0.164879 8.93143 4.38701 8.01411
172 2 0.149763 8.51566 5.38635 5.98332
203 1 -0.664229 7.27692 3.25173 2.61497
211 1 -0.666989 9.96141 3.61262 4.27665
269 3 -0.799555 10.3882 0.97064 2.78579
271 3 -0.784177 9.69988 1.26697 8.38108
359 1 -0.694793 10.5112 2.66963 0.226729
204 1 -0.645015 5.81278 5.88522 4.33852
212 1 -0.67382 8.97718 3.86169 9.02606
137 2 0.165566 6.51354 4.96763 4.55455
81 2 -0.0124662 7.19336 4.04438 8.17156
366 2 0.169168 7.95861 5.55659 1.6436
50 4 1.2855 10.4911 2.59583 9.10074
369 1 -0.642816 8.8783 5.83385 2.16652
368 2 0.176307 9.36192 4.95453 2.84862
170 2 0.16831 8.88482 6.12298 4.20557
136 2 0.231766 4.97974 5.70397 3.58247
56 4 0.922815 10.237 6.22492 0.686509
35 4 1.04391 4.78728 6.40766 5.8522
216 1 -0.655504 8.92198 6.32416 5.41964
160 2 0.156225 8.17028 3.0253 9.1884
135 2 0.138671 7.24914 2.57186 3.54367
355 2 0.137243 16.0614 1.36208 8.94906
167 2 0.197495 13.7286 3.25616 0.510313
214 1 -0.682154 13.9957 4.24693 0.903289
356 2 0.212123 11.1758 3.55113 0.296732
371 3 -0.772844 12.4971 0.625835 0.10428
280 3 -0.803353 12.1245 3.38047 2.8046
89 2 0.00407979 16.1412 0.855084 3.16169
283 3 -0.842403 11.7039 3.36642 8.41272
282 3 -0.763136 11.562 5.56228 1.27086
348 2 0.182226 14.4632 2.23472 1.50987
349 2 0.141403 15.7038 0.664662 1.49336
47 4 1.2739 11.2842 2.3391 3.71365
351 1 -0.667514 14.6717 1.11691 1.8764
350 2 0.197905 14.4531 0.935842 2.98654
284 3 -0.821451 13.1819 3.773 6.35482
288 3 -0.843705 11.1004 5.37009 6.88328
51 4 1.48338 13.6177 2.31771 5.61039
55 4 1.32418 12.777 4.80436 2.22894
57 4 1.34327 12.2641 4.44901 7.3647
93 2 0.0991992 13.3124 5.42986 8.27844
272 3 -0.840459 15.0007 2.48472 4.69346
273 3 -0.802822 12.1937 1.7143 4.91058
274 3 -0.814784 13.8355 1.1223 6.83038
53 4 1.40442 9.60569 1.84037 15.6588
82 2 0.0248197 6.74296 4.40082 15.7626
162 2 0.205596 8.99103 4.5969 9.83671
163 2 0.206272 8.52608 3.4196 10.975
164 2 0.248536 9.18826 2.49536 12.4308
165 2 0.202824 8.37184 4.20972 12.6971
173 2 0.212778 7.47795 5.4721 13.4913
213 1 -0.644379 8.32968 3.2014 12.079
278 3 -0.78982 8.23466 2.53286 16.6752
279 3 -0.80914 10.8327 2.4283 10.695
289 3 -0.788729 10.1409 2.95007 14.4901
292 3 -0.790635 7.48503 6.31379 10.9291
175 2 0.181575 9.38079 5.34218 13.7604
362 1 -0.654469 10.1834 5.68741 17.6334
277 3 -0.796811 10.995 1.42362 16.6645
217 1 -0.67495 8.4676 6.01731 13.6485
256 3 -0.789065 5.1679 5.84781 14.3714
276 3 -0.85238 8.98763 0.581462 14.9177
363 2 0.171675 10.8837 5.02688 17.0893
291 3 -0.796185 10.2819 6.50324 11.4878
364 2 0.136669 9.70644 6.50756 16.9542
358 2 0.191984 9.93013 3.14867 18.5054
285 3 -0.823288 5.48815 5.41976 9.48808
361 2 0.143959 9.34339 5.00282 18.2058
342 2 0.178447 6.54656 5.15187 18.1985
343 1 -0.678502 5.69055 5.88413 17.9924
354 1 -0.659334 14.9612 1.25541 9.38991
118 2 0.0252434 12.871 6.30041 12.7663
60 4 0.927067 11.7512 2.95351 14.0221
91 2 -0.0209221 13.4587 1.36385 10.6566
353 2 0.141456 14.8201 0.462665 10.2071
327 1 -0.672524 16.286 1.95017 17.5908
197 1 -0.657709 13.256 4.88637 11.7506
96 2 -0.0199343 12.2478 4.51323 13.3655
270 3 -0.74572 13.3522 2.70094 16.8761
95 2 0.103718 12.7529 2.82819 15.3765
94 2 0.106808 12.0972 4.36948 10.6805
290 3 -0.79866 12.089 1.76852 13.0165
328 2 0.173478 16.628 0.948281 17.0961
117 2 0.143435 13.4401 3.90906 12.3375
275 3 -0.797879 15.1502 1.62767 14.9744
9 4 1.21171 15.1552 2.70787 16.2781
48 4 1.31818 12.0552 1.81218 17.7623
54 4 0.938311 11.9189 1.47337 11.4675
15 4 0.95655 11.9433 6.30283 11.1607
352 2 0.15845 14.4225 2.25159 9.47463
116 2 0.175004 14.0935 5.18135 11.1039
329 2 0.192998 15.8561 1.76828 18.6395
23 4 1.27731 0.73088 12.4743 2.42153
41 4 1.27865 1.98837 10.2407 0.297771
46 4 1.36418 4.75867 12.5188 1.09669
62 4 1.28974 4.59927 11.0677 3.97654
85 2 0.0919116 5.51615 7.88476 6.36585
179 2 0.14603 2.9802 11.04 5.83256
180 2 0.22533 2.79788 12.3812 4.42758
49 4 1.24695 5.55954 12.8247 7.91784
219 1 -0.669927 3.48995 11.8584 5.21354
258 3 -0.828649 4.32386 7.08757 1.57881
298 3 -0.769977 2.94046 9.43435 8.49876
293 3 -0.741682 3.99898 9.2878 3.64619
294 3 -0.841927 4.59755 11.7344 2.50938
299 3 -0.78906 4.49427 11.7318 8.7667
302 3 -0.849413 5.85437 11.0232 4.96059
260 3 -0.855441 3.05498 9.42207 1.09277
39 4 1.43998 3.34199 8.27246 2.18298
261 3 -0.807473 1.29636 11.3924 1.28183
83 2 0.0729593 2.59934 9.64752 4.20451
138 2 0.159641 6.33111 6.91368 4.19254
296 3 -0.852202 5.74191 11.7575 0.0976474
181 2 0.275625 4.16008 12.5554 5.8864
367 2 0.179098 8.74652 6.86876 2.66414
185 2 0.200806 8.43871 10.9862 8.47427
304 3 -0.823903 6.90091 11.9448 7.35177
169 2 0.163347 9.37553 8.7348 0.675134
215 1 -0.642031 10.2959 8.12752 0.678259
199 1 -0.675825 8.63347 8.73881 3.36051
287 3 -0.772575 11.6739 7.18994 5.01149
303 3 -0.785222 6.55277 9.22915 6.8401
220 1 -0.68708 10.6268 8.10089 7.67497
221 1 -0.692005 8.23255 10.0141 9.15656
59 4 1.08551 10.6496 6.76316 6.20532
19 4 1.10277 9.25176 10.3684 4.11798
301 3 -0.78924 8.40952 10.8611 5.49868
64 4 1.05151 7.20233 8.73572 8.25987
66 4 1.46337 6.8902 10.8832 6.147
98 2 -0.0156726 8.69243 7.82493 7.96034
122 2 0.175797 7.54791 8.94591 3.20289
123 2 0.163518 8.75471 7.83726 4.13616
124 2 0.180962 9.25363 8.5312 2.35598
168 2 0.160643 11.2118 8.58863 1.40275
171 2 0.121499 8.47384 7.36048 5.7588
182 2 0.152081 10.0533 9.08925 7.59676
97 2 -0.00765634 6.68046 9.27921 0.324421
184 2 0.174745 10.308 7.50167 8.59563
322 2 0.160035 9.17159 12.0593 8.87159
183 2 0.194616 11.7594 8.2733 7.6124
186 2 0.140583 9.17847 9.39705 9.23069
67 4 1.47864 4.11411 10.9734 16.2865
188 2 0.149624 4.8991 10.6274 11.3325
190 2 0.238663 3.68555 9.15449 11.3654
222 1 -0.657589 4.4194 9.73897 10.7785
300 3 -0.790066 2.02345 11.3412 10.559
305 3 -0.778582 3.3821 10.074 15.1008
306 3 -0.774398 5.59777 10.1034 16.899
307 3 -0.808429 4.69455 12.2914 15.6076
308 3 -0.807335 2.99625 10.9988 17.5558
189 2 0.269724 5.1687 9.06254 10.1648
65 4 1.19408 3.45142 10.6975 9.53123
340 2 0.180085 6.00963 6.96841 17.857
92 2 0.0903953 2.73491 12.6587 11.2355
52 4 0.973709 6.07796 12.8389 15.0614
286 3 -0.802073 4.95064 6.67522 11.6148
90 2 -0.046511 6.47233 12.1466 13.6012
58 4 1.50761 5.98707 6.59812 10.4251
297 3 -0.820093 6.30082 7.99359 9.3558
321 2 0.0798243 7.34143 12.0268 15.9109
314 4 1.20133 9.63409 11.2805 15.8819
61 4 1.09504 8.79009 6.838 11.9059
174 2 0.1557 8.42445 6.80304 14.4378
295 3 -0.796122 8.29373 11.122 16.7978
187 2 0.158887 7.80911 10.3791 10.1415
365 2 0.125086 11.154 8.27947 18.1697
177 2 0.154264 9.51413 9.17933 12.6312
178 2 0.158054 7.57881 8.70749 12.7439
63 4 1.14666 6.71067 10.7545 17.8842
176 2 0.172393 8.37654 9.18665 11.0093
218 1 -0.650131 8.54481 8.75783 12.1333
318 2 -0.0339556 9.57165 10.0904 14.6749
ITEM: TIMESTEP
100
ITEM: NUMBER OF ATOMS
371
ITEM: BOX BOUNDS xy xz yz pp pp pp
-8.8882806000000016e+00 1.7777500000000000e+01 -8.8882806000000016e+00
0.0000000000000000e+00 1.3020299999999999e+01 4.5889999999999997e-01
0.0000000000000000e+00 1.8640300000000000e+01 2.0540000000000000e-01
ITEM: ATOMS id type q x y z
3 2 -0.0369242 0.786731 1.01613 1.55336
7 4 1.12278 1.38079 2.48672 6.02791
11 4 1.22796 0.316195 4.76186 2.56507
14 4 1.26677 -0.440498 4.06043 8.00762
70 2 0.0681702 1.27325 4.40538 1.21056
223 3 -0.838309 0.474109 1.97923 4.88398
225 3 -0.848877 -0.50644 3.36443 2.921
226 3 -0.819891 -0.665129 5.91628 1.89398
227 3 -0.839478 0.747876 3.1298 7.24995
229 3 -0.82437 -1.0235 5.09596 6.96439
244 3 -0.84002 1.34451 5.28722 3.74325
324 2 0.186705 1.39747 1.25291 8.29295
5 4 1.30732 -0.896996 2.32376 4.02884
166 2 0.17687 -2.9792 4.97756 0.146778
360 2 0.229977 -2.10506 3.94821 1.49153
247 3 -0.847517 0.141031 4.9325 9.19082
335 2 0.179083 7.57853 1.30755 2.45737
281 3 -0.744931 -3.81294 5.83014 3.40539
16 4 1.31122 -1.83595 6.38816 7.08636
233 3 -0.825801 -2.62079 6.39944 8.52706
201 1 -0.657539 7.80241 0.185059 2.25666
139 2 0.242215 2.6413 4.62341 9.11595
25 4 0.711416 8.58392 0.340224 8.13507
68 2 0.0226383 2.54147 1.18212 6.45896
131 2 0.154323 4.21602 0.693046 2.03173
72 2 -0.015143 -1.679 3.0801 8.68548
202 1 -0.672076 4.29441 1.60801 2.71037
77 2 0.0593533 6.88951 1.13614 7.98139
102 2 0.195941 3.04917 3.92972 5.36565
192 1 -0.666871 3.28381 2.72703 5.59557
243 3 -0.76154 5.98145 2.23169 0.180415
245 3 -0.80622 4.6681 4.23465 1.63761
246 3 -0.808074 4.83652 3.18871 8.54888
132 2 0.161213 3.34341 2.2117 2.93748
254 3 -0.803556 2.34631 5.47468 0.281238
30 4 1.0429 5.51035 2.86579 1.79814
32 4 1.26045 4.10681 5.58086 1.00292
2 2 -0.000458222 2.68952 0.489605 3.05968
103 2 0.168161 3.71434 2.2431 4.60765
104 2 0.202215 3.97852 2.50102 6.52122
130 2 0.129577 5.01151 1.48445 3.62248
33 4 1.25434 5.54086 4.64886 8.33727
325 1 -0.687022 1.51444 0.148805 8.42317
135 2 0.139093 6.83783 2.47272 3.68268
141 2 0.21697 3.28924 6.26606 9.31283
10 4 1.0169 1.85786 1.83713 11.4047
17 4 1.25094 0.0936054 4.78805 15.5514
34 4 1.36164 0.84658 6.09244 9.99096
37 4 1.17699 1.88816 6.42558 17.7786
69 2 -0.0144405 1.02393 0.940715 10.1886
18 4 1.09331 -0.693676 6.29417 12.8616
110 2 0.14433 -0.503658 2.52107 11.0383
111 2 0.194122 0.658914 3.80733 11.7268
112 2 0.189791 -0.194203 2.43548 12.8774
113 2 0.19813 1.93751 3.40483 15.2414
114 2 0.201024 0.716031 3.04046 13.784
115 2 0.205264 0.378422 2.28476 15.5528
144 2 0.238844 1.83271 5.64917 12.4385
195 1 -0.68472 0.261446 2.70727 11.8507
196 1 -0.663426 0.840151 3.17796 14.9818
230 3 -0.746624 -1.50946 4.11198 15.9936
231 3 -0.813832 -0.168945 5.77752 14.228
253 3 -0.819842 0.956855 5.56597 16.6987
326 2 0.165524 -0.280186 2.9571 17.6756
224 3 -0.784151 2.16732 0.953571 12.7743
248 3 -0.833016 0.243842 6.20033 11.5949
73 2 0.025757 -2.2935 5.66194 12.6312
239 3 -0.843335 3.55098 0.978898 14.9723
205 1 -0.652107 2.66667 5.49073 9.7883
240 3 -0.825457 5.7106 1.60307 16.4995
237 3 -0.80181 4.05344 0.678331 9.58724
238 3 -0.769341 3.03168 2.95548 10.8139
242 3 -0.843404 7.10352 0.984335 13.1435
140 2 0.221757 3.04755 5.23707 10.8059
347 2 0.198309 7.75734 1.18195 10.1655
252 3 -0.821797 6.02354 3.49403 13.569
241 3 -0.804239 5.79346 2.28904 11.0521
251 3 -0.825839 4.19149 3.51244 15.5219
24 4 1.26187 7.01806 1.78806 17.4019
26 4 1.38224 4.45568 2.26546 9.94768
28 4 1.24075 4.16045 1.98824 16.0367
29 4 1.35739 6.61973 2.46221 12.433
36 4 1.25359 5.48341 4.31866 14.8139
78 2 -0.0329161 3.15932 1.89771 17.3765
142 2 0.206632 2.52073 4.87952 13.9569
143 2 0.225877 3.18839 4.45747 12.245
206 1 -0.697581 2.77983 5.25122 12.9501
346 1 -0.633959 7.21617 0.448518 9.48969
341 2 0.168591 5.05531 5.15367 17.2121
116 2 0.14741 -3.17232 5.1941 11.1781
38 4 1.32652 4.12919 6.53518 13.2081
345 2 0.237969 6.25119 0.162256 9.97108
12 4 1.28171 -3.85356 6.87312 4.57205
21 4 0.976429 -3.76879 10.2514 7.14361
74 2 0.00355983 -4.53145 9.70174 5.67337
105 2 0.144604 -3.86957 9.1697 4.08955
106 2 0.180175 -2.88748 8.07344 2.76079
107 2 0.1465 -2.05527 8.66881 4.51057
330 2 0.180312 -3.24184 8.72625 0.433865
148 2 0.161002 -2.78084 12.2935 6.78901
193 1 -0.672108 -3.0888 8.35814 3.92611
208 1 -0.648192 -2.20468 11.2871 6.51747
228 3 -0.810055 -2.8097 6.60274 5.88596
234 3 -0.838475 -3.40054 8.99549 8.06921
235 3 -0.782955 -4.68799 11.3651 7.97551
109 2 0.200166 -3.55164 7.26353 1.59821
332 2 0.165578 -6.33257 10.9302 5.57762
333 2 0.140771 -5.52844 10.6269 3.76701
334 1 -0.662334 -6.16491 10.2154 4.66683
6 4 1.11568 -5.58486 12.1739 9.07502
149 2 0.107277 -2.45924 10.7736 5.4081
194 1 -0.670773 -2.82156 7.74128 0.827598
4 3 -0.80826 -6.42392 11.7651 0.784385
312 2 0.150363 -3.64554 10.8518 0.691664
79 2 -0.00425312 0.737124 7.26081 5.39532
1 4 0.902218 -7.20729 12.4411 2.0226
80 2 0.00610058 -0.702565 7.76003 7.06493
323 2 0.170937 -7.277 12.426 7.45854
249 3 -0.807293 3.27038 6.59198 4.9545
331 2 0.24413 -5.92049 9.11304 4.91395
322 2 0.152563 -8.17061 12.5439 9.06729
259 3 -0.790606 0.587381 11.5178 3.80686
108 2 0.0142003 -1.53372 8.59346 1.91416
87 2 -0.0172942 1.1898 8.41264 6.65987
146 2 0.159803 -1.01263 9.79404 5.89344
31 4 1.26469 1.90883 6.65658 4.21595
262 3 -0.832454 1.04926 7.43054 9.16674
86 2 -0.033696 0.139084 9.78633 8.59138
84 2 -0.00956903 0.90741 10.277 6.18553
145 2 0.0176401 -0.033968 8.73644 3.69972
150 2 0.107205 -1.52964 10.6197 7.32138
128 2 0.168212 -1.53959 12.2613 2.96087
76 2 0.00205982 -0.392872 11.964 6.83808
147 2 0.143408 -0.919563 8.06177 5.0472
207 1 -0.668786 -0.288692 8.89022 5.57204
13 4 1.04676 -0.924013 7.18636 0.944052
257 3 -0.85946 2.01209 7.73702 2.97664
40 4 0.697907 0.969627 10.0383 4.41361
42 4 0.949451 1.43754 8.7378 8.33428
129 2 0.172259 -1.31775 12.7516 1.13342
337 2 0.166301 -2.27058 12.0935 0.174037
22 4 1.05588 -3.89999 10.9218 13.3093
75 2 0.089257 -3.05901 12.2035 14.4432
88 2 -0.0073142 -2.06139 11.359 9.73083
100 2 0.264999 -5.58697 11.3065 11.5491
101 2 0.190624 -5.50548 9.89026 10.2022
126 2 0.0609809 -4.03055 9.43191 14.6268
317 2 0.0541786 -3.95641 12.2442 17.4695
191 1 -0.656943 -5.8962 11.01 10.4964
200 1 -0.645255 -3.02205 10.6074 15.1499
232 3 -0.846314 -4.53862 7.47451 10.1301
236 3 -0.849088 -5.37258 11.5224 13.3455
263 3 -0.819584 -2.25293 8.51047 10.4436
264 3 -0.87289 -2.94422 10.5453 12.1362
316 3 -0.799926 -7.76928 12.5379 15.0447
121 2 0.209355 -2.89598 7.5931 12.4677
344 2 0.0496407 -0.384711 11.9149 9.53406
310 2 0.155027 -2.56782 10.1915 17.8093
127 2 0.174896 -3.18671 10.6774 16.3295
315 3 -0.833107 -6.41819 11.0895 16.9151
71 2 0.122467 -2.24652 7.18546 18.4467
309 4 1.00939 -5.35873 11.332 18.0708
120 2 0.151394 -2.41611 7.56366 14.3487
313 1 -0.654223 -3.45866 10.6807 18.3061
198 1 -0.669027 -2.10454 7.54295 13.1945
311 2 0.0800654 -4.48995 9.49897 18.4897
20 4 1.42622 -3.20785 7.93032 9.37043
125 2 0.14528 -2.022 10.176 14.9669
27 4 1.35059 -0.632218 12.8543 13.6806
266 3 -0.853371 -0.413163 10.173 11.2794
320 2 0.0756355 1.06186 9.40891 18.5206
209 1 -0.663598 3.26344 7.26479 16.8813
336 2 0.175599 -1.78362 12.2551 16.8867
152 2 0.201283 2.95883 6.94363 15.7927
338 2 0.197407 -0.28074 12.8686 17.8392
210 1 -0.686842 1.03496 8.58407 15.1545
43 4 1.23151 -1.97295 10.1259 10.9593
151 2 0.181513 3.07928 8.38552 17.0564
44 4 1.35634 2.47313 9.16331 14.0846
265 3 -0.82354 3.30987 7.84818 13.5865
156 2 0.186153 1.4658 8.6342 16.1521
319 2 -0.00388458 -1.46647 11.3866 14.2658
119 2 0.176567 -1.22824 8.43223 12.9948
339 1 -0.667952 -1.39864 12.7566 17.8737
45 4 1.50026 0.831753 10.9413 11.8878
267 3 -0.832661 1.65072 10.0532 12.9889
154 2 0.233098 0.688088 7.58378 14.8132
155 2 0.172574 0.269889 9.35234 14.9883
153 2 0.18767 4.33269 6.76676 17.2384
268 3 -0.869425 0.291731 12.2518 12.5622
255 3 -0.804329 0.645211 7.82905 18.5794
99 2 0.133747 -7.11942 11.1529 10.4533
8 4 1.40649 -6.22771 12.9124 14.049
133 2 0.18625 7.07847 4.35421 3.35213
134 2 0.165641 8.04365 3.01701 2.402
357 2 0.285128 10.5721 1.80287 1.34079
157 2 0.185705 9.95105 3.11033 5.42379
158 2 0.175689 8.89053 3.41661 3.80652
159 2 0.195079 10.3565 4.57866 4.31527
161 2 0.16372 8.96933 4.05388 7.83447
172 2 0.158156 8.30282 5.42775 5.85095
203 1 -0.675094 7.09697 3.27451 2.93574
211 1 -0.672516 9.957 3.52596 4.33236
269 3 -0.779098 10.365 1.02971 2.81194
271 3 -0.781833 9.85797 1.35933 8.19113
359 1 -0.668752 10.695 2.38832 0.290044
204 1 -0.647151 5.89899 5.84957 4.54573
212 1 -0.662626 8.96251 3.89675 8.97031
137 2 0.170435 6.45154 5.05997 5.09276
81 2 -0.00172605 7.20216 4.2367 8.06389
366 2 0.162198 8.03876 5.38566 1.52988
50 4 1.32042 10.5082 2.5547 9.0634
369 1 -0.642463 8.89214 5.75149 2.19656
368 2 0.175022 9.32554 4.9738 2.9763
170 2 0.158908 8.85445 6.1285 4.18148
136 2 0.229154 5.28227 5.45598 3.67482
56 4 0.926711 10.2923 6.21902 0.742697
274 3 -0.800008 13.7668 1.11563 6.87852
216 1 -0.67277 8.88473 6.24064 5.41392
250 3 -0.843493 5.09563 5.56704 7.08111
273 3 -0.809198 12.4189 1.96412 4.78669
272 3 -0.842754 15.0594 2.53094 4.82705
167 2 0.186353 13.9059 3.14574 0.349867
214 1 -0.684768 14.2556 4.12058 0.917686
356 2 0.223233 11.268 3.33146 0.422344
371 3 -0.748636 12.5221 0.42321 0.209895
280 3 -0.816065 12.1477 3.41381 2.62529
89 2 0.0323183 16.2182 0.789177 3.24283
283 3 -0.865981 11.7736 3.28184 8.50289
282 3 -0.756824 11.6412 5.53284 1.02428
348 2 0.181975 14.5773 2.12372 1.54571
349 2 0.151227 15.8901 0.721335 1.60444
47 4 1.28479 11.3589 2.47983 3.66364
351 1 -0.693776 14.8037 1.03719 1.87677
350 2 0.201624 14.5576 0.849652 2.91881
284 3 -0.808553 13.4182 3.74939 6.4336
288 3 -0.83984 11.2069 5.17503 6.76408
51 4 1.56438 13.7248 2.36005 5.70593
55 4 1.231 12.8982 4.67208 2.0162
57 4 1.28163 12.3666 4.38926 7.5017
93 2 0.0756528 13.2393 5.57005 8.38072
329 2 0.186282 15.5153 1.55162 0.0729067
355 2 0.141755 16.1103 1.36373 9.30072
53 4 1.45337 9.55898 1.74834 15.7449
82 2 0.0118506 6.79781 4.26078 15.8811
162 2 0.18099 9.32893 4.79469 9.59089
163 2 0.199788 8.52536 3.38147 10.8595
164 2 0.234392 9.00561 2.27762 12.3884
165 2 0.204278 8.45016 4.11921 12.7417
173 2 0.191767 7.65362 5.27713 13.6195
213 1 -0.640156 8.30048 3.15469 12.047
278 3 -0.825385 8.45221 2.43841 16.6875
279 3 -0.813892 10.6803 2.29618 10.6506
289 3 -0.804406 10.364 2.97763 14.5145
292 3 -0.756993 7.60443 6.35273 11.1244
175 2 0.215766 9.38419 5.08469 14.3289
362 1 -0.655402 10.1704 5.86988 17.6348
277 3 -0.797966 10.8471 1.24886 16.7757
217 1 -0.676204 8.64811 5.80751 13.8964
256 3 -0.817691 5.1174 5.81002 14.358
276 3 -0.877581 8.97651 0.596381 14.9147
363 2 0.181005 10.971 5.33069 17.0752
160 2 0.155912 7.99808 3.40837 9.40725
352 2 0.156366 14.4132 2.30738 9.32393
358 2 0.202019 10.1842 2.76369 18.3402
285 3 -0.824883 5.60844 5.42686 9.67774
361 2 0.151904 9.33525 5.23869 18.0838
342 2 0.201804 6.52014 4.88244 18.4866
343 1 -0.660778 5.69395 5.5731 18.087
354 1 -0.678155 14.9931 1.30071 9.3783
118 2 0.067549 12.9909 6.02065 12.7776
60 4 0.980546 11.7718 2.93278 13.9856
91 2 -0.00548882 13.372 1.63989 10.4478
353 2 0.110333 14.6888 0.484784 10.2508
327 1 -0.680834 16.3243 2.0526 17.6456
197 1 -0.655073 13.1905 4.90461 11.758
96 2 0.000911549 12.2465 4.48718 13.4514
270 3 -0.780502 13.311 2.76164 16.9166
95 2 0.106741 12.7622 2.79807 15.4292
94 2 0.0659889 12.0027 4.73907 10.4597
290 3 -0.827288 12.3033 1.91084 12.8228
328 2 0.182309 16.7328 1.14103 17.0236
117 2 0.175484 13.3895 3.91228 12.183
275 3 -0.789253 15.2705 1.59594 15.0291
9 4 1.19211 15.1384 2.6657 16.3383
48 4 1.29482 12.1131 1.6788 17.6527
54 4 0.953827 11.9009 1.48605 11.3672
15 4 1.02376 11.9949 6.46129 11.0915
23 4 1.26518 0.700437 12.492 2.5062
41 4 1.30986 1.89597 10.2728 0.292436
46 4 1.35467 4.86922 12.4803 1.0514
62 4 1.25712 4.62413 11.0887 3.98953
85 2 0.0878834 5.44687 8.12004 6.1852
179 2 0.132993 2.97492 10.9386 5.64403
180 2 0.236341 2.74237 12.371 4.27443
49 4 1.28815 5.48232 12.8756 8.04577
219 1 -0.681706 3.41242 11.8668 5.10937
258 3 -0.856378 4.30824 7.06744 1.60158
298 3 -0.803354 2.83093 9.47084 8.55505
293 3 -0.738284 4.01409 9.29976 3.62336
294 3 -0.799207 4.42483 11.7156 2.51118
299 3 -0.776877 4.27944 11.9034 8.64923
302 3 -0.827054 6.05786 11.1251 4.82502
260 3 -0.854503 2.95105 9.34059 1.07237
39 4 1.46181 3.37611 8.23918 2.1447
261 3 -0.778783 1.24855 11.4536 1.08848
83 2 0.115251 2.6363 9.61689 4.00831
138 2 0.156809 6.52057 6.81114 4.35948
296 3 -0.838336 5.90413 11.7049 0.0959914
181 2 0.282714 3.79632 12.6352 5.88327
367 2 0.165972 8.72838 6.82273 2.64346
185 2 0.1833 8.51147 10.6528 8.37333
304 3 -0.810974 6.69404 11.9715 7.30808
169 2 0.157387 9.1941 8.53455 0.637621
215 1 -0.671587 10.2596 8.13081 0.636578
199 1 -0.653267 8.65939 8.75188 3.33678
287 3 -0.775985 11.698 7.35182 5.06682
303 3 -0.795384 6.52811 9.33141 6.87377
220 1 -0.687941 10.4086 7.87611 7.61897
221 1 -0.693051 8.20529 9.95137 9.24638
59 4 1.07986 10.6871 6.58311 6.13187
19 4 1.1053 9.21373 10.4614 4.15422
301 3 -0.800435 8.53742 10.722 5.66318
64 4 1.04673 7.147 8.73448 8.29584
66 4 1.4636 6.9495 10.8881 6.13938
98 2 -0.00860803 8.46475 7.65075 7.77903
122 2 0.176254 7.53544 8.98034 3.17191
123 2 0.155353 8.80615 7.76391 4.08718
124 2 0.17422 9.23925 8.57706 2.36285
168 2 0.186034 10.7805 8.61098 1.38031
171 2 0.134146 8.52127 7.27524 5.78322
182 2 0.161963 9.74962 8.75956 7.46101
97 2 -0.0124498 6.55323 9.12378 0.182468
184 2 0.153348 10.0351 7.19218 8.41612
35 4 1.01276 4.76672 6.54516 5.88897
183 2 0.199667 11.4518 8.20689 7.89536
370 3 -0.792507 9.15085 11.623 3.02393
67 4 1.50316 3.92537 10.9691 16.3655
188 2 0.147101 5.20556 10.8737 11.1531
190 2 0.216459 3.90113 9.60054 11.5939
222 1 -0.682097 4.52595 10.0675 10.7824
300 3 -0.794852 1.9272 11.419 10.5565
305 3 -0.823685 3.33015 10.1064 15.125
306 3 -0.836415 5.27896 10.2532 16.9446
307 3 -0.780896 4.58398 12.5519 15.6538
308 3 -0.824593 2.89193 11.0836 17.5506
189 2 0.257196 5.08697 9.3072 10.1809
65 4 1.18632 3.31901 10.7231 9.52626
340 2 0.156911 6.09719 6.61383 17.9026
92 2 0.10388 2.62157 12.6173 11.3213
52 4 0.966177 5.9499 12.865 15.0062
286 3 -0.787093 5.01026 6.93947 11.7278
90 2 -0.0414279 5.90088 12.2473 13.4454
58 4 1.48367 6.02399 6.74064 10.4961
364 2 0.143121 9.79557 6.81768 17.1408
321 2 0.103 7.19161 11.9552 15.8405
314 4 1.13948 9.70969 11.2866 15.9034
61 4 1.02138 8.75696 6.81426 12.2078
174 2 0.138596 8.45938 6.74597 14.5445
295 3 -0.751281 8.01694 11.0202 16.7897
187 2 0.154528 7.65469 10.4852 10.1212
365 2 0.146446 11.2471 8.28857 18.2094
177 2 0.159221 9.62964 9.07285 12.7083
178 2 0.147262 7.82585 8.84091 13.0735
63 4 1.19184 6.56059 10.6372 17.8092
176 2 0.177444 8.32504 9.13226 11.2114
218 1 -0.653971 8.61472 8.70471 12.2989
318 2 -0.0297753 9.95866 9.90024 14.9981
186 2 0.156288 9.08464 9.36994 9.61523
291 3 -0.762197 10.5782 6.61586 11.6179
297 3 -0.836283 6.2399 7.96086 9.37627
ITEM: TIMESTEP
200
ITEM: NUMBER OF ATOMS
371
ITEM: BOX BOUNDS xy xz yz pp pp pp
-8.9255612000000006e+00 1.7777500000000000e+01 -8.9255612000000006e+00
0.0000000000000000e+00 1.3020299999999999e+01 4.5889999999999997e-01
0.0000000000000000e+00 1.8640300000000000e+01 2.0540000000000000e-01