ITEM: TIMESTEP
0
ITEM: NUMBER OF ATOMS
371
ITEM: BOX BOUNDS xy xz yz pp pp pp
-8.8510000000000009e+00 1.7777500000000000e+01 -8.8510000000000009e+00
0.0000000000000000e+00 1.3020299999999999e+01 4.5889999999999997e-01
0.0000000000000000e+00 1.8640300000000000e+01 2.0540000000000000e-01
ITEM: ATOMS id type q x y z
3 2 -0.0233672 0.357452 0.630871 1.01762
2 2 -0.0265706 2.47349 1.21721 2.21647
345 2 0.0319144 7.40947 0.521268 8.99525
324 2 0.139321 0.969618 0.859773 8.29181
68 2 0.0415252 1.86779 1.21714 6.73712
7 4 1.0847 0.946234 2.45708 5.86232
11 4 1.27831 0.0166247 4.174 2.33706
14 4 1.29309 -0.598787 4.84374 7.43705
30 4 1.09028 5.69789 3.01889 1.50485
31 4 1.29008 1.61331 6.08035 4.02532
72 2 0.00429798 -2.00778 4.09598 7.90811
33 4 1.26264 5.53553 4.33884 8.20522
35 4 1.05395 4.1908 5.54274 5.64597
247 3 -0.818904 0.0454981 5.41423 8.70654
70 2 -0.0279181 1.02329 3.61124 1.09072
237 3 -0.818672 3.64245 0.859417 9.19877
102 2 0.143503 3.43254 1.55214 4.98176
103 2 0.202147 3.39508 3.01103 6.20954
104 2 0.158746 2.51629 3.14957 4.40117
130 2 0.155985 3.91843 2.18044 3.58971
131 2 0.151666 4.26806 1.18553 1.98142
132 2 0.155774 3.35686 2.86453 1.90104
250 3 -0.840998 4.64169 4.91098 7.04436
192 1 -0.681874 2.81849 2.39745 5.43026
202 1 -0.672303 4.15914 2.23068 2.47033
223 3 -0.813898 -0.152746 1.61827 4.92131
225 3 -0.853537 -0.936488 2.95832 2.83183
226 3 -0.829674 -0.780733 5.40923 1.74055
227 3 -0.8025 0.355776 3.62994 6.70152
229 3 -0.835913 -1.12066 6.00227 6.52657
243 3 -0.7833 6.20529 1.92284 0.416721
244 3 -0.864244 1.03046 4.80267 3.36252
245 3 -0.798272 5.05798 4.38799 0.926613
136 2 0.00923247 5.15148 5.04818 4.22408
249 3 -0.832061 2.70218 5.7064 5.16063
32 4 1.23683 4.45437 5.86345 0.576787
139 2 0.253425 2.65633 4.32364 9.31039
246 3 -0.815408 4.69945 3.26377 9.00338
254 3 -0.786214 2.62988 5.60524 0.0475778
135 2 0.113717 6.59948 3.044 3.53972
148 2 0.1541 6.24397 0.101291 7.14261
10 4 1.03475 1.76777 1.75516 11.7764
17 4 1.22396 0.0912653 4.76256 15.4314
141 2 0.213021 3.28384 6.01852 9.34783
24 4 1.28137 7.05735 1.40638 17.5564
26 4 1.46389 4.1646 2.14597 10.0839
252 3 -0.845376 6.02969 3.12186 13.5429
28 4 1.21655 4.27286 1.96223 16.2971
29 4 1.30141 6.54254 2.17533 12.3991
253 3 -0.802793 1.1135 5.61375 16.4901
36 4 1.23663 5.61643 4.04941 14.732
37 4 1.22036 2.02625 6.39473 17.6813
251 3 -0.809579 4.36674 3.50195 15.6822
248 3 -0.793733 0.361372 6.27132 11.2409
327 1 -0.681552 -0.814318 2.61625 18.4144
78 2 -0.0367004 3.61524 1.99068 17.7882
110 2 0.167719 -0.251204 2.97012 10.8759
111 2 0.179991 0.702904 3.73875 12.3726
73 2 0.0448127 -2.25812 6.19249 12.1978
113 2 0.19038 0.678614 2.95983 13.838
114 2 0.201781 0.447728 2.25315 15.6044
115 2 0.194329 1.98438 3.40428 15.2621
69 2 -0.00614752 0.480581 1.16977 10.7269
140 2 0.218746 2.72868 5.20455 10.9751
326 2 0.161853 -0.0662615 3.43524 18.4772
142 2 0.20403 2.90734 4.48656 14.0039
143 2 0.248363 2.98176 4.11463 12.2636
144 2 0.21223 2.04077 5.6972 12.7858
195 1 -0.677967 0.129089 2.75452 11.8915
196 1 -0.666872 0.875016 3.1151 14.9833
205 1 -0.643728 2.55366 5.2911 9.80718
206 1 -0.701001 2.90587 4.94572 12.9794
224 3 -0.787961 2.1004 0.826486 12.9918
230 3 -0.746439 -1.35831 4.28296 16.2198
231 3 -0.799612 -0.202389 5.64622 13.9542
18 4 1.04871 -0.481229 6.43742 12.6286
238 3 -0.824366 2.96908 2.66299 11.0496
239 3 -0.840102 3.36799 0.960464 15.4574
240 3 -0.827695 5.86342 1.45753 16.4767
241 3 -0.790934 5.42527 1.79024 11.2206
242 3 -0.775678 7.5839 0.837172 13.1618
328 2 0.153946 -0.291501 1.6512 18.1747
38 4 1.31117 4.29728 6.2374 13.0692
34 4 1.34536 0.981821 6.38222 9.668
112 2 0.14985 -0.634103 2.22174 12.5865
331 2 0.167873 -5.5231 9.58012 4.20312
201 1 -0.669204 -0.892755 12.7649 2.07602
13 4 1.04318 -0.947096 6.69596 0.800896
16 4 1.24518 -2.27471 7.16927 6.71552
20 4 1.37671 -3.23051 8.73093 9.10947
21 4 1.0619 -3.80412 10.7279 6.91133
325 1 -0.669828 -7.66118 12.5545 8.03011
40 4 0.724029 0.790616 9.47333 4.2539
42 4 0.951819 1.91464 9.12326 8.32658
74 2 -0.00814171 -4.40704 9.89031 5.46935
79 2 0.044315 0.255302 6.79043 4.85608
80 2 0.0126237 -1.46142 8.67219 6.26402
320 2 0.0512545 0.607658 8.97568 0.051285
84 2 -0.00788417 0.196099 8.69831 5.83522
86 2 -0.0191204 0.780783 10.3971 8.255
87 2 -0.0672791 2.03608 8.85081 6.74524
105 2 0.159169 -5.39431 9.0156 2.64845
106 2 0.174112 -3.76468 8.01934 1.95508
107 2 0.122718 -3.6442 9.12428 3.55678
108 2 0.0184812 -1.67761 8.01445 1.66015
262 3 -0.806017 1.26473 7.8193 9.04866
323 2 0.219643 -7.60084 12.3738 6.98913
370 3 -0.796529 -7.77909 11.7569 2.85991
145 2 0.0486911 -0.0147804 8.41313 2.88275
146 2 0.145211 -1.56786 9.24462 4.42628
147 2 0.208817 -1.36658 7.34807 4.41851
12 4 1.27746 -4.46271 7.1206 4.30336
149 2 0.131836 -2.81232 12.3408 5.36563
150 2 0.151014 -1.48187 11.4334 6.49289
193 1 -0.651111 -4.39995 8.50712 2.90686
194 1 -0.658827 -2.80253 7.14649 0.409082
334 1 -0.644805 -6.24392 10.1849 4.98128
207 1 -0.665867 -0.824312 8.36662 4.4349
208 1 -0.662265 -2.5225 11.9966 6.40946
228 3 -0.852115 -3.26936 7.23256 5.52028
233 3 -0.826452 -2.87911 7.13876 8.21957
234 3 -0.885091 -3.13574 9.75342 7.94614
235 3 -0.773849 -4.99611 11.4231 7.58412
312 2 0.0649675 -5.2051 9.18853 0.601068
257 3 -0.889926 2.11077 7.22924 3.03805
259 3 -0.764077 0.456171 10.987 4.06731
333 2 0.153953 -5.88599 11.2745 5.22878
344 2 0.153939 -0.734985 11.113 8.49712
4 3 -0.839126 -6.38625 11.8343 0.627417
1 4 0.927991 -7.17812 12.6213 1.68386
129 2 0.191136 -1.20912 12.5585 1.00066
346 1 -0.63961 -0.17807 12.0987 8.6847
6 4 1.09958 -5.84046 12.2653 8.85273
128 2 0.154662 -1.48554 12.1757 2.88892
109 2 0.19527 -3.44968 6.49336 1.05484
330 2 0.175347 -3.35975 8.12642 0.0676383
83 2 0.084757 2.50729 9.08004 4.28436
88 2 0.0245231 -1.75107 11.7787 9.82837
22 4 1.03372 -3.72947 10.9949 13.6495
121 2 0.234692 -2.56057 8.45406 12.4081
43 4 1.25191 -1.83165 10.5354 10.9902
44 4 1.27743 2.48724 9.11173 13.9145
45 4 1.48238 1.30831 11.1137 11.8666
75 2 0.109459 -2.51134 11.7976 15.0306
311 2 0.143651 -3.654 9.27858 17.2455
99 2 0.270124 -5.36107 10.2373 10.205
27 4 1.28442 -0.151749 12.742 13.9013
101 2 0.228372 -5.53134 11.791 11.3766
119 2 0.139957 -0.61048 8.49166 12.8201
120 2 0.164783 -2.13039 7.7349 14.0649
125 2 0.157445 -1.61847 9.86977 15.0848
126 2 0.0381634 -3.77339 9.30559 14.2867
267 3 -0.839128 1.90035 9.80727 12.6293
8 4 1.42237 -6.21562 12.7528 14.4293
127 2 0.169411 -3.05328 10.2174 16.2379
154 2 0.217838 0.869961 7.45199 15.0269
155 2 0.163981 0.154168 9.02674 14.2494
156 2 0.168461 1.1417 9.14228 15.8406
191 1 -0.670785 -5.88566 11.2613 10.4394
198 1 -0.663109 -1.86329 7.83214 12.9889
200 1 -0.676392 -2.55831 10.4425 15.183
209 1 -0.653684 3.22549 7.37171 16.7407
210 1 -0.691504 0.980887 8.56985 14.8334
232 3 -0.817923 -4.78068 8.58469 9.86086
236 3 -0.844807 -5.19919 11.5694 13.9326
152 2 0.221247 2.90902 7.10946 15.6941
263 3 -0.809968 -2.12222 9.12543 10.3478
264 3 -0.804141 -2.93755 10.8072 12.1875
266 3 -0.81494 -0.307507 10.743 11.4245
339 1 -0.669482 -1.33387 12.2902 17.7253
315 3 -0.837914 -6.5311 10.4314 17.0898
316 3 -0.804812 -7.63683 12.0251 15.1991
319 2 -0.00333138 -0.953967 11.3648 14.5582
313 1 -0.656022 -3.71313 10.0725 18.0863
116 2 0.181725 -3.76913 7.33384 12.4371
336 2 0.181681 -1.57616 11.5884 16.8735
265 3 -0.758121 3.48912 7.53034 13.4932
338 2 0.180108 -0.238881 12.2407 17.9699
317 2 0.0676733 -3.9929 11.5985 17.2973
310 2 0.160822 -2.75283 10.2375 18.5855
347 2 0.259049 0.663224 12.017 9.54942
100 2 0.144503 -7.08729 11.1188 10.4884
309 4 1.02432 -5.5255 10.9278 18.2028
151 2 0.191291 2.87622 8.45274 17.0814
337 2 0.146803 -2.04553 12.1658 18.5783
255 3 -0.802465 0.766535 7.47876 18.6307
71 2 0.127586 -1.94077 6.6608 17.8342
25 4 0.70252 8.92678 1.0589 8.00621
47 4 1.26932 10.9328 1.86955 4.28168
161 2 0.179637 9.99856 5.70608 8.74746
51 4 1.4965 13.5061 2.30501 5.82083
55 4 1.3168 12.1352 4.49886 2.64277
357 2 0.221035 11.0524 2.06351 1.55636
57 4 1.25846 12.346 4.67564 7.44643
170 2 0.168691 8.44113 6.02125 4.52423
350 2 0.146811 15.9798 1.02319 1.57715
358 2 0.190921 10.0122 0.923236 0.465976
93 2 0.0698669 13.3398 5.8963 8.12457
284 3 -0.774582 13.0965 3.83794 6.2116
133 2 0.168284 7.56925 4.56975 2.8206
134 2 0.160713 8.22487 2.8263 2.53904
56 4 0.909961 10.253 5.87878 0.327001
216 1 -0.670376 8.70561 6.07833 5.60885
89 2 0.00984572 15.4932 0.456096 3.1756
157 2 0.163161 8.72205 1.04053 5.0343
158 2 0.174929 8.41584 2.64111 4.09769
159 2 0.148438 9.40078 2.67511 5.8253
366 2 0.194998 8.215 4.28441 0.938368
166 2 0.237063 13.3003 3.25496 0.708351
167 2 0.200576 13.5024 2.52243 2.41425
356 2 0.190592 9.90626 3.05639 0.333877
172 2 0.168705 8.69518 5.02994 6.03427
203 1 -0.653546 7.32773 3.52074 2.67763
288 3 -0.827135 11.0993 5.45039 6.79329
211 1 -0.67655 9.12068 2.04896 4.86945
81 2 -0.0503568 6.85889 3.54673 7.5637
214 1 -0.674634 13.5399 3.49217 1.80782
359 1 -0.650038 10.6231 1.99548 0.500616
269 3 -0.799681 10.6129 0.421057 3.16005
271 3 -0.800438 9.89652 2.14428 8.86083
272 3 -0.841135 14.6538 2.38018 4.64672
273 3 -0.797348 12.0727 1.45403 5.38116
274 3 -0.805263 14.1545 1.53262 7.21476
280 3 -0.797522 11.4422 3.17376 3.4914
281 3 -0.754657 12.9214 5.68029 3.45581
282 3 -0.77157 11.1687 5.21714 1.46656
283 3 -0.816048 11.9263 3.82224 8.7013
77 2 -0.0250351 8.15096 1.75825 6.54645
371 3 -0.781819 13.0653 0.323239 0.23741
5 4 1.31982 15.945 1.92318 3.95965
360 2 0.248906 14.4614 4.09616 1.93549
329 2 0.18266 15.2328 2.2822 0.640439
285 3 -0.836632 6.2143 5.28445 9.27915
355 2 0.178775 16.6755 0.212342 8.94361
335 2 0.182228 8.08697 1.03569 2.3033
9 4 1.17738 15.3993 2.82261 16.9578
48 4 1.22086 12.4445 1.60234 18.0882
368 2 0.157999 8.46866 5.43095 17.9281
53 4 1.38786 9.85874 1.71868 16.1376
54 4 0.993383 11.8228 2.30769 12.2065
60 4 0.956769 11.6275 3.65356 14.9554
82 2 0.005533 6.98697 4.22962 15.7261
212 1 -0.662323 9.64008 4.99764 9.5446
91 2 -0.0260006 13.379 2.01173 11.6432
94 2 -0.00440029 11.1718 6.20696 9.74845
95 2 0.102233 12.777 3.35875 16.2506
96 2 -0.0282311 11.8084 5.34389 14.8154
361 2 0.195551 12.6284 5.45147 17.4918
117 2 0.133291 12.4355 5.76013 11.937
256 3 -0.787819 5.32052 5.67002 14.1891
50 4 1.3459 10.6405 3.27018 9.59998
162 2 0.184669 9.72711 5.43224 10.6319
163 2 0.18449 8.58387 3.53185 12.3045
164 2 0.216691 7.29854 3.89942 10.9392
165 2 0.189953 8.47724 2.41279 10.8141
276 3 -0.840836 9.3193 0.596465 15.1815
92 2 0.0796725 11.1361 0.809877 12.4515
213 1 -0.681699 7.87357 3.11037 11.4671
367 2 0.23264 9.38228 3.89544 17.9039
270 3 -0.753434 13.5726 3.08839 17.5924
275 3 -0.833579 15.5594 1.45263 16.0636
352 2 0.152961 15.5146 1.51568 9.56405
277 3 -0.757134 11.4613 1.1809 16.8418
278 3 -0.778339 8.58003 1.94615 17.2517
279 3 -0.850256 11.0909 3.03145 11.0979
174 2 0.1607 10.1358 6.39482 13.4664
289 3 -0.791759 10.1603 3.3749 15.5223
290 3 -0.831667 12.0787 2.9982 13.6119
175 2 0.191443 8.37919 5.65389 13.3601
341 2 0.161597 6.31785 5.68898 17.3935
364 2 0.144089 11.0776 5.85789 16.4431
369 1 -0.656412 9.1372 4.7797 18.5466
354 1 -0.666614 15.6402 0.399129 9.35982
362 1 -0.649663 11.6949 6.12391 17.3697
286 3 -0.770704 4.98999 6.43005 11.37
160 2 0.188018 8.62418 4.54896 9.36773
19 4 1.115 9.3246 10.6871 4.15161
23 4 1.24476 0.822871 12.1283 2.58144
299 3 -0.790394 4.24777 12.1345 8.57959
46 4 1.33607 5.24351 11.9558 0.994298
215 1 -0.679351 9.51105 7.70614 0.655374
186 2 0.133392 9.06378 10.0745 9.24708
62 4 1.32451 4.62902 10.5042 3.93029
64 4 1.08892 7.28423 8.84019 8.45479
66 4 1.49734 6.88785 10.6088 5.98045
138 2 0.212743 5.38231 6.79845 3.90099
85 2 0.203784 5.12389 7.62539 5.7054
98 2 0.00180495 8.7091 7.83046 8.30132
122 2 0.177191 9.33666 8.3403 3.30302
123 2 0.187494 8.37559 9.65955 2.22953
124 2 0.200817 7.58074 8.86231 3.70461
260 3 -0.857753 2.91732 9.08074 1.19869
59 4 1.12335 10.4682 6.76644 6.15884
168 2 0.156506 8.50187 7.3861 1.01598
171 2 0.136367 8.18243 6.92964 6.19409
179 2 0.151064 2.60198 10.7761 5.48938
180 2 0.282445 2.79222 12.1598 4.21523
181 2 0.207926 4.08134 11.962 5.66822
182 2 0.143178 9.72284 9.06848 7.12722
365 2 0.177023 10.1815 8.10782 1.43032
184 2 0.181057 10.4083 8.19529 8.65511
41 4 1.27377 1.93773 10.0216 0.411462
199 1 -0.661821 8.56277 9.18636 3.24643
351 1 -0.69288 6.97565 12.6807 1.28751
219 1 -0.671716 3.27601 11.4365 4.9578
220 1 -0.702571 10.4769 8.2969 7.53955
322 2 0.156446 9.06181 11.7503 8.67344
204 1 -0.655122 5.59993 6.72205 5.0127
298 3 -0.750095 3.29323 9.50403 8.97071
287 3 -0.799097 11.3019 7.246 4.93993
293 3 -0.777266 4.00188 8.93902 3.79257
294 3 -0.795573 4.81479 11.325 2.45017
183 2 0.180034 11.5619 8.60189 7.31663
49 4 1.3409 5.54022 12.8808 7.92574
349 2 0.196418 7.3293 11.9841 2.12855
301 3 -0.808924 8.37508 10.9916 5.41566
302 3 -0.879324 5.9191 10.5279 4.78963
303 3 -0.815076 6.85689 9.21562 7.06358
304 3 -0.798076 6.39967 11.7938 7.11479
258 3 -0.843817 4.53384 7.07926 1.62343
76 2 0.0457219 0.92817 12.3949 7.28539
348 2 0.162129 7.48272 12.4547 0.275972
261 3 -0.840612 1.41136 11.1594 1.45263
39 4 1.47197 3.34915 7.99428 2.21211
137 2 0.177248 6.76532 6.52239 5.2505
332 2 0.187367 10.8064 9.54022 5.92796
342 2 0.151962 6.58126 6.66641 0.0369062
296 3 -0.836452 5.71568 10.747 0.0215709
15 4 0.988451 11.6031 7.58431 10.7585
58 4 1.53747 6.2003 6.54232 10.3354
61 4 1.04097 8.52756 7.58576 12.0682
63 4 1.23055 6.64443 9.95284 17.5561
292 3 -0.791602 7.60078 6.57781 11.1717
67 4 1.44255 4.22484 10.8493 16.2088
97 2 0.0173132 6.873 8.50102 18.4259
52 4 0.998728 6.33743 12.8545 15.5384
353 2 0.134234 6.63201 12.5397 10.2884
321 2 0.092005 7.46923 11.7316 16.0292
176 2 0.148126 8.3916 10.0512 12.5502
177 2 0.179345 7.27154 9.06359 13.7176
178 2 0.172928 6.61822 9.49298 11.9865
340 2 0.173196 6.22434 7.487 17.021
187 2 0.173656 7.82953 9.91476 10.7902
188 2 0.225844 5.41571 9.68764 10.6505
189 2 0.1769 4.5552 10.665 11.9372
190 2 0.137894 5.9663 11.5202 10.9588
268 3 -0.842548 1.03909 12.2963 12.8765
218 1 -0.66931 7.5592 9.24833 12.6727
222 1 -0.679529 5.06039 10.7212 10.9385
314 4 1.14291 9.72365 10.6176 15.9482
343 1 -0.671221 6.17376 6.71269 17.8682
118 2 0.159588 11.8862 7.11708 13.1845
197 1 -0.673042 12.4747 6.95535 12.2707
291 3 -0.741996 10.0711 8.09136 11.1756
90 2 -0.027512 6.78347 12.8754 13.9188
295 3 -0.802248 8.04706 10.321 16.6877
173 2 0.139029 8.77894 7.20674 14.4795
300 3 -0.799459 2.14684 11.6586 10.5274
305 3 -0.771674 3.25334 10.1157 15.0266
306 3 -0.807279 5.47171 9.78115 16.4696
307 3 -0.805255 4.8621 12.2971 15.6223
308 3 -0.760496 3.0823 10.6959 17.6401
318 2 -0.0244564 10.1051 9.52101 14.778
65 4 1.21375 3.69961 11.0301 9.68533
363 2 0.138332 11.9488 7.32062 17.505
153 2 0.207521 4.38363 7.12088 17.0614
221 1 -0.663944 7.95053 10.2519 9.61879
297 3 -0.79118 6.29965 7.88664 9.46858
185 2 0.188156 7.46494 11.2999 9.39705
169 2 0.17658 9.91966 8.44058 18.3135
217 1 -0.67122 9.06535 6.58061 13.5463
ITEM: TIMESTEP
100
ITEM: NUMBER OF ATOMS
371
ITEM: BOX BOUNDS xy xz yz pp pp pp
-8.8510000000000009e+00 1.7777500000000000e+01 -8.8510000000000009e+00
0.0000000000000000e+00 1.2985662800000000e+01 4.5889999999999997e-01
0.0000000000000000e+00 1.8640300000000000e+01 1.7076280000000033e-01
ITEM: ATOMS id type q x y z
3 2 -0.01151 0.295718 0.612129 1.30066
2 2 -0.0243363 2.60827 1.11466 2.16164
345 2 0.0329669 7.32865 0.370577 8.99021
324 2 0.12736 0.905188 0.770325 8.36887
68 2 0.0236139 1.91392 1.2765 6.96178
7 4 1.10784 0.870174 2.48818 6.09511
11 4 1.26474 0.109807 4.1932 2.26581
14 4 1.24907 -0.708167 4.81935 7.46006
30 4 1.10843 5.71091 2.95182 1.59511
31 4 1.28312 1.65597 6.07287 4.01384
72 2 0.00687487 -2.02659 3.97725 8.11462
33 4 1.28393 5.56984 4.26897 8.26085
35 4 1.05119 4.24635 5.50439 5.61877
247 3 -0.801312 0.104987 5.48286 8.69091
70 2 -0.0155 1.23163 3.48192 1.20822
360 2 0.232499 -2.88825 4.39389 1.83509
102 2 0.162091 2.77971 1.48703 4.77993
103 2 0.169817 3.36237 2.37975 6.32477
104 2 0.194326 2.5931 3.46955 4.93396
130 2 0.143161 4.31738 2.55465 3.71045
131 2 0.150574 4.29703 1.01677 2.54756
132 2 0.15572 3.35282 2.61414 2.05747
250 3 -0.823119 4.81863 4.87217 6.97837
192 1 -0.690553 2.66552 2.40502 5.46235
202 1 -0.658769 4.2357 2.14422 2.60096
223 3 -0.829144 -0.134367 1.78009 5.01112
225 3 -0.831908 -0.77899 2.88077 2.7515
226 3 -0.852522 -0.726184 5.23771 1.42136
227 3 -0.808418 0.437671 3.67874 6.93513
229 3 -0.803183 -1.25087 5.86192 6.37255
243 3 -0.791401 6.02231 1.91118 0.456116
244 3 -0.859992 0.984045 4.79282 3.47338
245 3 -0.788349 5.15033 4.42473 1.2352
136 2 0.0107297 5.2771 4.91208 4.32289
249 3 -0.839711 2.75854 5.90418 5.18617
32 4 1.22752 4.56952 5.81686 0.607787
148 2 0.156915 5.66127 0.192207 6.80503
246 3 -0.854693 4.70951 3.25727 9.06306
109 2 0.179761 -3.28034 6.35222 0.823792
139 2 0.246333 2.41239 4.48336 9.29514
10 4 1.07883 1.8868 1.77296 11.8688
17 4 1.1848 0.143991 4.83936 15.4892
112 2 0.156867 -0.674334 2.02304 12.652
24 4 1.29027 7.06737 1.40977 17.5826
26 4 1.44432 4.27109 2.25725 10.1766
252 3 -0.780886 6.04561 3.12781 13.5768
28 4 1.24942 4.39124 1.8774 16.1899
29 4 1.29715 6.58727 2.15506 12.3573
253 3 -0.782281 1.33455 5.40439 16.622
36 4 1.22439 5.5681 4.1943 14.749
37 4 1.22089 2.18763 6.40506 17.6339
251 3 -0.788557 4.24868 3.36833 15.4607
248 3 -0.809214 0.179823 6.29912 11.2196
327 1 -0.673327 -0.82171 2.63284 18.294
78 2 -0.023324 3.66025 2.05485 17.7071
110 2 0.154521 -0.409172 2.43837 10.8497
111 2 0.16563 0.540004 3.59423 12.1762
73 2 0.0397517 -2.3203 6.08015 12.3262
113 2 0.179227 0.516359 2.93903 13.7988
114 2 0.17373 0.408801 2.57081 15.7852
115 2 0.226589 2.04393 3.37548 14.9754
69 2 0.013472 0.808469 1.06816 10.6421
140 2 0.228286 2.75719 5.31312 11.0241
34 4 1.36806 0.900268 6.35629 9.75697
142 2 0.215655 3.03742 4.74661 14.0425
143 2 0.26017 2.88224 4.23135 12.2488
144 2 0.186879 2.01455 5.90445 12.9923
195 1 -0.66044 0.0637643 2.41465 11.8876
196 1 -0.637446 0.899451 3.27498 14.9233
205 1 -0.636653 2.58903 5.4297 9.87548
206 1 -0.672715 2.93805 5.18145 12.9946
224 3 -0.80309 2.08418 0.751383 13.0179
230 3 -0.748089 -1.32035 4.2279 16.202
231 3 -0.791229 -0.218197 5.71454 13.9235
18 4 1.05925 -0.642145 6.46268 12.6146
238 3 -0.809601 2.76971 2.90161 11.1748
239 3 -0.834811 3.42824 0.872192 15.4041
240 3 -0.8588 5.86759 1.42153 16.4968
241 3 -0.835171 5.50848 1.84475 11.1189
242 3 -0.809901 7.51988 0.810358 13.0289
328 2 0.148072 -0.422733 1.55177 17.997
38 4 1.30027 4.27173 6.50832 13.018
326 2 0.206281 -0.118804 3.45836 18.3904
254 3 -0.780946 3.33442 5.69747 18.515
237 3 -0.819672 3.6078 0.911082 9.44271
141 2 0.216605 3.29252 6.14568 9.3289
331 2 0.187809 -5.46346 9.47081 4.17691
201 1 -0.640563 -0.762984 12.7666 2.17353
13 4 1.06814 -0.793524 6.67999 0.797583
16 4 1.19659 -2.26195 7.18197 6.68533
20 4 1.30733 -3.20738 8.65363 9.09135
21 4 1.05017 -3.8403 10.7441 7.0856
325 1 -0.660528 -7.70397 12.5244 7.97713
40 4 0.702347 0.865294 9.51476 4.28931
42 4 0.937253 1.85424 9.09317 8.37849
74 2 -0.0107158 -4.30948 9.98279 5.58183
79 2 0.0151689 0.367162 7.00252 4.72151
80 2 0.00625205 -1.35961 8.65721 6.37905
83 2 0.0577372 2.50651 8.99691 4.62679
84 2 -0.00159422 0.283915 8.52336 5.87479
86 2 -0.0296072 0.712017 10.3306 8.03969
87 2 -0.0454538 2.25854 8.6776 6.83404
105 2 0.156118 -5.07935 8.74464 2.69761
106 2 0.187075 -3.50286 7.83824 1.98765
107 2 0.149974 -3.42751 9.06725 3.40797
108 2 0.00949525 -1.52482 7.93165 1.74143
262 3 -0.799897 1.2267 7.80965 9.13399
323 2 0.205215 -7.58256 12.3635 6.78842
370 3 -0.794826 -7.54466 11.7485 3.05247
145 2 0.0183724 0.225772 8.5158 2.92287
146 2 0.150366 -1.51746 9.47843 4.46633
147 2 0.177148 -1.28247 7.63445 4.22487
12 4 1.29141 -4.45199 6.99227 4.30127
149 2 0.134622 -2.52617 11.9693 5.30056
150 2 0.168421 -1.70907 11.9125 6.99927
193 1 -0.667139 -4.04881 8.29756 2.94953
194 1 -0.656935 -2.62826 7.16166 0.339585
334 1 -0.647534 -6.12593 10.0618 4.83264
207 1 -0.671518 -0.796471 8.58247 4.51037
208 1 -0.680791 -2.67659 12.0523 6.43105
228 3 -0.841592 -3.45434 7.22661 5.57999
233 3 -0.829636 -2.79865 7.11411 8.18374
234 3 -0.897924 -3.04107 9.87644 8.07276
235 3 -0.808497 -5.10797 11.5395 7.73661
312 2 0.0785143 -5.17694 8.99227 0.407407
257 3 -0.893777 2.12906 6.99324 2.82741
259 3 -0.773616 0.612095 11.0835 4.15798
333 2 0.160639 -5.72748 11.0664 5.03615
344 2 0.161272 -0.720658 10.9195 8.59703
4 3 -0.821956 -6.61214 11.6225 0.6638
1 4 0.926325 -7.18706 12.5709 1.75824
129 2 0.185041 -1.12349 12.5981 1.02644
346 1 -0.653116 -0.266661 11.9043 8.65962
6 4 1.13009 -5.88272 12.3703 8.77067
128 2 0.153549 -1.44578 12.3285 3.00005
337 2 0.141073 -2.52332 12.0619 0.161901
310 2 0.15897 -3.46304 10.4143 0.342974
330 2 0.177017 -3.23079 8.16737 0.13454
88 2 0.0240932 -1.97906 11.5243 9.50542
22 4 1.02169 -3.68342 11.0891 13.6174
121 2 0.220949 -2.81161 8.38281 12.5277
43 4 1.19781 -1.89492 10.5069 10.9031
44 4 1.36286 2.58991 9.29836 13.8885
45 4 1.43047 1.11812 11.0049 11.8486
75 2 0.0891866 -2.66588 12.2714 14.8024
311 2 0.157961 -3.20314 9.4973 17.5032
99 2 0.269073 -5.61909 10.0349 10.083
27 4 1.30098 -0.181199 12.8515 13.8168
101 2 0.219604 -5.25813 11.7714 10.8817
119 2 0.155045 -0.859133 8.63862 12.8623
120 2 0.148075 -2.08969 7.62638 14.1443
125 2 0.147358 -1.6967 10.0612 14.9787
126 2 0.0562384 -3.68246 9.36344 14.4248
267 3 -0.870554 2.0324 9.98129 12.5569
8 4 1.44174 -6.32852 12.6844 14.401
127 2 0.158929 -2.93672 10.5129 16.4399
154 2 0.188231 1.06442 7.5175 14.8455
155 2 0.134727 0.233586 9.14535 14.3434
156 2 0.175741 1.17172 9.00908 15.9686
191 1 -0.654505 -5.9772 11.1255 10.2243
198 1 -0.652852 -1.91807 7.81588 13.0096
200 1 -0.651296 -2.64126 10.5921 15.2171
209 1 -0.657837 3.17988 7.53116 16.6088
210 1 -0.684007 1.10639 8.6508 14.9379
232 3 -0.783596 -4.9069 8.35591 9.84558
236 3 -0.783694 -5.30006 11.4314 13.8151
152 2 0.202692 2.91645 7.02513 15.5537
263 3 -0.759401 -2.22258 8.91405 10.4755
264 3 -0.787166 -2.9521 10.9469 12.1362
266 3 -0.865248 -0.390732 10.5779 11.4818
339 1 -0.658924 -1.3915 12.3239 17.8422
315 3 -0.799317 -6.53634 10.5262 16.9302
316 3 -0.817074 -7.70621 11.9858 14.9514
319 2 -0.00843462 -1.0427 11.4923 14.4098
313 1 -0.660994 -3.71478 10.1123 18.276
116 2 0.174791 -3.79153 7.23196 12.6121
336 2 0.178921 -1.7755 11.7043 16.9154
265 3 -0.788597 3.58766 7.88346 13.5268
338 2 0.191953 -0.295365 12.1159 18.076
317 2 0.0465942 -4.10242 11.7422 17.4731
347 2 0.250955 0.635961 11.9108 9.44291
255 3 -0.80599 0.832392 7.44269 18.5104
100 2 0.165255 -7.04846 11.1565 10.4633
309 4 0.996395 -5.53929 10.9044 18.187
151 2 0.183039 2.82647 8.62983 16.8194
320 2 0.0720454 1.5954 8.9569 18.6028
71 2 0.146423 -1.89556 6.82592 17.811
25 4 0.672054 8.74776 0.929865 7.9487
47 4 1.31987 11.0104 1.88156 4.21708
161 2 0.163857 9.41598 5.86272 9.19477
51 4 1.5239 13.6093 2.2171 5.92405
55 4 1.30178 12.2146 4.48236 2.63359
357 2 0.209972 11.508 2.18098 1.69102
57 4 1.25928 12.3493 4.685 7.43683
170 2 0.17313 8.26985 6.31303 4.56473
350 2 0.156659 15.9224 1.02029 1.71807
358 2 0.223557 10.0152 1.30783 0.824953
93 2 0.0796694 13.3137 5.96804 7.86748
284 3 -0.781068 13.2625 3.73873 6.46572
133 2 0.172512 7.45229 4.45391 2.80011
134 2 0.176919 8.19599 2.88266 2.01385
56 4 0.919547 10.3088 5.84446 0.199993
216 1 -0.670475 8.52925 6.28409 5.65931
89 2 0.0209818 15.7372 0.443885 3.39906
157 2 0.158296 9.07176 1.04255 5.07194
158 2 0.192723 8.56648 2.68656 4.19462
159 2 0.181741 9.28209 2.79097 5.95804
366 2 0.189323 8.4386 4.09258 0.966045
166 2 0.245587 13.2784 3.38731 0.545948
167 2 0.178448 13.691 2.7185 2.3365
356 2 0.191171 10.1508 3.10999 0.506652
172 2 0.157451 8.17732 5.37169 6.24796
203 1 -0.666226 7.43129 3.31156 2.64092
288 3 -0.817389 10.9541 5.33549 6.84165
211 1 -0.642221 9.25767 2.1791 5.01573
81 2 -0.0557149 6.89331 3.38605 7.58235
214 1 -0.692769 13.5549 3.63936 1.65839
359 1 -0.643103 10.7991 2.06323 0.745496
269 3 -0.802582 10.6952 0.700681 3.23486
271 3 -0.719114 9.72595 2.07366 8.77456
272 3 -0.860631 14.6053 2.36539 4.66159
273 3 -0.796033 12.0851 1.55422 5.35929
274 3 -0.834421 14.089 1.41752 7.26105
280 3 -0.761316 11.2453 3.47934 3.50833
281 3 -0.792998 12.988 5.58885 3.49005
282 3 -0.73733 11.1963 5.19837 1.31637
283 3 -0.812859 12.1201 3.87617 8.7686
77 2 -0.0264061 8.0466 1.57485 6.47485
371 3 -0.777235 12.9723 0.279565 0.352246
5 4 1.29363 16.0144 1.98794 4.00779
335 2 0.169019 8.40391 1.12078 2.36945
329 2 0.190479 15.2896 2.46456 0.502798
285 3 -0.861109 6.11176 5.4335 9.13716
355 2 0.16311 16.717 0.127382 8.93407
160 2 0.158572 8.69852 4.14945 9.0821
135 2 0.131746 6.99909 2.69094 3.50878
9 4 1.17235 15.2802 2.82677 16.8863
48 4 1.22077 12.4177 1.57915 18.1849
368 2 0.149898 8.49746 5.42143 18.1323
53 4 1.42393 9.85324 1.72554 16.132
54 4 0.997514 11.8374 2.27872 12.1759
60 4 0.961791 11.5983 3.62187 14.8764
82 2 -0.00793363 6.81756 4.34774 15.8928
212 1 -0.66206 9.50685 4.84159 9.66621
91 2 -0.029432 13.3948 1.79724 11.7108
94 2 0.00811538 11.0295 6.03193 9.84033
95 2 0.084832 12.7425 3.49073 16.1479
96 2 -0.0308626 11.5678 5.30583 14.6855
361 2 0.192957 12.7063 5.66878 17.3311
117 2 0.137193 12.5843 5.6353 11.7944
256 3 -0.790483 5.24316 5.61278 14.1753
50 4 1.28024 10.7799 3.36321 9.60342
162 2 0.199202 9.29482 4.95084 10.7638
163 2 0.187935 8.65805 3.43285 12.3939
164 2 0.214125 7.40204 4.26624 11.2932
165 2 0.183792 8.22792 2.70868 10.6571
276 3 -0.834669 9.20638 0.734944 15.0944
92 2 0.125649 11.1154 0.753961 12.4387
213 1 -0.67872 7.88037 3.28889 11.5808
367 2 0.201245 9.66011 4.00063 17.8358
270 3 -0.76448 13.476 3.09772 17.5194
275 3 -0.835119 15.2875 1.41558 16.052
352 2 0.157699 15.352 1.37995 9.64877
277 3 -0.763082 11.1662 1.08693 17.1955
278 3 -0.771832 8.48291 2.01346 17.2357
279 3 -0.849751 11.1434 3.07113 11.0495
217 1 -0.662469 8.9271 6.38848 13.6916
289 3 -0.828092 10.1892 3.16864 15.4
290 3 -0.837839 12.101 2.96948 13.5671
175 2 0.190334 8.64937 5.43216 13.2731
341 2 0.147584 5.79235 5.67169 17.0486
364 2 0.134656 11.1612 5.82033 16.3284
369 1 -0.65375 9.29071 4.77426 18.5987
354 1 -0.685427 15.6489 0.314835 9.4474
362 1 -0.673753 11.7993 6.25523 17.1246
286 3 -0.739849 5.04814 6.42533 11.5119
174 2 0.147994 10.0125 6.55753 13.8558
342 2 0.140573 7.03617 6.58493 18.1209
19 4 1.13738 9.37186 10.6021 4.1188
23 4 1.10651 0.862082 12.0574 2.66132
299 3 -0.777852 4.2237 12.0997 8.65172
46 4 1.34602 5.2685 11.9709 0.937332
215 1 -0.667236 9.70491 7.55073 0.895949
186 2 0.132714 9.12823 10.0373 9.19415
62 4 1.30753 4.61997 10.4766 3.90835
64 4 1.08398 7.35044 8.75067 8.42745
66 4 1.5068 6.91339 10.7534 6.08467
138 2 0.237395 5.34958 6.8175 3.73089
85 2 0.219904 4.87826 7.67176 5.4478
98 2 -0.0229376 8.70195 7.64911 8.14497
122 2 0.185324 9.1898 8.29607 3.38105
123 2 0.178906 8.39178 9.49388 2.13699
124 2 0.209395 7.37566 9.05785 3.76835
260 3 -0.88285 3.00544 9.00646 1.29259
59 4 1.08846 10.354 6.66452 6.07491
168 2 0.172086 8.65303 7.45514 1.27871
171 2 0.140404 8.16768 7.29962 6.18289
179 2 0.16919 2.70743 11.1167 5.66669
180 2 0.254708 3.0447 12.263 4.28254
181 2 0.225838 4.28518 12.0159 5.60443
182 2 0.161677 9.71677 9.08584 7.14955
365 2 0.187046 10.4709 7.75517 1.67848
184 2 0.170462 10.3928 8.0709 8.47737
41 4 1.34256 2.16429 9.97182 0.415902
199 1 -0.656095 8.45832 9.16581 3.22663
351 1 -0.686025 6.95816 12.6415 1.52232
219 1 -0.679644 3.4975 11.5292 4.98309
220 1 -0.695336 10.4216 8.2722 7.39835
322 2 0.164493 8.96972 11.6448 8.50282
204 1 -0.657419 5.46633 6.76808 4.86413
298 3 -0.78358 3.163 9.73286 9.0823
287 3 -0.775274 11.1961 7.273 4.81382
293 3 -0.808017 3.96147 8.9923 3.91709
294 3 -0.789802 4.82336 11.3501 2.38869
332 2 0.185273 10.8944 9.42687 5.81595
49 4 1.36252 5.60948 12.8472 7.9056
349 2 0.187934 7.22851 11.9386 2.40126
301 3 -0.793344 8.47359 10.9831 5.39455
302 3 -0.834726 5.90912 10.4588 4.84588
303 3 -0.825062 7.00302 9.40759 7.11542
304 3 -0.869484 6.39337 12.0362 6.85553
258 3 -0.821357 4.64352 6.96195 1.80618
76 2 0.0366464 0.699634 12.3423 7.13203
348 2 0.159968 7.5395 12.2868 0.528331
261 3 -0.808029 1.36445 10.9739 1.16349
39 4 1.42078 3.40452 7.90621 2.36727
183 2 0.168438 11.4872 8.61058 7.11458
137 2 0.18392 6.59867 6.63082 5.17344
169 2 0.153726 9.83823 8.28229 0.0268625
15 4 1.01725 11.5371 7.38621 10.8152
58 4 1.48646 6.25453 6.58869 10.2253
61 4 1.07589 8.53956 7.53921 12.0073
63 4 1.1755 6.50249 9.91185 17.451
292 3 -0.840806 7.53852 6.67319 11.0647
67 4 1.46472 4.14004 10.8778 16.1294
97 2 0.000235738 6.73697 8.38387 18.2104
52 4 1.02481 6.27641 12.845 15.405
353 2 0.147922 6.60263 12.5072 10.3284
321 2 0.0981575 7.43798 11.7373 15.9219
176 2 0.162304 8.40054 9.93908 12.3444
177 2 0.147549 7.5483 8.83751 13.684
178 2 0.200088 6.67229 9.33815 12.0611
340 2 0.184799 5.6667 7.60831 17.1885
187 2 0.177882 7.86496 9.78812 10.6192
188 2 0.250024 5.27797 9.79606 10.4698
189 2 0.198312 4.4384 10.6918 11.9677
190 2 0.156136 5.61392 11.6346 10.8027
268 3 -0.791733 1.13279 12.4863 13.0145
218 1 -0.675901 7.61798 9.1395 12.5228
222 1 -0.668963 4.87538 10.7943 10.9311
314 4 1.15317 9.59731 10.5967 15.8238
343 1 -0.696322 5.96001 6.64333 17.702
118 2 0.159149 11.6905 6.81636 13.101
197 1 -0.653646 12.4571 6.78238 12.2653
291 3 -0.783198 10.0812 7.88306 11.3527
296 3 -0.83048 6.20911 11.0661 18.5114
295 3 -0.789398 8.11014 10.4286 16.6354
173 2 0.153251 8.22149 6.79345 14.5056
300 3 -0.77891 1.94069 11.827 10.6225
305 3 -0.829863 3.31221 10.1868 14.913
306 3 -0.801601 5.34105 9.66933 16.4194
307 3 -0.831079 4.87855 12.2266 15.5277
308 3 -0.774872 3.35844 10.8014 17.7505
318 2 -0.0264102 9.64198 9.34197 14.8434
65 4 1.26671 3.47579 11.1315 9.72242
363 2 0.153326 12.0425 7.35331 16.9022
153 2 0.207613 4.28499 7.24344 16.9317
221 1 -0.66124 7.99695 10.1768 9.50362
297 3 -0.769848 6.1796 8.10117 9.40712
185 2 0.177205 7.60434 11.2766 9.4042
90 2 -0.0328224 6.70289 12.7652 13.8195
ITEM: TIMESTEP
200
ITEM: NUMBER OF ATOMS
371
ITEM: BOX BOUNDS xy xz yz pp pp pp
-8.8510000000000009e+00 1.7777500000000000e+01 -8.8510000000000009e+00
0.0000000000000000e+00 1.2951025599999999e+01 4.5889999999999997e-01
0.0000000000000000e+00 1.8640300000000000e+01 1.3612559999999974e-01