ITEM: TIMESTEP
0
ITEM: NUMBER OF ATOMS
371
ITEM: BOX BOUNDS xy xz yz pp pp pp
-8.8510000000000009e+00 1.7777500000000000e+01 -8.8510000000000009e+00
0.0000000000000000e+00 1.3020299999999999e+01 4.5889999999999997e-01
0.0000000000000000e+00 1.8640300000000000e+01 2.0540000000000000e-01
ITEM: ATOMS id type x y z
1 4 2.16028 0.974246 2.86266
2 2 3.78114 1.26403 3.14187
3 2 1.43419 2.40919 3.2814
4 3 2.09934 0.739384 1.26194
68 2 0.721133 0.692995 7.33902
7 4 0.57787 2.26284 6.49041
11 4 -0.235755 4.50912 2.58989
14 4 -0.867463 4.4822 8.02494
360 2 -2.95021 4.75463 1.61866
31 4 1.77081 6.1078 4.25093
32 4 4.50321 5.41719 0.61322
33 4 5.49325 4.41093 8.46199
35 4 4.38964 5.80101 5.71341
30 4 6.26043 2.98877 1.81806
70 2 0.35361 3.60717 1.28986
335 2 7.23322 0.490605 1.34655
102 2 2.43252 3.31108 5.08973
103 2 2.6789 1.5611 5.94108
104 2 2.88147 3.27147 6.95824
130 2 5.54307 0.894693 3.12578
131 2 4.84918 2.46864 3.98753
132 2 6.71201 2.14342 3.87099
324 2 2.44408 1.37276 8.53536
192 1 2.37992 2.68579 6.05427
202 1 5.67824 1.96208 3.36635
223 3 -0.404322 2.19124 5.28266
225 3 -1.33255 3.70923 3.36192
226 3 -0.945213 5.80326 1.75076
227 3 0.132547 3.35468 7.57988
229 3 -1.33995 5.45972 6.69084
243 3 6.51005 1.89435 0.661003
244 3 1.13452 4.84271 3.449
245 3 5.10557 4.26173 1.59988
325 1 2.34217 0.251874 8.35518
249 3 2.92372 5.78347 5.22398
250 3 4.83326 5.15527 7.15609
247 3 -0.241006 5.35176 9.22352
139 2 3.08825 5.40226 8.69434
10 4 2.17356 1.30775 11.6326
17 4 0.405296 4.31477 15.3517
18 4 -0.488708 6.11206 12.7497
24 4 7.30956 1.49623 17.4926
26 4 4.75812 2.40808 10.5511
38 4 4.33707 6.38309 12.962
28 4 4.51785 2.08646 16.1608
251 3 4.58765 3.4613 15.3236
246 3 4.53275 3.48454 9.34018
326 2 -0.428238 2.49902 18.0906
37 4 2.41286 5.76833 17.4656
69 2 1.69269 0.465897 10.2061
36 4 5.65153 4.42193 14.7816
73 2 -1.99344 5.67261 12.0906
78 2 3.33103 2.50298 17.2985
110 2 0.226101 1.68527 10.5008
111 2 0.37577 3.19492 11.6308
112 2 -0.219069 1.55548 12.3534
113 2 2.24591 3.0183 14.8098
114 2 0.836681 2.53221 13.5249
115 2 0.758095 1.97341 15.3549
253 3 1.48343 4.81125 16.4826
34 4 0.993248 6.13945 9.69448
141 2 3.00163 4.89603 10.5246
142 2 2.62909 5.08223 13.8869
143 2 3.11426 4.09572 12.2786
144 2 1.94566 5.67266 12.1758
195 1 0.451275 2.10573 11.616
196 1 1.12913 2.78645 14.6619
205 1 2.43664 4.92568 9.52101
206 1 2.91212 5.14961 12.7836
224 3 2.43996 0.238097 12.8989
230 3 -1.12673 3.88321 16.1572
231 3 -0.0772166 5.21702 13.976
237 3 4.85752 0.875686 9.9071
238 3 3.28984 2.4245 11.4853
239 3 3.75459 0.855352 15.2973
240 3 5.90127 1.59494 16.7229
241 3 5.99184 2.63445 11.4565
242 3 7.96286 1.47245 12.6895
254 3 3.56868 5.11896 18.3429
248 3 0.593787 6.39116 11.569
118 2 -3.83447 6.14211 11.4375
140 2 2.04511 3.92618 9.32749
334 1 -6.24487 10.5781 5.53055
12 4 -4.19989 7.18253 4.14664
13 4 -0.358787 6.89406 0.537777
16 4 -2.21357 6.81612 6.75602
333 2 -5.38529 11.21 5.33509
21 4 -3.2912 10.3914 7.03503
331 2 -6.15443 9.35836 5.2534
40 4 0.826787 9.49828 4.14684
42 4 1.9619 8.65584 7.98344
74 2 -4.48033 9.76223 5.99756
79 2 0.546771 6.93905 5.11265
80 2 -1.24204 8.21361 6.95837
344 2 0.350264 10.9322 8.95473
84 2 0.086497 9.00225 5.78979
86 2 0.659682 9.61807 7.72566
87 2 2.09603 8.25241 6.36893
105 2 -4.75622 9.28345 3.17199
106 2 -3.26305 8.31162 2.33284
107 2 -2.87498 9.40149 3.81203
108 2 -0.122552 8.61887 1.25376
77 2 -0.845363 12.8743 6.66114
128 2 -1.75654 11.9688 2.77098
129 2 -1.24577 11.3595 1.11795
145 2 0.0319465 8.15984 2.9755
146 2 -1.57503 8.97246 4.19453
147 2 -1.00589 7.20935 4.4735
346 1 -0.260294 11.9018 8.99644
149 2 -2.57963 11.0345 4.954
150 2 -0.948049 11.2316 6.05831
193 1 -3.67221 8.75952 3.33818
20 4 -2.8206 8.15838 9.16445
201 1 -1.25081 12.2076 1.82199
207 1 -0.664402 8.26357 4.29831
208 1 -2.07125 11.4486 6.00443
228 3 -3.19147 6.98371 5.42738
233 3 -3.10315 6.58471 8.43927
234 3 -2.47878 9.22046 7.83848
235 3 -4.01037 11.5286 8.1682
370 3 -7.25505 12.5484 3.73247
257 3 2.22305 7.11891 3.17408
259 3 0.558584 10.9381 3.62331
345 2 -1.30786 11.785 8.4221
309 4 -6.29002 12.4797 0.208367
322 2 -7.47321 12.6479 8.79588
311 2 -6.0059 10.3333 0.953843
312 2 -5.19241 11.5863 2.26943
313 1 -5.13913 11.1544 1.18118
262 3 1.51879 7.36636 8.77042
323 2 -6.28888 12.7127 7.3019
332 2 -6.71291 10.7409 6.51293
148 2 -2.45676 12.4906 6.27586
310 2 -4.13209 10.8093 0.838028
6 4 -4.7212 12.3904 9.25024
109 2 -2.06919 9.14157 0.302866
83 2 2.44513 9.16326 4.44954
8 4 -5.77665 12.4391 14.4293
22 4 -3.73363 10.0631 13.4631
363 2 -4.75683 8.16116 17.5513
43 4 -1.50254 10.0557 11.1342
45 4 1.39422 10.8663 11.9179
120 2 -2.45183 7.15378 14.0097
75 2 -3.07562 8.9637 14.6953
88 2 -1.82797 11.3468 10.0655
99 2 -6.3739 11.5567 10.6088
100 2 -4.6685 11.6032 11.4889
101 2 -4.98811 10.0471 10.4197
119 2 -0.995168 8.27268 13.3181
337 2 -1.85311 12.0134 18.271
121 2 -2.52133 7.69814 12.2429
126 2 -4.14777 7.44556 13.414
265 3 3.52529 7.72403 13.4085
151 2 2.86414 8.13387 16.8831
152 2 3.09097 6.83405 15.4347
154 2 1.22523 7.43586 14.5852
155 2 0.391333 9.18329 14.124
156 2 0.940249 8.76218 15.8814
191 1 -5.18702 11.2245 10.5743
198 1 -1.81652 7.38584 13.023
200 1 -4.63054 8.3964 13.694
209 1 3.38061 7.14136 16.5117
210 1 1.13695 8.55456 14.7966
232 3 -4.48994 8.35949 10.0356
236 3 -4.63573 11.3174 13.9844
317 2 -4.09455 12.698 18.6019
263 3 -1.68299 8.70786 10.2958
264 3 -2.60457 10.139 12.3498
266 3 -0.062345 10.3579 11.8302
71 2 -1.493 7.33208 18.0515
315 3 -6.61663 11.9418 17.7087
316 3 -7.11533 11.7931 15.1027
319 2 -1.39328 11.725 13.2613
194 1 -0.777856 8.75338 18.5575
330 2 -0.251836 9.08738 17.5744
336 2 -1.77563 12.1808 16.3526
320 2 0.833796 9.92919 18.589
338 2 -0.219748 12.2561 17.4245
339 1 -1.30508 12.4632 17.3927
127 2 -5.37022 8.73121 12.7935
347 2 -0.175185 12.5301 9.99266
255 3 1.37029 6.66204 18.3665
361 2 -3.80148 6.67322 17.1124
27 4 -0.22081 12.9315 13.3647
125 2 -5.12976 8.30156 14.8121
212 1 8.48563 3.51585 8.51869
47 4 10.529 2.2177 3.83257
50 4 10.1817 2.74107 8.81463
51 4 13.1517 1.94659 5.59069
55 4 12.0879 4.80289 2.12865
81 2 6.64967 3.3289 7.79246
57 4 12.1852 4.4109 7.07492
136 2 5.55793 5.14267 3.88065
89 2 16.4792 1.03097 3.10305
352 2 15.707 1.9473 8.59316
93 2 13.4511 5.28024 7.80761
137 2 6.94665 6.16712 4.75304
133 2 7.61062 4.96628 2.1859
134 2 8.61391 3.7697 1.14056
135 2 8.51392 3.51374 2.98081
351 1 15.0722 0.538631 1.82454
170 2 9.10568 5.80799 4.08278
157 2 8.30595 2.3789 4.82507
158 2 9.13932 4.08239 5.01235
159 2 9.71012 2.49269 5.98482
161 2 8.39168 3.59094 7.40711
166 2 13.1819 3.55199 0.480647
167 2 13.8013 2.92815 2.17386
49 4 14.1302 0.256135 8.0641
172 2 8.43899 5.24241 5.74343
203 1 7.98918 3.90194 2.0535
357 2 10.9969 1.80919 1.24046
211 1 9.24071 2.87517 4.98811
354 1 14.7136 1.77587 9.17895
214 1 13.5831 3.84709 1.54528
329 2 14.6681 1.96303 0.227608
269 3 9.74199 0.895467 3.05511
271 3 9.94747 1.32033 8.21374
272 3 14.4092 1.81409 4.67697
273 3 11.7482 1.78237 4.70367
274 3 13.0701 0.828019 7.05249
280 3 11.1257 3.60891 2.81852
281 3 12.5416 6.01025 3.11332
282 3 11.214 5.68754 0.666696
283 3 11.2847 3.56053 8.09684
284 3 13.1316 3.45047 6.21329
288 3 11.2054 5.4901 6.42762
348 2 15.0301 1.7195 1.52862
359 1 10.6907 2.25812 0.234182
353 2 13.9414 2.63208 9.09725
204 1 5.77508 6.15775 4.46673
371 3 12.6823 0.309788 0.121328
72 2 15.0618 3.65807 8.63055
350 2 14.799 0.380443 2.96734
216 1 8.93535 6.09827 5.10832
162 2 8.61945 4.49735 9.11609
349 2 16.1192 0.130764 1.62505
5 4 15.8778 2.27296 4.15709
160 2 7.75361 2.72946 9.04581
356 2 10.9384 3.37912 0.248381
9 4 15.204 2.64463 16.4982
48 4 12.2958 1.54667 17.7442
174 2 8.23418 5.66539 13.5566
53 4 9.82592 1.63818 15.6969
54 4 11.8963 1.9766 11.5215
60 4 11.8265 3.25675 14.2386
82 2 6.42585 4.96826 16.2569
252 3 6.73742 3.61672 13.8268
91 2 13.1619 1.73702 10.434
92 2 11.432 0.411909 11.7954
95 2 12.9747 2.92226 15.4898
96 2 12.0613 4.94334 14.1164
116 2 12.3298 5.08828 10.2974
117 2 11.8714 5.4959 12.1534
369 1 9.86676 5.46675 17.2116
217 1 9.02195 6.50238 13.6101
256 3 5.29646 5.84048 14.1456
163 2 7.65914 4.5193 10.783
164 2 9.39421 3.5725 11.235
165 2 8.69629 5.04756 12.2995
366 2 9.63518 4.41882 17.4628
197 1 12.4028 5.8374 11.1892
213 1 8.38411 4.14224 11.5776
368 2 8.88954 6.1903 17.4389
270 3 13.4313 2.84587 17
275 3 15.2126 1.4174 15.253
276 3 9.02337 0.371811 14.8761
277 3 11.1808 1.04392 16.6832
278 3 8.57078 2.21128 16.8532
279 3 10.7846 2.71731 10.7176
355 2 14.8878 1.28308 10.1991
289 3 10.3707 2.95106 14.762
290 3 12.4327 2.65615 12.897
328 2 16.1459 0.852271 18.0754
342 2 6.91386 5.00203 17.9208
343 1 6.3055 5.97465 17.963
173 2 10.131 6.11256 13.7724
341 2 5.73129 6.38289 17.0213
29 4 7.20951 2.95912 12.4772
327 1 15.9221 1.92403 18.0405
367 2 10.2886 5.68049 16.1074
56 4 11.0181 6.56239 18.0678
358 2 10.0519 2.22796 18.5377
285 3 6.33469 5.48978 9.33824
19 4 9.50107 11.3125 4.53375
296 3 5.86991 11.1748 0.413535
171 2 8.39469 7.17921 5.27267
46 4 4.95637 12.1434 1.18466
186 2 8.84971 10.1886 9.05402
59 4 10.5328 6.8039 5.9425
62 4 4.35066 10.7361 4.10427
64 4 6.98143 8.89284 8.27995
66 4 6.6434 11.0568 6.21235
94 2 10.7403 6.7205 8.82661
85 2 5.15582 7.46828 5.75516
98 2 8.26818 7.82969 7.79014
122 2 9.40147 10.7133 2.01373
123 2 7.85938 10.118 2.99401
124 2 9.50205 9.30557 3.40213
41 4 1.97455 10.2793 0.524231
25 4 0.663794 12.7142 7.57865
297 3 6.04291 8.04546 9.20466
298 3 3.18306 9.49408 8.34001
179 2 2.59713 10.5952 5.81017
180 2 2.41726 12.0161 4.45693
181 2 3.53825 12.2949 5.99909
182 2 9.62672 8.85479 6.9027
183 2 11.298 8.50532 7.5651
184 2 9.80533 8.16901 8.67473
23 4 0.563359 12.2074 2.4465
199 1 8.9552 10.2608 2.99911
169 2 8.97526 7.96418 0.697086
219 1 3.10627 11.5011 5.26391
220 1 10.2049 8.13123 7.59508
76 2 1.90707 11.8834 6.76657
258 3 4.2974 7.0159 1.44386
261 3 1.55891 11.6233 1.26455
287 3 11.4142 7.71136 4.93401
293 3 3.93948 8.94411 3.6019
294 3 4.39182 11.6082 2.64736
138 2 5.43948 7.04081 3.83357
304 3 6.5534 12.3742 7.369
299 3 4.46922 11.9872 9.12798
301 3 8.23546 11.0948 5.55927
302 3 5.6148 11.0169 5.03438
303 3 6.30915 9.67216 7.04787
97 2 7.59098 9.05667 0.0303107
39 4 3.25344 8.04455 2.35441
260 3 2.45563 9.07282 1.39579
15 4 11.6063 7.2555 10.3236
58 4 6.19163 6.72976 10.319
61 4 8.74036 7.63359 12.0436
63 4 7.07803 10.5306 17.8812
221 1 7.76522 10.195 9.48122
67 4 4.456 10.5914 16.534
364 2 12.186 7.39465 15.8129
365 2 9.02318 8.397 17.5526
314 4 9.87003 11.2153 16.5718
175 2 8.72819 7.40844 14.3092
176 2 8.91711 10.1094 12.1803
177 2 8.13637 9.33699 13.7897
178 2 7.04395 9.67505 12.3441
340 2 6.85144 6.81528 18.5279
215 1 9.80192 8.42374 18.343
188 2 5.89231 10.1782 10.2646
189 2 4.5843 8.95921 10.8698
190 2 4.8384 10.6424 11.8035
52 4 6.03707 12.7301 15.1195
218 1 8.09064 9.39919 12.6575
222 1 4.86848 10.0392 10.8113
187 2 7.73138 9.87558 10.6838
44 4 2.80122 9.16644 14.1312
268 3 1.08666 12.5853 12.5895
362 1 12.541 7.22538 16.9771
291 3 10.3662 7.64975 11.3666
292 3 7.5802 7.00757 11.1903
295 3 8.11711 11.3075 16.9706
286 3 4.99269 6.63256 11.3751
300 3 2.27592 10.9097 10.6131
305 3 3.71569 9.7873 15.3089
306 3 5.86277 9.77489 16.9827
307 3 4.79567 12.1443 15.9404
308 3 3.39206 10.5327 17.8798
65 4 3.55148 10.7467 9.64725
321 2 7.34483 11.7566 15.5481
153 2 4.55272 7.15815 16.7107
318 2 10.1426 9.53649 16.6793
267 3 2.30937 10.2741 13.0704
90 2 5.97969 12.2881 13.5114
168 2 10.3614 9.37563 18.377
185 2 7.29703 11.1904 9.33279
ITEM: TIMESTEP
100
ITEM: NUMBER OF ATOMS
371
ITEM: BOX BOUNDS xy xz yz pp pp pp
-8.8510000000000009e+00 1.7777500000000000e+01 -8.8510000000000009e+00
0.0000000000000000e+00 1.3020299999999999e+01 4.5889999999999997e-01
0.0000000000000000e+00 1.8630979849999999e+01 2.0540000000000000e-01
ITEM: ATOMS id type x y z
1 4 2.19155 1.04004 2.87055
2 2 3.8133 1.2685 3.3372
3 2 1.5338 2.53992 3.08289
4 3 2.13338 0.721731 1.3069
68 2 0.698303 0.657978 7.41969
7 4 0.620768 2.25877 6.68009
11 4 -0.22497 4.54571 2.43111
14 4 -0.922011 4.39705 8.08809
360 2 -3.07293 4.70219 1.66676
31 4 1.74025 6.15335 4.00692
32 4 4.48872 5.5857 0.625026
33 4 5.59491 4.42101 8.39048
35 4 4.37854 5.90815 5.78064
30 4 6.32105 3.12061 1.79924
70 2 0.133976 3.50262 1.15385
335 2 7.26519 0.358532 1.38894
102 2 2.19429 3.42231 5.04061
103 2 2.93137 1.95867 6.01628
104 2 2.5324 3.62531 6.98954
130 2 5.48099 1.17778 3.25961
131 2 4.5353 2.80328 3.6069
132 2 6.36937 2.6671 4.09004
324 2 2.37115 1.34202 8.60641
192 1 2.33724 2.914 6.03943
202 1 5.52726 2.28823 3.39046
223 3 -0.366284 2.29519 5.43409
225 3 -1.26032 3.69851 3.3111
226 3 -0.788209 6.07773 1.8462
227 3 0.271743 3.4145 7.71174
229 3 -1.47406 5.37253 6.83684
243 3 6.66028 1.81608 0.67477
244 3 1.11383 4.94225 3.33003
245 3 5.22808 4.3511 1.39269
325 1 2.32678 0.206535 8.43984
249 3 2.91559 5.88332 5.15084
250 3 4.98331 5.1767 7.06172
247 3 -0.367225 5.33977 9.23938
139 2 2.8184 5.2546 8.56365
246 3 4.44178 3.58375 9.05284
5 4 -1.3345 2.35603 4.19393
254 3 3.102 5.00635 0.00102926
10 4 2.22112 1.34214 11.6737
17 4 0.41061 4.33819 15.4144
18 4 -0.260943 6.17877 12.7867
24 4 7.26683 1.47263 17.4527
26 4 4.64946 2.4875 10.4662
38 4 4.27102 6.34309 12.9203
28 4 4.35436 2.17334 16.0229
251 3 4.41171 3.47697 15.215
140 2 1.69033 4.03718 9.44185
326 2 -0.350413 2.49092 18.1519
37 4 2.43827 5.88673 17.4712
69 2 1.72755 0.360408 10.2948
36 4 5.67065 4.39806 14.8318
73 2 -1.74726 5.58452 12.18
78 2 3.44189 2.58254 17.3511
110 2 0.258791 2.26639 10.4629
111 2 0.566331 3.27713 12.0662
112 2 -0.185806 1.5398 12.1714
113 2 2.13373 2.94406 14.8248
114 2 0.766613 2.60902 13.5562
115 2 0.710003 1.81853 15.3357
253 3 1.60623 4.99172 16.2581
34 4 1.02496 6.27141 9.88764
141 2 2.99932 5.02605 10.4326
142 2 2.79047 4.84672 14.0694
143 2 3.14733 4.12983 12.4026
144 2 2.16722 5.61645 12.4625
195 1 0.542008 2.23346 11.5817
196 1 1.01764 2.75616 14.726
205 1 2.32428 4.97003 9.56368
206 1 2.95171 5.06954 12.9861
224 3 2.49078 0.375797 12.9241
230 3 -1.0046 3.88548 16.0691
231 3 0.158397 5.52272 14.1138
237 3 4.73124 0.915388 9.86543
238 3 3.36015 2.55578 11.4006
239 3 3.68179 0.868173 15.2309
240 3 5.82745 1.7756 16.6295
241 3 5.94399 2.72494 11.4161
242 3 7.88091 1.46584 12.8635
27 4 8.60615 0.233318 13.41
248 3 0.801127 6.4567 11.6423
334 1 -6.36915 10.525 5.52379
12 4 -4.44602 7.08338 4.22125
13 4 -0.433734 6.92514 0.516964
16 4 -2.2777 6.7118 6.77978
333 2 -5.50725 11.2485 5.47819
21 4 -3.35309 10.5035 7.11744
194 1 -1.1633 8.71226 0.0902323
40 4 0.816232 9.57821 4.19693
42 4 1.99959 8.56194 7.94526
74 2 -4.58676 9.86538 6.05958
79 2 0.294703 6.94654 4.67744
80 2 -1.07279 7.92031 6.45557
344 2 0.362762 10.938 9.08525
84 2 0.353719 9.10457 5.92672
86 2 0.701776 9.59416 7.58059
87 2 2.54339 7.79626 6.54526
105 2 -4.64115 9.36171 3.22925
106 2 -3.89498 8.06315 2.01636
107 2 -2.86963 8.73996 3.54849
108 2 -0.0979359 8.68945 1.38351
77 2 -0.35704 12.5991 6.21463
128 2 -1.66522 11.7448 2.81234
129 2 -1.18171 11.4328 0.922159
145 2 0.0219252 8.2061 3.1286
146 2 -1.62458 9.39885 4.54943
147 2 -1.27331 7.60953 4.72176
346 1 -0.35302 11.8929 9.09132
149 2 -2.30466 11.602 5.0742
150 2 -1.02487 10.9353 6.31794
193 1 -3.91076 8.47194 3.05804
20 4 -2.87432 8.26858 9.12231
201 1 -1.16794 12.1647 1.76409
207 1 -0.843404 8.586 4.6579
208 1 -2.00813 11.5159 6.14211
228 3 -3.29777 6.81367 5.59557
233 3 -3.01242 6.7408 8.52054
234 3 -2.5853 9.31789 7.81902
235 3 -3.92292 11.4841 8.25658
370 3 -7.37228 12.6375 3.75228
257 3 2.21093 7.14166 2.90716
259 3 0.419682 10.9822 3.68204
345 2 -1.38482 11.8795 8.49407
309 4 -6.26636 12.4484 0.318387
322 2 -7.40536 12.4587 8.85085
311 2 -5.78697 10.4729 1.34916
312 2 -4.50929 11.8167 2.01564
313 1 -4.885 11.2869 1.14037
262 3 1.49112 7.58923 8.94208
323 2 -6.07661 12.6395 7.39735
332 2 -6.86151 10.5302 6.54211
148 2 -2.19074 12.5248 6.82543
310 2 -4.03413 10.8315 0.56113
109 2 -2.0062 9.44 0.334797
331 2 -6.09038 9.44756 5.14025
6 4 -4.73546 12.3271 9.26887
8 4 -5.77566 12.4503 14.3046
22 4 -3.75005 10.0274 13.3913
363 2 -4.51241 8.12252 17.3637
43 4 -1.55157 9.92039 11.1215
45 4 1.40796 10.959 11.9806
120 2 -2.45518 6.94834 13.7798
75 2 -3.20243 9.21683 14.8141
88 2 -1.91435 11.1495 10.0135
99 2 -6.52667 11.1264 10.6158
100 2 -5.03033 11.6874 11.5254
101 2 -5.02126 10.1125 10.4144
119 2 -1.02741 8.17092 13.5089
337 2 -2.10917 12.2096 18.4893
121 2 -2.26641 7.64302 12.0642
126 2 -3.98321 7.35869 13.4257
265 3 3.48014 7.82546 13.3721
151 2 3.02465 8.22317 16.9205
152 2 3.40862 6.94807 15.5749
154 2 1.1667 7.3995 14.6782
155 2 0.456325 9.16529 14.5602
156 2 1.44947 8.51394 16.1759
191 1 -5.44842 11.1526 10.6297
198 1 -1.75222 7.31979 13.0234
200 1 -4.54381 8.33418 13.7166
209 1 3.51439 7.23558 16.7077
210 1 1.31988 8.4873 15.0482
232 3 -4.52505 8.42974 10.0861
236 3 -4.70764 11.3962 13.9498
317 2 -4.08413 12.6747 18.3801
263 3 -1.58857 8.56442 10.3224
264 3 -2.71716 10.0734 12.2413
266 3 -0.0630508 10.1263 11.7058
71 2 -1.57691 7.48746 18.1936
315 3 -6.65997 12.0204 17.8145
316 3 -6.97047 11.6512 15.1071
319 2 -1.35521 11.7413 13.5949
320 2 1.04339 9.69935 18.5617
330 2 -0.223556 9.27474 17.7461
336 2 -1.87032 12.0675 16.5533
125 2 -5.03648 8.27261 14.8602
338 2 -0.31011 12.1254 17.7378
339 1 -1.39361 12.4163 17.5871
127 2 -5.36912 8.67276 12.7468
347 2 -0.192202 12.7856 9.76902
255 3 1.24499 6.76504 18.2449
212 1 8.66885 3.68368 8.60645
47 4 10.5838 2.2477 3.81398
50 4 10.2731 2.76007 8.78821
51 4 13.2091 2.13985 5.46356
55 4 11.886 4.78284 2.15752
81 2 6.85496 3.39097 7.82698
57 4 12.3136 4.53257 7.15753
136 2 5.52609 4.83438 4.17774
89 2 16.4839 1.08761 3.15929
352 2 15.5847 1.79966 8.53869
93 2 13.4225 5.43233 7.97827
137 2 6.83643 6.15787 4.73114
133 2 7.64545 5.1892 1.99219
134 2 8.76391 3.78558 1.29774
135 2 8.42404 3.73165 3.07474
351 1 15.0293 0.603805 1.92453
170 2 9.07615 5.75878 3.94763
157 2 8.26426 2.6056 4.49347
158 2 9.14259 4.2576 4.88473
159 2 9.6411 2.74177 5.87526
161 2 8.58087 3.78169 7.46444
166 2 13.4112 4.23818 0.087403
167 2 13.3441 3.04909 1.58915
49 4 14.0541 0.150618 7.95781
172 2 8.33289 5.63099 5.73839
203 1 7.97832 4.04162 2.05597
357 2 10.9029 1.81951 1.14482
211 1 9.21123 3.12008 4.86762
354 1 14.5977 1.63515 9.19908
214 1 13.399 4.19683 1.1916
329 2 14.816 2.09907 0.291938
269 3 9.79161 0.999145 3.03787
271 3 9.87404 1.29745 8.08497
272 3 14.4395 1.96575 4.5158
273 3 11.7837 1.73175 4.78337
274 3 13.3854 0.87136 6.80672
280 3 11.0271 3.52148 2.78793
281 3 12.5789 5.83182 3.2118
282 3 10.9657 5.59155 0.866142
283 3 11.5122 3.59351 8.07692
284 3 13.1346 3.53938 6.18863
288 3 11.2883 5.54709 6.51702
348 2 14.7985 1.75153 1.78302
359 1 10.6989 2.30878 0.0815822
353 2 13.8691 2.49646 9.18343
204 1 5.74467 6.04782 4.48174
371 3 12.7883 0.44637 0.178467
72 2 15.0669 3.48847 8.68328
350 2 14.8708 0.116752 3.03243
216 1 8.89149 6.27118 4.98489
162 2 8.91572 4.74286 9.08877
349 2 15.9637 0.206722 1.30106
160 2 7.85843 3.08062 9.18543
9 4 15.2354 2.62909 16.4647
48 4 12.3632 1.57249 17.6495
174 2 8.29976 5.53905 13.8849
53 4 9.86405 1.56632 15.7507
54 4 11.7827 1.95477 11.5543
60 4 11.6688 3.34456 14.1849
82 2 6.54642 4.7712 16.2488
252 3 6.6944 3.70683 13.8456
91 2 13.1583 1.66908 10.6142
92 2 11.2997 0.355279 11.524
95 2 12.8515 3.30803 15.4344
96 2 11.7469 4.99398 13.8818
116 2 11.89 5.0327 10.6721
117 2 12.4417 5.92725 12.2717
369 1 9.98496 5.3565 17.1681
285 3 6.4307 5.36174 9.43728
256 3 5.18982 5.80706 14.0873
163 2 7.81081 4.4383 10.8132
164 2 9.39027 3.39234 11.304
165 2 8.70527 4.88977 12.3837
366 2 9.76628 4.33827 17.6439
197 1 12.5063 5.89702 11.1419
213 1 8.41534 3.97168 11.6761
368 2 8.97813 6.0369 17.0346
270 3 13.451 2.82133 16.8951
275 3 15.2391 1.4872 15.2529
276 3 9.04578 0.422908 14.8993
277 3 11.2686 0.963901 16.638
278 3 8.626 2.07971 16.9443
279 3 10.7754 2.67359 10.6846
355 2 14.811 1.37122 10.3628
289 3 10.3193 2.9323 14.7719
290 3 12.2229 2.52195 12.9661
328 2 16.0933 0.745898 17.989
342 2 6.80689 5.17075 17.9405
343 1 6.2183 6.08809 17.7541
173 2 10.0692 6.09272 13.9259
341 2 5.57546 6.13624 16.7738
29 4 7.15099 2.81905 12.4764
327 1 15.9559 1.89624 18.0329
367 2 10.5375 5.20809 16.2004
56 4 10.9832 6.56635 18.1162
358 2 10.0371 2.43706 18.4408
361 2 13.4324 6.36362 16.9133
286 3 4.75622 6.39614 11.3422
217 1 8.94641 6.43949 13.7095
118 2 13.5448 5.95626 10.7287
356 2 11.5204 3.62926 18.5532
19 4 9.45296 11.2027 4.43381
296 3 5.94158 11.1705 0.250746
171 2 8.36497 7.21513 4.82629
46 4 4.90777 12.2652 1.15165
186 2 8.70772 10.2476 9.01002
59 4 10.4575 6.78066 5.96548
62 4 4.39205 10.8519 4.03844
64 4 7.03519 8.83919 8.2865
66 4 6.79438 11.2631 6.19184
94 2 10.998 6.68329 8.91481
85 2 5.01883 7.52823 5.41932
98 2 8.22084 7.73315 7.55144
122 2 9.31084 10.2412 2.10891
123 2 8.07494 9.44694 3.24835
124 2 9.93536 9.01555 3.46103
41 4 2.09928 10.2487 0.475454
25 4 0.578989 12.6223 7.62115
297 3 5.84878 7.85392 9.11828
298 3 3.11995 9.56183 8.52189
179 2 2.88555 10.4724 5.96935
180 2 2.31455 11.8415 4.57593
181 2 3.68552 12.3345 5.96679
182 2 9.66305 8.80758 7.04444
183 2 11.2398 8.30345 7.89282
184 2 9.70087 7.62228 8.46209
23 4 0.596221 12.188 2.36749
199 1 9.1505 9.79983 3.14118
169 2 8.60016 7.77517 0.484448
219 1 3.13442 11.4377 5.33712
220 1 10.1972 7.94988 7.57021
76 2 2.00376 11.8539 6.87322
258 3 4.44989 6.94014 1.45097
261 3 1.55281 11.5626 1.15625
287 3 11.399 7.60817 4.76
293 3 3.95695 9.01739 3.76594
294 3 4.29221 11.6144 2.63101
138 2 5.48169 6.75476 3.61852
304 3 6.65248 12.3933 7.43321
299 3 4.22619 11.9594 8.88069
301 3 8.21682 11.4206 5.44799
302 3 5.71635 11.1444 4.8922
303 3 6.72593 9.79756 7.04941
260 3 2.77403 9.20203 1.41389
39 4 3.41516 7.91711 2.28125
83 2 2.49917 9.17284 4.02592
15 4 11.6719 7.35356 10.3843
58 4 6.12239 6.7203 10.2151
61 4 8.77728 7.62426 12.1072
63 4 7.15355 10.5589 17.7898
221 1 7.72101 10.0365 9.5583
67 4 4.52882 10.6684 16.504
364 2 12.0421 7.27973 15.793
365 2 9.12261 8.16684 17.2257
314 4 9.88024 11.2536 16.6922
175 2 8.63496 7.33466 14.3443
176 2 9.18634 9.97988 12.1838
177 2 8.55225 9.12196 13.8033
178 2 7.31556 9.76486 12.4703
340 2 6.73432 7.07473 18.0485
215 1 9.69938 8.18632 18.2338
188 2 5.87135 10.023 10.412
189 2 4.52083 8.81103 10.792
190 2 4.60262 10.3651 11.8203
52 4 6.11877 12.7754 15.0153
218 1 8.36082 9.41002 12.6918
222 1 4.77268 9.86722 10.8488
187 2 7.94197 9.83123 10.7628
44 4 2.84937 9.09995 14.1088
268 3 1.14335 12.4277 12.458
362 1 12.5361 7.16386 16.9263
291 3 10.287 7.7335 11.4116
292 3 7.42277 7.25855 11.1807
295 3 8.236 11.4668 16.777
97 2 8.05576 9.27304 18.5119
300 3 2.2373 11.1387 10.4735
305 3 3.68461 9.76439 15.3747
306 3 5.97353 9.8537 16.8319
307 3 5.01705 12.0697 15.7897
308 3 3.48072 10.716 17.8805
65 4 3.47802 10.6414 9.63602
321 2 7.52802 11.8996 15.2512
153 2 4.58243 7.20392 17.0084
318 2 10.0406 9.56243 16.8189
267 3 2.34291 10.174 13.0672
90 2 5.93059 12.5179 13.3222
168 2 10.5062 9.05817 18.4248
185 2 6.92362 10.8819 9.38844
ITEM: TIMESTEP
200
ITEM: NUMBER OF ATOMS
371
ITEM: BOX BOUNDS xy xz yz pp pp pp
-8.8510000000000009e+00 1.7777500000000000e+01 -8.8510000000000009e+00
0.0000000000000000e+00 1.3020299999999999e+01 4.5889999999999997e-01
0.0000000000000000e+00 1.8621659699999999e+01 2.0540000000000000e-01
ITEM: ATOMS id type x y z
1 4 2.1275 0.99422 2.94635
2 2 3.78423 1.33133 3.16779
3 2 1.21676 2.34112 3.36777
4 3 1.97339 0.678263 1.39599
68 2 0.922611 0.829174 7.16397
7 4 0.640342 2.44402 6.58917
11 4 -0.225166 4.60206 2.46567
14 4 -0.890667 4.48475 8.26826
5 4 -1.38867 2.44536 4.22743
31 4 1.78545 6.03701 3.92765
32 4 4.62308 5.64639 0.550116
33 4 5.61544 4.47362 8.42246
35 4 4.4034 6.07161 5.72267
30 4 6.2272 3.0922 1.67572
70 2 0.353866 3.71564 1.158
335 2 7.30918 0.456257 1.38784
102 2 2.22039 3.698 5.44981
103 2 2.85677 1.85313 5.64984
104 2 3.10235 3.04073 7.11918
130 2 5.34061 1.31801 3.18204
131 2 4.4751 2.96494 3.73586
132 2 6.46418 2.7162 3.92727
324 2 2.15823 1.29465 8.53123
192 1 2.4754 2.77141 6.15274
202 1 5.41978 2.44172 3.35809
223 3 -0.319315 2.3882 5.39884
225 3 -1.29904 3.84778 3.3719
226 3 -0.919812 6.06282 1.91141
227 3 0.110155 3.3363 7.86418
229 3 -1.27348 5.42416 6.87554
243 3 6.47993 1.93106 0.661328
244 3 1.25718 4.54835 3.35546
245 3 5.24353 4.32227 1.26399
325 1 2.26718 0.142241 8.43026
249 3 2.97732 6.00445 5.10696
250 3 4.98061 5.29725 7.03512
136 2 5.37334 4.9243 3.95357
139 2 2.9471 5.07824 8.73592
246 3 4.5871 3.44272 9.10897
72 2 -2.22202 3.67854 9.0264
10 4 2.11663 1.29728 11.6913
17 4 0.434487 4.43363 15.4269
18 4 -0.402989 6.22439 12.7442
24 4 7.16789 1.52676 17.5565
26 4 4.70088 2.41924 10.3761
38 4 4.34368 6.38726 12.9324
28 4 4.30433 2.05754 15.941
251 3 4.41619 3.46512 15.1196
140 2 2.03071 3.86741 9.88609
326 2 -0.0460974 1.97791 17.7124
37 4 2.33525 5.93031 17.4936
69 2 1.5597 0.510376 10.2309
36 4 5.69002 4.38511 14.7607
73 2 -2.09476 5.84391 12.2324
78 2 3.18251 2.31216 17.1192
110 2 -0.00513415 1.72891 10.6655
111 2 0.439666 3.14015 11.7803
112 2 -0.231668 1.53255 12.5151
113 2 2.00929 2.83154 14.9743
114 2 0.634465 2.66154 13.6376
115 2 0.369594 1.98131 15.3874
253 3 1.67852 4.81818 16.4552
34 4 1.04237 6.17422 9.86779
141 2 3.13538 5.12213 10.5641
142 2 2.88235 4.95446 14.051
143 2 3.1112 4.08358 12.4061
144 2 2.01256 5.68457 12.4752
195 1 0.364973 2.01914 11.7232
196 1 0.855699 2.78883 14.7345
205 1 2.44957 4.94426 9.73197
206 1 2.97265 5.09264 12.9447
224 3 2.28831 0.189597 12.8271
230 3 -1.12301 3.9406 16.3634
231 3 0.0509698 5.38377 14.0219
237 3 4.71043 0.978674 9.75515
238 3 3.16774 2.51901 11.4676
239 3 3.74058 0.874517 15.12
240 3 5.71271 1.7616 16.6911
241 3 5.9766 2.71181 11.3843
242 3 7.85766 1.32327 12.8297
247 3 -0.263935 5.41461 9.37229
118 2 -3.61762 5.96811 10.8841
254 3 3.48432 5.35152 18.5028
317 2 4.64214 0.341549 18.4575
334 1 -6.23134 10.4892 5.72498
12 4 -4.52844 7.0888 4.27253
13 4 -0.54021 7.07823 0.582298
16 4 -2.22189 6.64454 6.78745
333 2 -5.45669 11.2342 5.28955
21 4 -3.36915 10.4509 7.00737
6 4 -4.7852 12.3986 9.20219
40 4 0.87366 9.47609 4.17379
42 4 1.91158 8.68232 8.15374
74 2 -4.41489 9.74855 5.81522
79 2 0.350137 6.79359 4.53181
80 2 -1.19747 8.00232 6.41503
344 2 0.348068 10.9318 8.95586
84 2 0.282833 9.09238 5.90058
86 2 0.621565 9.62478 7.61806
87 2 2.15322 8.17604 6.57386
105 2 -4.63043 9.14327 2.89745
106 2 -3.87624 7.72732 1.93639
107 2 -2.82739 8.49792 3.27889
108 2 -0.0546985 8.8862 1.26603
77 2 -0.567707 12.6287 6.56809
128 2 -1.65381 12.1453 2.97051
129 2 -1.22537 11.4377 1.30386
145 2 0.224554 8.2733 2.9798
146 2 -1.56638 9.1301 4.34687
147 2 -1.19892 7.40686 4.73029
346 1 -0.337729 11.979 8.91377
149 2 -2.35653 11.4436 4.92329
150 2 -1.12299 10.9772 6.31999
193 1 -3.90327 8.26453 2.89549
20 4 -2.93617 8.20757 9.15459
201 1 -1.12995 12.3423 1.94796
207 1 -0.735383 8.42597 4.52554
208 1 -2.11676 11.4969 6.0715
228 3 -3.27834 6.74901 5.63723
233 3 -3.03753 6.69293 8.46722
234 3 -2.55413 9.25031 7.83863
235 3 -4.14634 11.4331 7.99847
370 3 -7.14303 12.5388 3.80551
257 3 2.301 7.08458 2.87627
259 3 0.647014 10.9803 3.74063
345 2 -1.4012 11.8717 8.49585
309 4 -6.26749 12.3369 0.370624
322 2 -7.53879 12.3546 8.71865
311 2 -5.43491 10.6613 1.64045
312 2 -3.9615 11.9547 1.7579
313 1 -4.68316 11.3956 0.988885
262 3 1.43352 7.51078 9.05411
323 2 -6.18395 12.6344 7.38343
332 2 -6.41216 10.6768 6.82371
148 2 -2.32838 12.5736 6.49803
310 2 -4.13651 10.8009 0.257907
109 2 -1.64693 9.83959 0.0687094
331 2 -6.06272 9.4462 5.40746
8 4 -5.77202 12.5634 14.2766
22 4 -3.71557 10.0524 13.5139
363 2 -4.32647 7.7239 17.7013
43 4 -1.57839 9.96366 11.14
45 4 1.30802 10.8516 11.8434
120 2 -2.43376 7.15226 14.188
75 2 -3.07191 9.26018 14.9486
88 2 -1.80885 11.3037 10.0618
99 2 -6.32458 11.3296 10.5963
100 2 -4.69827 11.433 11.7186
101 2 -4.85734 10.0936 10.3055
119 2 -0.869257 8.30174 13.3762
337 2 -2.25491 12.1362 18.5012
121 2 -2.40018 7.58249 12.2826
126 2 -3.87358 7.51327 14.0676
194 1 -0.594847 9.11132 18.5762
151 2 2.85329 8.23164 16.7874
152 2 2.95123 6.82527 15.408
154 2 1.28628 7.47379 14.7633
155 2 0.624915 9.28368 14.5148
156 2 1.31249 8.8522 16.1373
191 1 -5.18995 11.2265 10.6561
198 1 -1.75957 7.4126 13.2331
200 1 -4.54211 8.41355 14.0084
209 1 3.30019 7.24273 16.4779
210 1 1.30957 8.55346 15.0562
232 3 -4.65642 8.4373 9.92624
236 3 -4.52675 11.4321 13.7566
255 3 1.01709 6.68629 18.2524
263 3 -1.75007 8.72326 10.2809
264 3 -2.56734 10.0103 12.372
266 3 -0.0548838 10.0524 11.6905
71 2 -1.70659 7.70486 18.4044
315 3 -6.62924 11.8495 17.8691
316 3 -6.84775 11.7378 15.1014
319 2 -1.54709 11.6839 13.3427
320 2 1.23384 9.61401 18.2247
330 2 -0.113253 9.15995 17.5693
336 2 -2.08669 12.0996 16.5669
248 3 0.67689 6.60296 11.6302
338 2 -0.532558 12.3015 17.7311
339 1 -1.63013 12.4476 17.6037
127 2 -5.13576 8.44378 12.8392
347 2 -0.227114 12.6333 9.86559
27 4 -0.287749 12.8514 13.4888
125 2 -5.27754 8.37362 14.902
212 1 8.79085 3.82428 8.76367
47 4 10.5842 2.3103 3.78291
50 4 10.3994 2.75917 9.01941
51 4 13.2413 2.1611 5.55759
55 4 11.7796 4.84823 2.17657
81 2 7.06164 3.66478 7.84784
57 4 12.2612 4.45284 7.19142
160 2 7.9906 3.18301 9.20683
89 2 16.5096 1.16153 3.28539
352 2 15.581 1.91402 8.55801
93 2 13.2412 5.51896 8.01563
137 2 6.78596 6.13945 4.68717
133 2 7.51193 5.17686 2.17846
134 2 8.44839 3.84566 1.28677
135 2 8.24342 3.69833 3.22329
351 1 15.2514 0.476506 1.91148
170 2 9.11564 5.6304 3.98998
157 2 8.24286 2.23253 4.61359
158 2 9.0377 4.09713 4.90656
159 2 9.65575 2.53815 5.93282
161 2 8.68395 3.97535 7.65666
166 2 13.2507 4.57062 0.0579629
167 2 12.998 3.08761 1.17805
49 4 14.1046 0.239333 8.03451
172 2 8.13954 5.36442 5.62821
203 1 7.79095 4.09095 2.18539
357 2 11.0815 2.14735 1.19379
211 1 9.1684 2.92687 4.92005
354 1 14.7065 1.73214 9.2706
214 1 13.1873 4.23835 1.14063
329 2 15.2666 1.92674 0.273636
269 3 10.0479 0.945572 2.81703
271 3 10.0377 1.28638 8.1796
272 3 14.4921 1.95243 4.56205
273 3 11.8499 1.9352 4.69991
274 3 13.2651 0.936882 6.87731
280 3 10.9728 3.63719 2.90083
281 3 12.4688 5.84136 3.30013
282 3 10.9353 5.73968 0.751961
283 3 11.5804 3.55948 8.38628
284 3 13.269 3.57249 6.32966
288 3 11.0845 5.32977 6.57354
348 2 15.3729 1.65519 1.68608
359 1 10.8067 2.5271 0.102613
353 2 13.7971 2.41032 8.94425