ITEM: TIMESTEP
0
ITEM: NUMBER OF ATOMS
371
ITEM: BOX BOUNDS xy xz yz pp pp pp
-8.8510000000000009e+00 1.7777500000000000e+01 -8.8510000000000009e+00
0.0000000000000000e+00 1.3020299999999999e+01 4.5889999999999997e-01
0.0000000000000000e+00 1.8640300000000000e+01 2.0540000000000000e-01
ITEM: ATOMS id type q x y z
3 2 -0.0233672 0.357452 0.630871 1.01762
2 2 -0.0265706 2.47349 1.21721 2.21647
345 2 0.0319144 7.40947 0.521268 8.99525
324 2 0.139321 0.969618 0.859773 8.29181
68 2 0.0415252 1.86779 1.21714 6.73712
7 4 1.0847 0.946234 2.45708 5.86232
11 4 1.27831 0.0166247 4.174 2.33706
14 4 1.29309 -0.598787 4.84374 7.43705
30 4 1.09028 5.69789 3.01889 1.50485
31 4 1.29008 1.61331 6.08035 4.02532
72 2 0.00429798 -2.00778 4.09598 7.90811
33 4 1.26264 5.53553 4.33884 8.20522
35 4 1.05395 4.1908 5.54274 5.64597
247 3 -0.818904 0.0454981 5.41423 8.70654
70 2 -0.0279181 1.02329 3.61124 1.09072
237 3 -0.818672 3.64245 0.859417 9.19877
102 2 0.143503 3.43254 1.55214 4.98176
103 2 0.202147 3.39508 3.01103 6.20954
104 2 0.158746 2.51629 3.14957 4.40117
130 2 0.155985 3.91843 2.18044 3.58971
131 2 0.151666 4.26806 1.18553 1.98142
132 2 0.155774 3.35686 2.86453 1.90104
250 3 -0.840998 4.64169 4.91098 7.04436
192 1 -0.681874 2.81849 2.39745 5.43026
202 1 -0.672303 4.15914 2.23068 2.47033
223 3 -0.813898 -0.152746 1.61827 4.92131
225 3 -0.853537 -0.936488 2.95832 2.83183
226 3 -0.829674 -0.780733 5.40923 1.74055
227 3 -0.8025 0.355776 3.62994 6.70152
229 3 -0.835913 -1.12066 6.00227 6.52657
243 3 -0.7833 6.20529 1.92284 0.416721
244 3 -0.864244 1.03046 4.80267 3.36252
245 3 -0.798272 5.05798 4.38799 0.926613
136 2 0.00923247 5.15148 5.04818 4.22408
249 3 -0.832061 2.70218 5.7064 5.16063
32 4 1.23683 4.45437 5.86345 0.576787
139 2 0.253425 2.65633 4.32364 9.31039
246 3 -0.815408 4.69945 3.26377 9.00338
254 3 -0.786214 2.62988 5.60524 0.0475778
135 2 0.113717 6.59948 3.044 3.53972
148 2 0.1541 6.24397 0.101291 7.14261
10 4 1.03475 1.76777 1.75516 11.7764
17 4 1.22396 0.0912653 4.76256 15.4314
141 2 0.213021 3.28384 6.01852 9.34783
24 4 1.28137 7.05735 1.40638 17.5564
26 4 1.46389 4.1646 2.14597 10.0839
252 3 -0.845376 6.02969 3.12186 13.5429
28 4 1.21655 4.27286 1.96223 16.2971
29 4 1.30141 6.54254 2.17533 12.3991
253 3 -0.802793 1.1135 5.61375 16.4901
36 4 1.23663 5.61643 4.04941 14.732
37 4 1.22036 2.02625 6.39473 17.6813
251 3 -0.809579 4.36674 3.50195 15.6822
248 3 -0.793733 0.361372 6.27132 11.2409
327 1 -0.681552 -0.814318 2.61625 18.4144
78 2 -0.0367004 3.61524 1.99068 17.7882
110 2 0.167719 -0.251204 2.97012 10.8759
111 2 0.179991 0.702904 3.73875 12.3726
73 2 0.0448127 -2.25812 6.19249 12.1978
113 2 0.19038 0.678614 2.95983 13.838
114 2 0.201781 0.447728 2.25315 15.6044
115 2 0.194329 1.98438 3.40428 15.2621
69 2 -0.00614752 0.480581 1.16977 10.7269
140 2 0.218746 2.72868 5.20455 10.9751
326 2 0.161853 -0.0662615 3.43524 18.4772
142 2 0.20403 2.90734 4.48656 14.0039
143 2 0.248363 2.98176 4.11463 12.2636
144 2 0.21223 2.04077 5.6972 12.7858
195 1 -0.677967 0.129089 2.75452 11.8915
196 1 -0.666872 0.875016 3.1151 14.9833
205 1 -0.643728 2.55366 5.2911 9.80718
206 1 -0.701001 2.90587 4.94572 12.9794
224 3 -0.787961 2.1004 0.826486 12.9918
230 3 -0.746439 -1.35831 4.28296 16.2198
231 3 -0.799612 -0.202389 5.64622 13.9542
18 4 1.04871 -0.481229 6.43742 12.6286
238 3 -0.824366 2.96908 2.66299 11.0496
239 3 -0.840102 3.36799 0.960464 15.4574
240 3 -0.827695 5.86342 1.45753 16.4767
241 3 -0.790934 5.42527 1.79024 11.2206
242 3 -0.775678 7.5839 0.837172 13.1618
328 2 0.153946 -0.291501 1.6512 18.1747
38 4 1.31117 4.29728 6.2374 13.0692
34 4 1.34536 0.981821 6.38222 9.668
112 2 0.14985 -0.634103 2.22174 12.5865
331 2 0.167873 -5.5231 9.58012 4.20312
201 1 -0.669204 -0.892755 12.7649 2.07602
13 4 1.04318 -0.947096 6.69596 0.800896
16 4 1.24518 -2.27471 7.16927 6.71552
20 4 1.37671 -3.23051 8.73093 9.10947
21 4 1.0619 -3.80412 10.7279 6.91133
325 1 -0.669828 -7.66118 12.5545 8.03011
40 4 0.724029 0.790616 9.47333 4.2539
42 4 0.951819 1.91464 9.12326 8.32658
74 2 -0.00814171 -4.40704 9.89031 5.46935
79 2 0.044315 0.255302 6.79043 4.85608
80 2 0.0126237 -1.46142 8.67219 6.26402
320 2 0.0512545 0.607658 8.97568 0.051285
84 2 -0.00788417 0.196099 8.69831 5.83522
86 2 -0.0191204 0.780783 10.3971 8.255
87 2 -0.0672791 2.03608 8.85081 6.74524
105 2 0.159169 -5.39431 9.0156 2.64845
106 2 0.174112 -3.76468 8.01934 1.95508
107 2 0.122718 -3.6442 9.12428 3.55678
108 2 0.0184812 -1.67761 8.01445 1.66015
262 3 -0.806017 1.26473 7.8193 9.04866
323 2 0.219643 -7.60084 12.3738 6.98913
370 3 -0.796529 -7.77909 11.7569 2.85991
145 2 0.0486911 -0.0147804 8.41313 2.88275
146 2 0.145211 -1.56786 9.24462 4.42628
147 2 0.208817 -1.36658 7.34807 4.41851
12 4 1.27746 -4.46271 7.1206 4.30336
149 2 0.131836 -2.81232 12.3408 5.36563
150 2 0.151014 -1.48187 11.4334 6.49289
193 1 -0.651111 -4.39995 8.50712 2.90686
194 1 -0.658827 -2.80253 7.14649 0.409082
334 1 -0.644805 -6.24392 10.1849 4.98128
207 1 -0.665867 -0.824312 8.36662 4.4349
208 1 -0.662265 -2.5225 11.9966 6.40946
228 3 -0.852115 -3.26936 7.23256 5.52028
233 3 -0.826452 -2.87911 7.13876 8.21957
234 3 -0.885091 -3.13574 9.75342 7.94614
235 3 -0.773849 -4.99611 11.4231 7.58412
312 2 0.0649675 -5.2051 9.18853 0.601068
257 3 -0.889926 2.11077 7.22924 3.03805
259 3 -0.764077 0.456171 10.987 4.06731
333 2 0.153953 -5.88599 11.2745 5.22878
344 2 0.153939 -0.734985 11.113 8.49712
4 3 -0.839126 -6.38625 11.8343 0.627417
1 4 0.927991 -7.17812 12.6213 1.68386
129 2 0.191136 -1.20912 12.5585 1.00066
346 1 -0.63961 -0.17807 12.0987 8.6847
6 4 1.09958 -5.84046 12.2653 8.85273
128 2 0.154662 -1.48554 12.1757 2.88892
109 2 0.19527 -3.44968 6.49336 1.05484
330 2 0.175347 -3.35975 8.12642 0.0676383
83 2 0.084757 2.50729 9.08004 4.28436
88 2 0.0245231 -1.75107 11.7787 9.82837
22 4 1.03372 -3.72947 10.9949 13.6495
121 2 0.234692 -2.56057 8.45406 12.4081
43 4 1.25191 -1.83165 10.5354 10.9902
44 4 1.27743 2.48724 9.11173 13.9145
45 4 1.48238 1.30831 11.1137 11.8666
75 2 0.109459 -2.51134 11.7976 15.0306
311 2 0.143651 -3.654 9.27858 17.2455
99 2 0.270124 -5.36107 10.2373 10.205
27 4 1.28442 -0.151749 12.742 13.9013
101 2 0.228372 -5.53134 11.791 11.3766
119 2 0.139957 -0.61048 8.49166 12.8201
120 2 0.164783 -2.13039 7.7349 14.0649
125 2 0.157445 -1.61847 9.86977 15.0848
126 2 0.0381634 -3.77339 9.30559 14.2867
267 3 -0.839128 1.90035 9.80727 12.6293
8 4 1.42237 -6.21562 12.7528 14.4293
127 2 0.169411 -3.05328 10.2174 16.2379
154 2 0.217838 0.869961 7.45199 15.0269
155 2 0.163981 0.154168 9.02674 14.2494
156 2 0.168461 1.1417 9.14228 15.8406
191 1 -0.670785 -5.88566 11.2613 10.4394
198 1 -0.663109 -1.86329 7.83214 12.9889
200 1 -0.676392 -2.55831 10.4425 15.183
209 1 -0.653684 3.22549 7.37171 16.7407
210 1 -0.691504 0.980887 8.56985 14.8334
232 3 -0.817923 -4.78068 8.58469 9.86086
236 3 -0.844807 -5.19919 11.5694 13.9326
152 2 0.221247 2.90902 7.10946 15.6941
263 3 -0.809968 -2.12222 9.12543 10.3478
264 3 -0.804141 -2.93755 10.8072 12.1875
266 3 -0.81494 -0.307507 10.743 11.4245
339 1 -0.669482 -1.33387 12.2902 17.7253
315 3 -0.837914 -6.5311 10.4314 17.0898
316 3 -0.804812 -7.63683 12.0251 15.1991
319 2 -0.00333138 -0.953967 11.3648 14.5582
313 1 -0.656022 -3.71313 10.0725 18.0863
116 2 0.181725 -3.76913 7.33384 12.4371
336 2 0.181681 -1.57616 11.5884 16.8735
265 3 -0.758121 3.48912 7.53034 13.4932
338 2 0.180108 -0.238881 12.2407 17.9699
317 2 0.0676733 -3.9929 11.5985 17.2973
310 2 0.160822 -2.75283 10.2375 18.5855
347 2 0.259049 0.663224 12.017 9.54942
100 2 0.144503 -7.08729 11.1188 10.4884
309 4 1.02432 -5.5255 10.9278 18.2028
151 2 0.191291 2.87622 8.45274 17.0814
337 2 0.146803 -2.04553 12.1658 18.5783
255 3 -0.802465 0.766535 7.47876 18.6307
71 2 0.127586 -1.94077 6.6608 17.8342
25 4 0.70252 8.92678 1.0589 8.00621
47 4 1.26932 10.9328 1.86955 4.28168
161 2 0.179637 9.99856 5.70608 8.74746
51 4 1.4965 13.5061 2.30501 5.82083
55 4 1.3168 12.1352 4.49886 2.64277
357 2 0.221035 11.0524 2.06351 1.55636
57 4 1.25846 12.346 4.67564 7.44643
170 2 0.168691 8.44113 6.02125 4.52423
350 2 0.146811 15.9798 1.02319 1.57715
358 2 0.190921 10.0122 0.923236 0.465976
93 2 0.0698669 13.3398 5.8963 8.12457
284 3 -0.774582 13.0965 3.83794 6.2116
133 2 0.168284 7.56925 4.56975 2.8206
134 2 0.160713 8.22487 2.8263 2.53904
56 4 0.909961 10.253 5.87878 0.327001
216 1 -0.670376 8.70561 6.07833 5.60885
89 2 0.00984572 15.4932 0.456096 3.1756
157 2 0.163161 8.72205 1.04053 5.0343
158 2 0.174929 8.41584 2.64111 4.09769
159 2 0.148438 9.40078 2.67511 5.8253
366 2 0.194998 8.215 4.28441 0.938368
166 2 0.237063 13.3003 3.25496 0.708351
167 2 0.200576 13.5024 2.52243 2.41425
356 2 0.190592 9.90626 3.05639 0.333877
172 2 0.168705 8.69518 5.02994 6.03427
203 1 -0.653546 7.32773 3.52074 2.67763
288 3 -0.827135 11.0993 5.45039 6.79329
211 1 -0.67655 9.12068 2.04896 4.86945
81 2 -0.0503568 6.85889 3.54673 7.5637
214 1 -0.674634 13.5399 3.49217 1.80782
359 1 -0.650038 10.6231 1.99548 0.500616
269 3 -0.799681 10.6129 0.421057 3.16005
271 3 -0.800438 9.89652 2.14428 8.86083
272 3 -0.841135 14.6538 2.38018 4.64672
273 3 -0.797348 12.0727 1.45403 5.38116
274 3 -0.805263 14.1545 1.53262 7.21476
280 3 -0.797522 11.4422 3.17376 3.4914
281 3 -0.754657 12.9214 5.68029 3.45581
282 3 -0.77157 11.1687 5.21714 1.46656
283 3 -0.816048 11.9263 3.82224 8.7013
77 2 -0.0250351 8.15096 1.75825 6.54645
371 3 -0.781819 13.0653 0.323239 0.23741
5 4 1.31982 15.945 1.92318 3.95965
360 2 0.248906 14.4614 4.09616 1.93549
329 2 0.18266 15.2328 2.2822 0.640439
285 3 -0.836632 6.2143 5.28445 9.27915
355 2 0.178775 16.6755 0.212342 8.94361
335 2 0.182228 8.08697 1.03569 2.3033
9 4 1.17738 15.3993 2.82261 16.9578
48 4 1.22086 12.4445 1.60234 18.0882
368 2 0.157999 8.46866 5.43095 17.9281
53 4 1.38786 9.85874 1.71868 16.1376
54 4 0.993383 11.8228 2.30769 12.2065
60 4 0.956769 11.6275 3.65356 14.9554
82 2 0.005533 6.98697 4.22962 15.7261
212 1 -0.662323 9.64008 4.99764 9.5446
91 2 -0.0260006 13.379 2.01173 11.6432
94 2 -0.00440029 11.1718 6.20696 9.74845
95 2 0.102233 12.777 3.35875 16.2506
96 2 -0.0282311 11.8084 5.34389 14.8154
361 2 0.195551 12.6284 5.45147 17.4918
117 2 0.133291 12.4355 5.76013 11.937
256 3 -0.787819 5.32052 5.67002 14.1891
50 4 1.3459 10.6405 3.27018 9.59998
162 2 0.184669 9.72711 5.43224 10.6319
163 2 0.18449 8.58387 3.53185 12.3045
164 2 0.216691 7.29854 3.89942 10.9392
165 2 0.189953 8.47724 2.41279 10.8141
276 3 -0.840836 9.3193 0.596465 15.1815
92 2 0.0796725 11.1361 0.809877 12.4515
213 1 -0.681699 7.87357 3.11037 11.4671
367 2 0.23264 9.38228 3.89544 17.9039
270 3 -0.753434 13.5726 3.08839 17.5924
275 3 -0.833579 15.5594 1.45263 16.0636
352 2 0.152961 15.5146 1.51568 9.56405
277 3 -0.757134 11.4613 1.1809 16.8418
278 3 -0.778339 8.58003 1.94615 17.2517
279 3 -0.850256 11.0909 3.03145 11.0979
174 2 0.1607 10.1358 6.39482 13.4664
289 3 -0.791759 10.1603 3.3749 15.5223
290 3 -0.831667 12.0787 2.9982 13.6119
175 2 0.191443 8.37919 5.65389 13.3601
341 2 0.161597 6.31785 5.68898 17.3935
364 2 0.144089 11.0776 5.85789 16.4431
369 1 -0.656412 9.1372 4.7797 18.5466
354 1 -0.666614 15.6402 0.399129 9.35982
362 1 -0.649663 11.6949 6.12391 17.3697
286 3 -0.770704 4.98999 6.43005 11.37
160 2 0.188018 8.62418 4.54896 9.36773
19 4 1.115 9.3246 10.6871 4.15161
23 4 1.24476 0.822871 12.1283 2.58144
299 3 -0.790394 4.24777 12.1345 8.57959
46 4 1.33607 5.24351 11.9558 0.994298
215 1 -0.679351 9.51105 7.70614 0.655374
186 2 0.133392 9.06378 10.0745 9.24708
62 4 1.32451 4.62902 10.5042 3.93029
64 4 1.08892 7.28423 8.84019 8.45479
66 4 1.49734 6.88785 10.6088 5.98045
138 2 0.212743 5.38231 6.79845 3.90099
85 2 0.203784 5.12389 7.62539 5.7054
98 2 0.00180495 8.7091 7.83046 8.30132
122 2 0.177191 9.33666 8.3403 3.30302
123 2 0.187494 8.37559 9.65955 2.22953
124 2 0.200817 7.58074 8.86231 3.70461
260 3 -0.857753 2.91732 9.08074 1.19869
59 4 1.12335 10.4682 6.76644 6.15884
168 2 0.156506 8.50187 7.3861 1.01598
171 2 0.136367 8.18243 6.92964 6.19409
179 2 0.151064 2.60198 10.7761 5.48938
180 2 0.282445 2.79222 12.1598 4.21523
181 2 0.207926 4.08134 11.962 5.66822
182 2 0.143178 9.72284 9.06848 7.12722
365 2 0.177023 10.1815 8.10782 1.43032
184 2 0.181057 10.4083 8.19529 8.65511
41 4 1.27377 1.93773 10.0216 0.411462
199 1 -0.661821 8.56277 9.18636 3.24643
351 1 -0.69288 6.97565 12.6807 1.28751
219 1 -0.671716 3.27601 11.4365 4.9578
220 1 -0.702571 10.4769 8.2969 7.53955
322 2 0.156446 9.06181 11.7503 8.67344
204 1 -0.655122 5.59993 6.72205 5.0127
298 3 -0.750095 3.29323 9.50403 8.97071
287 3 -0.799097 11.3019 7.246 4.93993
293 3 -0.777266 4.00188 8.93902 3.79257
294 3 -0.795573 4.81479 11.325 2.45017
183 2 0.180034 11.5619 8.60189 7.31663
49 4 1.3409 5.54022 12.8808 7.92574
349 2 0.196418 7.3293 11.9841 2.12855
301 3 -0.808924 8.37508 10.9916 5.41566
302 3 -0.879324 5.9191 10.5279 4.78963
303 3 -0.815076 6.85689 9.21562 7.06358
304 3 -0.798076 6.39967 11.7938 7.11479
258 3 -0.843817 4.53384 7.07926 1.62343
76 2 0.0457219 0.92817 12.3949 7.28539
348 2 0.162129 7.48272 12.4547 0.275972
261 3 -0.840612 1.41136 11.1594 1.45263
39 4 1.47197 3.34915 7.99428 2.21211
137 2 0.177248 6.76532 6.52239 5.2505
332 2 0.187367 10.8064 9.54022 5.92796
342 2 0.151962 6.58126 6.66641 0.0369062
296 3 -0.836452 5.71568 10.747 0.0215709
15 4 0.988451 11.6031 7.58431 10.7585
58 4 1.53747 6.2003 6.54232 10.3354
61 4 1.04097 8.52756 7.58576 12.0682
63 4 1.23055 6.64443 9.95284 17.5561
292 3 -0.791602 7.60078 6.57781 11.1717
67 4 1.44255 4.22484 10.8493 16.2088
97 2 0.0173132 6.873 8.50102 18.4259
52 4 0.998728 6.33743 12.8545 15.5384
353 2 0.134234 6.63201 12.5397 10.2884
321 2 0.092005 7.46923 11.7316 16.0292
176 2 0.148126 8.3916 10.0512 12.5502
177 2 0.179345 7.27154 9.06359 13.7176
178 2 0.172928 6.61822 9.49298 11.9865
340 2 0.173196 6.22434 7.487 17.021
187 2 0.173656 7.82953 9.91476 10.7902
188 2 0.225844 5.41571 9.68764 10.6505
189 2 0.1769 4.5552 10.665 11.9372
190 2 0.137894 5.9663 11.5202 10.9588
268 3 -0.842548 1.03909 12.2963 12.8765
218 1 -0.66931 7.5592 9.24833 12.6727
222 1 -0.679529 5.06039 10.7212 10.9385
314 4 1.14291 9.72365 10.6176 15.9482
343 1 -0.671221 6.17376 6.71269 17.8682
118 2 0.159588 11.8862 7.11708 13.1845
197 1 -0.673042 12.4747 6.95535 12.2707
291 3 -0.741996 10.0711 8.09136 11.1756
90 2 -0.027512 6.78347 12.8754 13.9188
295 3 -0.802248 8.04706 10.321 16.6877
173 2 0.139029 8.77894 7.20674 14.4795
300 3 -0.799459 2.14684 11.6586 10.5274
305 3 -0.771674 3.25334 10.1157 15.0266
306 3 -0.807279 5.47171 9.78115 16.4696
307 3 -0.805255 4.8621 12.2971 15.6223
308 3 -0.760496 3.0823 10.6959 17.6401
318 2 -0.0244564 10.1051 9.52101 14.778
65 4 1.21375 3.69961 11.0301 9.68533
363 2 0.138332 11.9488 7.32062 17.505
153 2 0.207521 4.38363 7.12088 17.0614
221 1 -0.663944 7.95053 10.2519 9.61879
297 3 -0.79118 6.29965 7.88664 9.46858
185 2 0.188156 7.46494 11.2999 9.39705
169 2 0.17658 9.91966 8.44058 18.3135
217 1 -0.67122 9.06535 6.58061 13.5463
ITEM: TIMESTEP
100
ITEM: NUMBER OF ATOMS
371
ITEM: BOX BOUNDS xy xz yz pp pp pp
-8.8510000000000009e+00 1.7751870199999999e+01 -8.8510000000000009e+00
0.0000000000000000e+00 1.3020299999999999e+01 4.3327019999999905e-01
0.0000000000000000e+00 1.8640300000000000e+01 2.0540000000000000e-01
ITEM: ATOMS id type q x y z
3 2 -0.0115413 0.295603 0.611102 1.29923
2 2 -0.0243476 2.60809 1.11495 2.16162
345 2 0.0329584 7.32865 0.370574 8.9902
324 2 0.127355 0.905196 0.77033 8.36887
68 2 0.0236138 1.91387 1.27649 6.96177
7 4 1.10783 0.870158 2.48817 6.0951
11 4 1.26498 0.109835 4.19311 2.26595
14 4 1.24905 -0.70817 4.81935 7.46006
30 4 1.1082 5.71093 2.95174 1.59507
31 4 1.28322 1.65594 6.07285 4.01389
72 2 0.0068725 -2.02659 3.97725 8.11462
33 4 1.28392 5.56984 4.26897 8.26086
35 4 1.0512 4.24636 5.50439 5.61878
247 3 -0.801314 0.104991 5.48286 8.6909
70 2 -0.015628 1.23154 3.48171 1.20882
360 2 0.232442 -2.88854 4.39407 1.83542
102 2 0.162089 2.77966 1.48703 4.77991
103 2 0.169816 3.36236 2.37959 6.3248
104 2 0.194334 2.5932 3.46945 4.93407
130 2 0.143167 4.3174 2.55473 3.7104
131 2 0.150608 4.29722 1.01684 2.54756
132 2 0.155613 3.35295 2.61411 2.05741
250 3 -0.823133 4.81863 4.87217 6.97838
192 1 -0.690568 2.66553 2.40501 5.46237
202 1 -0.658778 4.23578 2.14425 2.60095
223 3 -0.829163 -0.134373 1.78007 5.01115
225 3 -0.831963 -0.779001 2.88075 2.75155
226 3 -0.852399 -0.725748 5.23772 1.42148
227 3 -0.808427 0.437674 3.67874 6.93512
229 3 -0.803193 -1.25087 5.86192 6.37255
243 3 -0.791348 6.02236 1.91089 0.456189
244 3 -0.859999 0.98404 4.79277 3.47346
245 3 -0.788546 5.14975 4.42466 1.23485
136 2 0.0107294 5.27711 4.91208 4.3229
249 3 -0.839716 2.75855 5.90419 5.1862
32 4 1.2271 4.56932 5.81737 0.607637
148 2 0.156919 5.66126 0.192208 6.80503
246 3 -0.854693 4.70951 3.25726 9.06306
109 2 0.179453 -3.28145 6.35242 0.824125
139 2 0.246335 2.41238 4.48336 9.29514
10 4 1.07883 1.8868 1.77296 11.8688
17 4 1.1848 0.144011 4.83963 15.4891
112 2 0.156883 -0.67435 2.02295 12.6519
24 4 1.29023 7.06765 1.40939 17.5827
26 4 1.44434 4.27109 2.25726 10.1766
252 3 -0.780873 6.04561 3.1278 13.5768
28 4 1.24923 4.3913 1.87733 16.1899
29 4 1.29714 6.58727 2.15505 12.3573
253 3 -0.782636 1.33455 5.40426 16.622
36 4 1.22432 5.56811 4.1943 14.749
37 4 1.22341 2.18709 6.4059 17.6335
251 3 -0.788712 4.24876 3.36833 15.4608
248 3 -0.809214 0.179827 6.29912 11.2196
327 1 -0.673234 -0.821624 2.63259 18.294
78 2 -0.0235147 3.66013 2.05482 17.707
110 2 0.154525 -0.409128 2.43853 10.8498
111 2 0.165633 0.539915 3.59415 12.1765
73 2 0.0397465 -2.32005 6.08003 12.3262
113 2 0.179241 0.516784 2.93893 13.7987
114 2 0.17375 0.409404 2.57069 15.7846
115 2 0.226541 2.04458 3.3742 14.9751
69 2 0.0134753 0.808333 1.06822 10.6421
140 2 0.228289 2.7572 5.31313 11.0242
34 4 1.36808 0.900267 6.35629 9.75698
142 2 0.215645 3.03741 4.74659 14.0424
143 2 0.260161 2.88224 4.23139 12.2488
144 2 0.186877 2.01455 5.90445 12.9923
195 1 -0.660434 0.0637693 2.41465 11.8877
196 1 -0.637441 0.89965 3.27481 14.9231
205 1 -0.636642 2.58903 5.4297 9.87548
206 1 -0.672726 2.93805 5.18146 12.9946
224 3 -0.803083 2.08417 0.751377 13.0179
230 3 -0.748055 -1.32037 4.22785 16.2021
231 3 -0.791288 -0.218188 5.71454 13.9235
18 4 1.05927 -0.64214 6.46267 12.6146
238 3 -0.80959 2.76971 2.90161 11.1748
239 3 -0.834779 3.42827 0.872208 15.404
240 3 -0.858681 5.86762 1.42131 16.497
241 3 -0.835162 5.50847 1.84475 11.1189
242 3 -0.809888 7.51989 0.810363 13.0289
328 2 0.147888 -0.423397 1.5499 17.9979
38 4 1.30029 4.27174 6.50833 13.018
326 2 0.206143 -0.116082 3.45549 18.388
254 3 -0.782136 3.32884 5.70619 18.5157
237 3 -0.819679 3.60781 0.911084 9.44271
141 2 0.216599 3.29252 6.14569 9.3289
331 2 0.187856 -5.46352 9.47088 4.17708
201 1 -0.64071 -0.762995 12.7664 2.17355
13 4 1.06838 -0.794006 6.68013 0.797373
16 4 1.19655 -2.26196 7.18197 6.68533
20 4 1.30734 -3.20738 8.65362 9.09134
21 4 1.05018 -3.8403 10.7441 7.0856
325 1 -0.660529 -7.70397 12.5244 7.97713
40 4 0.702379 0.865281 9.51474 4.2893
42 4 0.937224 1.85424 9.09317 8.37849
74 2 -0.0107159 -4.30944 9.98277 5.58182
79 2 0.0151691 0.367171 7.00253 4.72152
80 2 0.00624096 -1.35963 8.65721 6.37905
83 2 0.0577768 2.50662 8.99682 4.62669
84 2 -0.00159876 0.283879 8.52331 5.87477
86 2 -0.0296134 0.712019 10.3306 8.03967
87 2 -0.0454664 2.25855 8.6776 6.83404
105 2 0.156075 -5.07968 8.74458 2.69747
106 2 0.1871 -3.50308 7.83773 1.98765
107 2 0.149996 -3.4273 9.06668 3.4082
108 2 0.00959919 -1.52467 7.93006 1.73925
262 3 -0.799897 1.2267 7.80965 9.13399
323 2 0.205219 -7.58256 12.3635 6.78842
370 3 -0.794818 -7.54465 11.7485 3.05233
145 2 0.018394 0.225741 8.51578 2.92286
146 2 0.150359 -1.51745 9.47845 4.46634
147 2 0.177146 -1.28243 7.63446 4.22483
12 4 1.2914 -4.45198 6.99232 4.30123
149 2 0.134632 -2.52617 11.9693 5.30057
150 2 0.168416 -1.70907 11.9125 6.99928
193 1 -0.667154 -4.04895 8.29737 2.94958
194 1 -0.656972 -2.62793 7.16272 0.339662
334 1 -0.647559 -6.12588 10.0617 4.83262
207 1 -0.67152 -0.796493 8.58247 4.51037
208 1 -0.680786 -2.67659 12.0523 6.43105
228 3 -0.841595 -3.45437 7.22662 5.57997
233 3 -0.829632 -2.79865 7.11411 8.18374
234 3 -0.897924 -3.04107 9.87644 8.07276
235 3 -0.808498 -5.10796 11.5395 7.73662
312 2 0.0786432 -5.17592 8.99301 0.411665
257 3 -0.893584 2.12908 6.99318 2.82754
259 3 -0.773664 0.612117 11.0835 4.15801
333 2 0.160645 -5.72754 11.0664 5.03612
344 2 0.161271 -0.720644 10.9195 8.59702
4 3 -0.822049 -6.61207 11.6227 0.663908
1 4 0.926388 -7.18706 12.571 1.75816
129 2 0.185085 -1.12277 12.5982 1.02745
346 1 -0.653118 -0.266654 11.9043 8.65961
6 4 1.13008 -5.88272 12.3703 8.77067
128 2 0.153572 -1.44562 12.3287 3.00058
337 2 0.141264 -2.51941 12.0607 0.162701
310 2 0.15915 -3.45827 10.4094 0.338946
330 2 0.17736 -3.23012 8.16645 0.132526
88 2 0.0240921 -1.97905 11.5243 9.50538
22 4 1.0216 -3.68355 11.0892 13.6171
121 2 0.220938 -2.81162 8.38278 12.5277
43 4 1.19783 -1.8949 10.5069 10.9031
44 4 1.363 2.58985 9.29823 13.8883
45 4 1.43049 1.11812 11.005 11.8486
75 2 0.0892128 -2.66577 12.2705 14.802
311 2 0.157938 -3.20993 9.49436 17.4994
99 2 0.269069 -5.61909 10.0349 10.083
27 4 1.30103 -0.181174 12.8516 13.8168
101 2 0.219596 -5.25813 11.7714 10.8817
119 2 0.155038 -0.859168 8.63869 12.8623
120 2 0.148047 -2.08971 7.6264 14.1443
125 2 0.147362 -1.69608 10.0614 14.9785
126 2 0.0561737 -3.6819 9.36364 14.4249
267 3 -0.870581 2.03238 9.98128 12.5568
8 4 1.44177 -6.32858 12.6844 14.401
127 2 0.158916 -2.93634 10.5119 16.4398
154 2 0.188156 1.06434 7.51743 14.8456
155 2 0.134721 0.233628 9.14529 14.3434
156 2 0.175714 1.17164 9.00902 15.9686
191 1 -0.654518 -5.9772 11.1255 10.2243
198 1 -0.652853 -1.91808 7.81589 13.0096
200 1 -0.651228 -2.64067 10.5921 15.2174
209 1 -0.657985 3.1802 7.53105 16.6089
210 1 -0.684036 1.1064 8.65074 14.938
232 3 -0.783591 -4.9069 8.35592 9.84558
236 3 -0.783671 -5.30021 11.4314 13.8151
152 2 0.202631 2.91632 7.0254 15.5542
263 3 -0.759391 -2.22257 8.91404 10.4755
264 3 -0.787217 -2.95214 10.9469 12.1361
266 3 -0.865265 -0.39072 10.5779 11.4818
339 1 -0.659077 -1.39145 12.3238 17.8417
315 3 -0.7992 -6.53585 10.526 16.93
316 3 -0.817065 -7.70619 11.9858 14.9515
319 2 -0.00843614 -1.04196 11.4921 14.4096
313 1 -0.661016 -3.71496 10.1098 18.2757
116 2 0.174784 -3.79154 7.23197 12.6121
336 2 0.179017 -1.77714 11.7033 16.916
265 3 -0.788591 3.58763 7.88344 13.5268
338 2 0.191995 -0.292744 12.1212 18.072
317 2 0.0464703 -4.10299 11.7428 17.4755
347 2 0.25095 0.635964 11.9108 9.44291
255 3 -0.806024 0.831638 7.44286 18.51
100 2 0.165248 -7.04846 11.1565 10.4633
309 4 0.996364 -5.53936 10.9043 18.1875
151 2 0.182856 2.82604 8.62929 16.8208
320 2 0.0723541 1.59217 8.95657 18.6031
71 2 0.146248 -1.89728 6.82542 17.8102
25 4 0.672044 8.74776 0.929865 7.94869
47 4 1.3199 11.0104 1.88157 4.21709
161 2 0.163854 9.41597 5.86272 9.19477
51 4 1.52391 13.6093 2.2171 5.92405
55 4 1.30179 12.2146 4.48233 2.63355
357 2 0.210097 11.5073 2.18134 1.69091
57 4 1.25928 12.3492 4.68502 7.43683
170 2 0.173129 8.26988 6.31303 4.56467
350 2 0.156495 15.9196 1.0198 1.71807
358 2 0.22351 10.0149 1.3084 0.824912
93 2 0.079678 13.3138 5.96806 7.86747
284 3 -0.781071 13.2625 3.73873 6.46572
133 2 0.172523 7.45173 4.45397 2.8001
134 2 0.176916 8.19626 2.88317 2.01406
56 4 0.919544 10.3088 5.84445 0.200005
216 1 -0.670457 8.5293 6.2841 5.65932
89 2 0.0209412 15.7378 0.443779 3.39888
157 2 0.158294 9.07173 1.04258 5.07191
158 2 0.19273 8.56649 2.68659 4.1946
159 2 0.181742 9.28208 2.79097 5.95805
366 2 0.189295 8.43846 4.09275 0.966307
166 2 0.245596 13.2784 3.38739 0.546183
167 2 0.17845 13.6908 2.71859 2.33682
356 2 0.191149 10.1506 3.1102 0.506647
172 2 0.157444 8.17737 5.37168 6.24799
203 1 -0.666244 7.43126 3.31167 2.64097
288 3 -0.817382 10.9541 5.3355 6.84164
211 1 -0.642215 9.25766 2.17911 5.01572
81 2 -0.055716 6.89331 3.38605 7.58235
214 1 -0.69283 13.5548 3.63944 1.65856
359 1 -0.643141 10.7989 2.06345 0.745512
269 3 -0.80266 10.6952 0.70074 3.23487
271 3 -0.719117 9.72595 2.07366 8.77456
272 3 -0.860649 14.6053 2.36541 4.6616
273 3 -0.796027 12.085 1.55423 5.35929
274 3 -0.834424 14.089 1.41752 7.26106
280 3 -0.761311 11.2453 3.47937 3.50832
281 3 -0.793014 12.9879 5.58885 3.49005
282 3 -0.737352 11.1963 5.19835 1.31642
283 3 -0.812853 12.1201 3.87617 8.7686
77 2 -0.0264024 8.0466 1.57483 6.47485
371 3 -0.77825 12.9717 0.280934 0.35356
5 4 1.29366 16.0144 1.98796 4.00783
335 2 0.168998 8.40391 1.1206 2.36898
329 2 0.190584 15.2905 2.46685 0.503505
285 3 -0.861118 6.11176 5.4335 9.13716
355 2 0.163105 16.717 0.127379 8.93407
160 2 0.158568 8.69852 4.14944 9.08209
135 2 0.131761 6.99902 2.6909 3.50869
9 4 1.1724 15.28 2.82668 16.8863
48 4 1.22099 12.4176 1.57935 18.1847
368 2 0.149999 8.49733 5.42162 18.1325
53 4 1.42382 9.85315 1.72556 16.1321
54 4 0.997522 11.8374 2.27872 12.1759
60 4 0.961758 11.5984 3.6219 14.8764
82 2 -0.007956 6.81753 4.34785 15.8928
212 1 -0.662065 9.50684 4.84159 9.66621
91 2 -0.0294297 13.3948 1.79726 11.7108
94 2 0.00811679 11.0295 6.03192 9.84032
95 2 0.0848229 12.7426 3.49076 16.148
96 2 -0.030851 11.5679 5.30601 14.6853
361 2 0.192918 12.7062 5.6688 17.3311
117 2 0.137192 12.5844 5.63531 11.7944
256 3 -0.790474 5.24313 5.61276 14.1753
50 4 1.28024 10.7799 3.36321 9.60342
162 2 0.199196 9.29481 4.95084 10.7638
163 2 0.187935 8.65804 3.43285 12.3939
164 2 0.214127 7.40203 4.26623 11.2932
165 2 0.183791 8.22792 2.70868 10.6571
276 3 -0.834713 9.20639 0.734934 15.0944
92 2 0.125651 11.1154 0.753959 12.4387
213 1 -0.678721 7.88037 3.28889 11.5808
367 2 0.201238 9.65993 4.00079 17.8358
270 3 -0.764552 13.4761 3.09784 17.5194
275 3 -0.835147 15.2876 1.41557 16.052
352 2 0.157698 15.352 1.37994 9.64879
277 3 -0.763293 11.1661 1.08691 17.1955
278 3 -0.771955 8.48279 2.01355 17.2357
279 3 -0.849753 11.1434 3.07113 11.0495
217 1 -0.662448 8.9271 6.38847 13.6916
289 3 -0.828048 10.1892 3.16865 15.4
290 3 -0.837839 12.101 2.96949 13.5671
175 2 0.190344 8.64937 5.43215 13.2731
341 2 0.146758 5.79271 5.67021 17.0505
364 2 0.134682 11.1614 5.8204 16.3282
369 1 -0.65373 9.29058 4.77446 18.5988
354 1 -0.685438 15.6489 0.314834 9.44741
362 1 -0.673777 11.7993 6.25521 17.1246
286 3 -0.739843 5.04814 6.42533 11.5119
174 2 0.148002 10.0125 6.55752 13.8558
342 2 0.140762 7.0363 6.59136 18.1216
19 4 1.13734 9.37189 10.6021 4.11879
23 4 1.10653 0.862074 12.0576 2.66162
299 3 -0.777859 4.22371 12.0997 8.65172
46 4 1.34677 5.2664 11.9739 0.936339
215 1 -0.667224 9.7049 7.55071 0.895977
186 2 0.132709 9.12823 10.0373 9.19414
62 4 1.30739 4.61993 10.4766 3.90841
64 4 1.08396 7.35044 8.75067 8.42745
66 4 1.50679 6.91339 10.7534 6.08468
138 2 0.237399 5.3496 6.81752 3.73088
85 2 0.219901 4.87823 7.67177 5.44776
98 2 -0.0229387 8.70194 7.6491 8.14497
122 2 0.18532 9.18982 8.29605 3.38117
123 2 0.178882 8.39189 9.49383 2.13697
124 2 0.209407 7.37564 9.05791 3.76832
260 3 -0.88299 3.00507 9.00643 1.2928
59 4 1.08846 10.354 6.66452 6.0749
168 2 0.172099 8.653 7.45526 1.27859
171 2 0.140395 8.16771 7.29971 6.18293
179 2 0.169183 2.70747 11.1166 5.66685
180 2 0.254657 3.04471 12.2629 4.28265
181 2 0.225838 4.28517 12.0159 5.60442
182 2 0.161681 9.71681 9.08586 7.14953
365 2 0.187036 10.4708 7.75506 1.67859
184 2 0.170464 10.3929 8.0709 8.47739
41 4 1.34305 2.16449 9.97223 0.416081
199 1 -0.656081 8.45835 9.16581 3.22664
351 1 -0.685979 6.95739 12.6411 1.52192
219 1 -0.67969 3.49752 11.5292 4.98316
220 1 -0.695323 10.4216 8.27217 7.39833
322 2 0.16449 8.96972 11.6448 8.50282
204 1 -0.657399 5.46632 6.76808 4.86412
298 3 -0.783579 3.163 9.73286 9.08231
287 3 -0.775269 11.1961 7.273 4.81381
293 3 -0.808004 3.96141 8.99232 3.91697
294 3 -0.789487 4.8233 11.35 2.3883
332 2 0.185267 10.8945 9.42686 5.81594
49 4 1.36253 5.60948 12.8472 7.9056
349 2 0.188003 7.22916 11.9384 2.40076
301 3 -0.793332 8.4736 10.9831 5.39454
302 3 -0.834704 5.90913 10.4587 4.84589
303 3 -0.825058 7.00302 9.40759 7.11541
304 3 -0.869472 6.39337 12.0362 6.85552
258 3 -0.821161 4.64361 6.96214 1.80617
76 2 0.0366437 0.69964 12.3423 7.13202
348 2 0.160109 7.53808 12.2877 0.528104
261 3 -0.808084 1.36464 10.9741 1.16347
39 4 1.42112 3.40442 7.90619 2.36705
183 2 0.168425 11.4873 8.61045 7.11443
137 2 0.183914 6.59872 6.63082 5.17344
169 2 0.153741 9.83844 8.28224 0.026923
15 4 1.01723 11.5371 7.3862 10.8152
58 4 1.48647 6.25453 6.58869 10.2253
61 4 1.07591 8.53956 7.53921 12.0073
63 4 1.176 6.49919 9.91562 17.4521
292 3 -0.840806 7.53852 6.6732 11.0647
67 4 1.46408 4.13908 10.8783 16.1289
97 2 0.000703457 6.73109 8.38718 18.2147
52 4 1.02478 6.27666 12.8451 15.4047
353 2 0.14792 6.60262 12.5072 10.3284
321 2 0.0983112 7.43763 11.7367 15.9229
176 2 0.162304 8.40055 9.93908 12.3444
177 2 0.1476 7.54827 8.83751 13.684
178 2 0.200104 6.67229 9.33815 12.0611
340 2 0.185267 5.66565 7.60603 17.1866
187 2 0.177881 7.86496 9.78811 10.6192
188 2 0.250027 5.27798 9.79606 10.4698
189 2 0.198324 4.43841 10.6918 11.9677
190 2 0.156137 5.61391 11.6346 10.8027
268 3 -0.791765 1.1328 12.4863 13.0145
218 1 -0.675884 7.61798 9.1395 12.5227
222 1 -0.668953 4.87538 10.7943 10.9311
314 4 1.15322 9.59721 10.5967 15.8241
343 1 -0.696363 5.96027 6.64572 17.704
118 2 0.159152 11.6905 6.81635 13.101
197 1 -0.653658 12.4571 6.78239 12.2653
291 3 -0.783203 10.0812 7.88306 11.3527
296 3 -0.831346 6.2065 11.0698 18.5101
295 3 -0.789065 8.11069 10.4301 16.6361
173 2 0.153293 8.22148 6.79345 14.5056
300 3 -0.778906 1.94069 11.827 10.6225
305 3 -0.829965 3.31204 10.1866 14.9127
306 3 -0.801698 5.34147 9.66957 16.4187
307 3 -0.831081 4.87869 12.2271 15.5273
308 3 -0.775252 3.3573 10.8013 17.7508
318 2 -0.0264092 9.641 9.34183 14.844
65 4 1.26671 3.47578 11.1315 9.72241
363 2 0.153303 12.0424 7.35334 16.9023
153 2 0.207815 4.2834 7.24455 16.9328
221 1 -0.661249 7.99695 10.1768 9.50362
297 3 -0.769855 6.1796 8.10117 9.40712
185 2 0.1772 7.60434 11.2766 9.4042
90 2 -0.0328201 6.70338 12.7657 13.8193
ITEM: TIMESTEP
200
ITEM: NUMBER OF ATOMS
371
ITEM: BOX BOUNDS xy xz yz pp pp pp
-8.8510000000000009e+00 1.7726240399999998e+01 -8.8510000000000009e+00
0.0000000000000000e+00 1.3020299999999999e+01 4.0764039999999824e-01
0.0000000000000000e+00 1.8640300000000000e+01 2.0540000000000000e-01
ITEM: ATOMS id type q x y z