ITEM: TIMESTEP
0
ITEM: NUMBER OF ATOMS
371
ITEM: BOX BOUNDS xy xz yz pp pp pp
-8.8510000000000009e+00 1.7777500000000000e+01 -8.8510000000000009e+00
0.0000000000000000e+00 1.3020299999999999e+01 4.5889999999999997e-01
0.0000000000000000e+00 1.8640300000000000e+01 2.0540000000000000e-01
ITEM: ATOMS id type x y z
1 4 2.16028 0.974246 2.86266
2 2 3.78114 1.26403 3.14187
3 2 1.43419 2.40919 3.2814
4 3 2.09934 0.739384 1.26194
68 2 0.721133 0.692995 7.33902
7 4 0.57787 2.26284 6.49041
11 4 -0.235755 4.50912 2.58989
14 4 -0.867463 4.4822 8.02494
360 2 -2.95021 4.75463 1.61866
31 4 1.77081 6.1078 4.25093
32 4 4.50321 5.41719 0.61322
33 4 5.49325 4.41093 8.46199
35 4 4.38964 5.80101 5.71341
30 4 6.26043 2.98877 1.81806
70 2 0.35361 3.60717 1.28986
335 2 7.23322 0.490605 1.34655
102 2 2.43252 3.31108 5.08973
103 2 2.6789 1.5611 5.94108
104 2 2.88147 3.27147 6.95824
130 2 5.54307 0.894693 3.12578
131 2 4.84918 2.46864 3.98753
132 2 6.71201 2.14342 3.87099
324 2 2.44408 1.37276 8.53536
192 1 2.37992 2.68579 6.05427
202 1 5.67824 1.96208 3.36635
223 3 -0.404322 2.19124 5.28266
225 3 -1.33255 3.70923 3.36192
226 3 -0.945213 5.80326 1.75076
227 3 0.132547 3.35468 7.57988
229 3 -1.33995 5.45972 6.69084
243 3 6.51005 1.89435 0.661003
244 3 1.13452 4.84271 3.449
245 3 5.10557 4.26173 1.59988
325 1 2.34217 0.251874 8.35518
249 3 2.92372 5.78347 5.22398
250 3 4.83326 5.15527 7.15609
247 3 -0.241006 5.35176 9.22352
139 2 3.08825 5.40226 8.69434
10 4 2.17356 1.30775 11.6326
17 4 0.405296 4.31477 15.3517
18 4 -0.488708 6.11206 12.7497
24 4 7.30956 1.49623 17.4926
26 4 4.75812 2.40808 10.5511
38 4 4.33707 6.38309 12.962
28 4 4.51785 2.08646 16.1608
251 3 4.58765 3.4613 15.3236
246 3 4.53275 3.48454 9.34018
326 2 -0.428238 2.49902 18.0906
37 4 2.41286 5.76833 17.4656
69 2 1.69269 0.465897 10.2061
36 4 5.65153 4.42193 14.7816
73 2 -1.99344 5.67261 12.0906
78 2 3.33103 2.50298 17.2985
110 2 0.226101 1.68527 10.5008
111 2 0.37577 3.19492 11.6308
112 2 -0.219069 1.55548 12.3534
113 2 2.24591 3.0183 14.8098
114 2 0.836681 2.53221 13.5249
115 2 0.758095 1.97341 15.3549
253 3 1.48343 4.81125 16.4826
34 4 0.993248 6.13945 9.69448
141 2 3.00163 4.89603 10.5246
142 2 2.62909 5.08223 13.8869
143 2 3.11426 4.09572 12.2786
144 2 1.94566 5.67266 12.1758
195 1 0.451275 2.10573 11.616
196 1 1.12913 2.78645 14.6619
205 1 2.43664 4.92568 9.52101
206 1 2.91212 5.14961 12.7836
224 3 2.43996 0.238097 12.8989
230 3 -1.12673 3.88321 16.1572
231 3 -0.0772166 5.21702 13.976
237 3 4.85752 0.875686 9.9071
238 3 3.28984 2.4245 11.4853
239 3 3.75459 0.855352 15.2973
240 3 5.90127 1.59494 16.7229
241 3 5.99184 2.63445 11.4565
242 3 7.96286 1.47245 12.6895
254 3 3.56868 5.11896 18.3429
248 3 0.593787 6.39116 11.569
118 2 -3.83447 6.14211 11.4375
140 2 2.04511 3.92618 9.32749
334 1 -6.24487 10.5781 5.53055
12 4 -4.19989 7.18253 4.14664
13 4 -0.358787 6.89406 0.537777
16 4 -2.21357 6.81612 6.75602
333 2 -5.38529 11.21 5.33509
21 4 -3.2912 10.3914 7.03503
331 2 -6.15443 9.35836 5.2534
40 4 0.826787 9.49828 4.14684
42 4 1.9619 8.65584 7.98344
74 2 -4.48033 9.76223 5.99756
79 2 0.546771 6.93905 5.11265
80 2 -1.24204 8.21361 6.95837
344 2 0.350264 10.9322 8.95473
84 2 0.086497 9.00225 5.78979
86 2 0.659682 9.61807 7.72566
87 2 2.09603 8.25241 6.36893
105 2 -4.75622 9.28345 3.17199
106 2 -3.26305 8.31162 2.33284
107 2 -2.87498 9.40149 3.81203
108 2 -0.122552 8.61887 1.25376
77 2 -0.845363 12.8743 6.66114
128 2 -1.75654 11.9688 2.77098
129 2 -1.24577 11.3595 1.11795
145 2 0.0319465 8.15984 2.9755
146 2 -1.57503 8.97246 4.19453
147 2 -1.00589 7.20935 4.4735
346 1 -0.260294 11.9018 8.99644
149 2 -2.57963 11.0345 4.954
150 2 -0.948049 11.2316 6.05831
193 1 -3.67221 8.75952 3.33818
20 4 -2.8206 8.15838 9.16445
201 1 -1.25081 12.2076 1.82199
207 1 -0.664402 8.26357 4.29831
208 1 -2.07125 11.4486 6.00443
228 3 -3.19147 6.98371 5.42738
233 3 -3.10315 6.58471 8.43927
234 3 -2.47878 9.22046 7.83848
235 3 -4.01037 11.5286 8.1682
370 3 -7.25505 12.5484 3.73247
257 3 2.22305 7.11891 3.17408
259 3 0.558584 10.9381 3.62331
345 2 -1.30786 11.785 8.4221
309 4 -6.29002 12.4797 0.208367
322 2 -7.47321 12.6479 8.79588
311 2 -6.0059 10.3333 0.953843
312 2 -5.19241 11.5863 2.26943
313 1 -5.13913 11.1544 1.18118
262 3 1.51879 7.36636 8.77042
323 2 -6.28888 12.7127 7.3019
332 2 -6.71291 10.7409 6.51293
148 2 -2.45676 12.4906 6.27586
310 2 -4.13209 10.8093 0.838028
6 4 -4.7212 12.3904 9.25024
109 2 -2.06919 9.14157 0.302866
83 2 2.44513 9.16326 4.44954
8 4 -5.77665 12.4391 14.4293
22 4 -3.73363 10.0631 13.4631
363 2 -4.75683 8.16116 17.5513
43 4 -1.50254 10.0557 11.1342
45 4 1.39422 10.8663 11.9179
120 2 -2.45183 7.15378 14.0097
75 2 -3.07562 8.9637 14.6953
88 2 -1.82797 11.3468 10.0655
99 2 -6.3739 11.5567 10.6088
100 2 -4.6685 11.6032 11.4889
101 2 -4.98811 10.0471 10.4197
119 2 -0.995168 8.27268 13.3181
337 2 -1.85311 12.0134 18.271
121 2 -2.52133 7.69814 12.2429
126 2 -4.14777 7.44556 13.414
265 3 3.52529 7.72403 13.4085
151 2 2.86414 8.13387 16.8831
152 2 3.09097 6.83405 15.4347
154 2 1.22523 7.43586 14.5852
155 2 0.391333 9.18329 14.124
156 2 0.940249 8.76218 15.8814
191 1 -5.18702 11.2245 10.5743
198 1 -1.81652 7.38584 13.023
200 1 -4.63054 8.3964 13.694
209 1 3.38061 7.14136 16.5117
210 1 1.13695 8.55456 14.7966
232 3 -4.48994 8.35949 10.0356
236 3 -4.63573 11.3174 13.9844
317 2 -4.09455 12.698 18.6019
263 3 -1.68299 8.70786 10.2958
264 3 -2.60457 10.139 12.3498
266 3 -0.062345 10.3579 11.8302
71 2 -1.493 7.33208 18.0515
315 3 -6.61663 11.9418 17.7087
316 3 -7.11533 11.7931 15.1027
319 2 -1.39328 11.725 13.2613
194 1 -0.777856 8.75338 18.5575
330 2 -0.251836 9.08738 17.5744
336 2 -1.77563 12.1808 16.3526
320 2 0.833796 9.92919 18.589
338 2 -0.219748 12.2561 17.4245
339 1 -1.30508 12.4632 17.3927
127 2 -5.37022 8.73121 12.7935
347 2 -0.175185 12.5301 9.99266
255 3 1.37029 6.66204 18.3665
361 2 -3.80148 6.67322 17.1124
27 4 -0.22081 12.9315 13.3647
125 2 -5.12976 8.30156 14.8121
212 1 8.48563 3.51585 8.51869
47 4 10.529 2.2177 3.83257
50 4 10.1817 2.74107 8.81463
51 4 13.1517 1.94659 5.59069
55 4 12.0879 4.80289 2.12865
81 2 6.64967 3.3289 7.79246
57 4 12.1852 4.4109 7.07492
136 2 5.55793 5.14267 3.88065
89 2 16.4792 1.03097 3.10305
352 2 15.707 1.9473 8.59316
93 2 13.4511 5.28024 7.80761
137 2 6.94665 6.16712 4.75304
133 2 7.61062 4.96628 2.1859
134 2 8.61391 3.7697 1.14056
135 2 8.51392 3.51374 2.98081
351 1 15.0722 0.538631 1.82454
170 2 9.10568 5.80799 4.08278
157 2 8.30595 2.3789 4.82507
158 2 9.13932 4.08239 5.01235
159 2 9.71012 2.49269 5.98482
161 2 8.39168 3.59094 7.40711
166 2 13.1819 3.55199 0.480647
167 2 13.8013 2.92815 2.17386
49 4 14.1302 0.256135 8.0641
172 2 8.43899 5.24241 5.74343
203 1 7.98918 3.90194 2.0535
357 2 10.9969 1.80919 1.24046
211 1 9.24071 2.87517 4.98811
354 1 14.7136 1.77587 9.17895
214 1 13.5831 3.84709 1.54528
329 2 14.6681 1.96303 0.227608
269 3 9.74199 0.895467 3.05511
271 3 9.94747 1.32033 8.21374
272 3 14.4092 1.81409 4.67697
273 3 11.7482 1.78237 4.70367
274 3 13.0701 0.828019 7.05249
280 3 11.1257 3.60891 2.81852
281 3 12.5416 6.01025 3.11332
282 3 11.214 5.68754 0.666696
283 3 11.2847 3.56053 8.09684
284 3 13.1316 3.45047 6.21329
288 3 11.2054 5.4901 6.42762
348 2 15.0301 1.7195 1.52862
359 1 10.6907 2.25812 0.234182
353 2 13.9414 2.63208 9.09725
204 1 5.77508 6.15775 4.46673
371 3 12.6823 0.309788 0.121328
72 2 15.0618 3.65807 8.63055
350 2 14.799 0.380443 2.96734
216 1 8.93535 6.09827 5.10832
162 2 8.61945 4.49735 9.11609
349 2 16.1192 0.130764 1.62505
5 4 15.8778 2.27296 4.15709
160 2 7.75361 2.72946 9.04581
356 2 10.9384 3.37912 0.248381
9 4 15.204 2.64463 16.4982
48 4 12.2958 1.54667 17.7442
174 2 8.23418 5.66539 13.5566
53 4 9.82592 1.63818 15.6969
54 4 11.8963 1.9766 11.5215
60 4 11.8265 3.25675 14.2386
82 2 6.42585 4.96826 16.2569
252 3 6.73742 3.61672 13.8268
91 2 13.1619 1.73702 10.434
92 2 11.432 0.411909 11.7954
95 2 12.9747 2.92226 15.4898
96 2 12.0613 4.94334 14.1164
116 2 12.3298 5.08828 10.2974
117 2 11.8714 5.4959 12.1534
369 1 9.86676 5.46675 17.2116
217 1 9.02195 6.50238 13.6101
256 3 5.29646 5.84048 14.1456
163 2 7.65914 4.5193 10.783
164 2 9.39421 3.5725 11.235
165 2 8.69629 5.04756 12.2995
366 2 9.63518 4.41882 17.4628
197 1 12.4028 5.8374 11.1892
213 1 8.38411 4.14224 11.5776
368 2 8.88954 6.1903 17.4389
270 3 13.4313 2.84587 17
275 3 15.2126 1.4174 15.253
276 3 9.02337 0.371811 14.8761
277 3 11.1808 1.04392 16.6832
278 3 8.57078 2.21128 16.8532
279 3 10.7846 2.71731 10.7176
355 2 14.8878 1.28308 10.1991
289 3 10.3707 2.95106 14.762
290 3 12.4327 2.65615 12.897
328 2 16.1459 0.852271 18.0754
342 2 6.91386 5.00203 17.9208
343 1 6.3055 5.97465 17.963
173 2 10.131 6.11256 13.7724
341 2 5.73129 6.38289 17.0213
29 4 7.20951 2.95912 12.4772
327 1 15.9221 1.92403 18.0405
367 2 10.2886 5.68049 16.1074
56 4 11.0181 6.56239 18.0678
358 2 10.0519 2.22796 18.5377
285 3 6.33469 5.48978 9.33824
19 4 9.50107 11.3125 4.53375
296 3 5.86991 11.1748 0.413535
171 2 8.39469 7.17921 5.27267
46 4 4.95637 12.1434 1.18466
186 2 8.84971 10.1886 9.05402
59 4 10.5328 6.8039 5.9425
62 4 4.35066 10.7361 4.10427
64 4 6.98143 8.89284 8.27995
66 4 6.6434 11.0568 6.21235
94 2 10.7403 6.7205 8.82661
85 2 5.15582 7.46828 5.75516
98 2 8.26818 7.82969 7.79014
122 2 9.40147 10.7133 2.01373
123 2 7.85938 10.118 2.99401
124 2 9.50205 9.30557 3.40213
41 4 1.97455 10.2793 0.524231
25 4 0.663794 12.7142 7.57865
297 3 6.04291 8.04546 9.20466
298 3 3.18306 9.49408 8.34001
179 2 2.59713 10.5952 5.81017
180 2 2.41726 12.0161 4.45693
181 2 3.53825 12.2949 5.99909
182 2 9.62672 8.85479 6.9027
183 2 11.298 8.50532 7.5651
184 2 9.80533 8.16901 8.67473
23 4 0.563359 12.2074 2.4465
199 1 8.9552 10.2608 2.99911
169 2 8.97526 7.96418 0.697086
219 1 3.10627 11.5011 5.26391
220 1 10.2049 8.13123 7.59508
76 2 1.90707 11.8834 6.76657
258 3 4.2974 7.0159 1.44386
261 3 1.55891 11.6233 1.26455
287 3 11.4142 7.71136 4.93401
293 3 3.93948 8.94411 3.6019
294 3 4.39182 11.6082 2.64736
138 2 5.43948 7.04081 3.83357
304 3 6.5534 12.3742 7.369
299 3 4.46922 11.9872 9.12798
301 3 8.23546 11.0948 5.55927
302 3 5.6148 11.0169 5.03438
303 3 6.30915 9.67216 7.04787
97 2 7.59098 9.05667 0.0303107
39 4 3.25344 8.04455 2.35441
260 3 2.45563 9.07282 1.39579
15 4 11.6063 7.2555 10.3236
58 4 6.19163 6.72976 10.319
61 4 8.74036 7.63359 12.0436
63 4 7.07803 10.5306 17.8812
221 1 7.76522 10.195 9.48122
67 4 4.456 10.5914 16.534
364 2 12.186 7.39465 15.8129
365 2 9.02318 8.397 17.5526
314 4 9.87003 11.2153 16.5718
175 2 8.72819 7.40844 14.3092
176 2 8.91711 10.1094 12.1803
177 2 8.13637 9.33699 13.7897
178 2 7.04395 9.67505 12.3441
340 2 6.85144 6.81528 18.5279
215 1 9.80192 8.42374 18.343
188 2 5.89231 10.1782 10.2646
189 2 4.5843 8.95921 10.8698
190 2 4.8384 10.6424 11.8035
52 4 6.03707 12.7301 15.1195
218 1 8.09064 9.39919 12.6575
222 1 4.86848 10.0392 10.8113
187 2 7.73138 9.87558 10.6838
44 4 2.80122 9.16644 14.1312
268 3 1.08666 12.5853 12.5895
362 1 12.541 7.22538 16.9771
291 3 10.3662 7.64975 11.3666
292 3 7.5802 7.00757 11.1903
295 3 8.11711 11.3075 16.9706
286 3 4.99269 6.63256 11.3751
300 3 2.27592 10.9097 10.6131
305 3 3.71569 9.7873 15.3089
306 3 5.86277 9.77489 16.9827
307 3 4.79567 12.1443 15.9404
308 3 3.39206 10.5327 17.8798
65 4 3.55148 10.7467 9.64725
321 2 7.34483 11.7566 15.5481
153 2 4.55272 7.15815 16.7107
318 2 10.1426 9.53649 16.6793
267 3 2.30937 10.2741 13.0704
90 2 5.97969 12.2881 13.5114
168 2 10.3614 9.37563 18.377
185 2 7.29703 11.1904 9.33279
ITEM: TIMESTEP
100
ITEM: NUMBER OF ATOMS
371
ITEM: BOX BOUNDS xy xz yz pp pp pp
-8.8465745000000009e+00 1.7768611249999999e+01 -8.8465745000000009e+00
0.0000000000000000e+00 1.3020299999999999e+01 4.5867054999999995e-01
0.0000000000000000e+00 1.8640300000000000e+01 2.0540000000000000e-01
ITEM: ATOMS id type x y z
1 4 2.19045 1.04004 2.87198
2 2 3.8114 1.2685 3.33886
3 2 1.53303 2.53992 3.08443
4 3 2.13232 0.721731 1.30755
68 2 0.697953 0.657978 7.4234
7 4 0.620458 2.25877 6.68343
11 4 -0.224857 4.54571 2.43232
14 4 -0.92155 4.39705 8.09214
360 2 -3.07139 4.70219 1.66759
31 4 1.73938 6.15335 4.00893
32 4 4.48648 5.5857 0.625339
33 4 5.59211 4.42101 8.39468
35 4 4.37635 5.90815 5.78353
30 4 6.31789 3.12061 1.80014
70 2 0.133909 3.50262 1.15442
335 2 7.26156 0.358532 1.38963
102 2 2.19319 3.42231 5.04313
103 2 2.9299 1.95867 6.01929
104 2 2.53114 3.62531 6.99304
130 2 5.47825 1.17778 3.26124
131 2 4.53303 2.80328 3.60871
132 2 6.36618 2.6671 4.09209
324 2 2.36997 1.34202 8.61071
192 1 2.33607 2.914 6.04245
202 1 5.5245 2.28823 3.39215
223 3 -0.366101 2.29519 5.43681
225 3 -1.25969 3.69851 3.31275
226 3 -0.787815 6.07773 1.84712
227 3 0.271607 3.4145 7.7156
229 3 -1.47332 5.37253 6.84026
243 3 6.65695 1.81608 0.675108
244 3 1.11327 4.94225 3.33169
245 3 5.22547 4.3511 1.39339
325 1 2.32562 0.206535 8.44406
249 3 2.91414 5.88332 5.15342
250 3 4.98082 5.1767 7.06525
247 3 -0.367042 5.33977 9.24401
139 2 2.81699 5.2546 8.56793
246 3 4.43956 3.58375 9.05737
5 4 -1.33383 2.35603 4.19603
254 3 3.10045 5.00635 0.00102978
10 4 2.22001 1.34214 11.6796
17 4 0.410404 4.33819 15.4221
18 4 -0.260812 6.17877 12.7931
24 4 7.2632 1.47263 17.4615
26 4 4.64713 2.4875 10.4715
38 4 4.26889 6.34309 12.9267
28 4 4.35218 2.17334 16.0309
251 3 4.40951 3.47697 15.2226
140 2 1.68948 4.03718 9.44657
326 2 -0.350237 2.49092 18.161
37 4 2.43705 5.88673 17.4799
69 2 1.72669 0.360408 10.3
36 4 5.66781 4.39806 14.8392
73 2 -1.74638 5.58452 12.186
78 2 3.44017 2.58254 17.3598
110 2 0.258662 2.26639 10.4681
111 2 0.566048 3.27713 12.0723
112 2 -0.185713 1.5398 12.1775
113 2 2.13266 2.94406 14.8322
114 2 0.766229 2.60902 13.563
115 2 0.709648 1.81853 15.3434
253 3 1.60542 4.99172 16.2663
34 4 1.02444 6.27141 9.89259
141 2 2.99782 5.02605 10.4378
142 2 2.78907 4.84672 14.0765
143 2 3.14576 4.12983 12.4088
144 2 2.16614 5.61645 12.4687
195 1 0.541737 2.23346 11.5874
196 1 1.01713 2.75616 14.7334
205 1 2.32312 4.97003 9.56847
206 1 2.95024 5.06954 12.9926
224 3 2.48954 0.375797 12.9306
230 3 -1.0041 3.88548 16.0771
231 3 0.158318 5.52272 14.1209
237 3 4.72887 0.915388 9.87036
238 3 3.35847 2.55578 11.4064
239 3 3.67995 0.868173 15.2386
240 3 5.82454 1.7756 16.6379
241 3 5.94102 2.72494 11.4218
242 3 7.87697 1.46584 12.8699
27 4 8.60184 0.233318 13.4167
248 3 0.800726 6.4567 11.6481
334 1 -6.36597 10.525 5.52656
12 4 -4.44379 7.08338 4.22336
13 4 -0.433517 6.92514 0.517222
16 4 -2.27656 6.7118 6.78317
333 2 -5.5045 11.2485 5.48093
21 4 -3.35141 10.5035 7.121
194 1 -1.16272 8.71226 0.0902775
40 4 0.815823 9.57821 4.19903
42 4 1.99859 8.56194 7.94923
74 2 -4.58446 9.86538 6.06261
79 2 0.294556 6.94654 4.67978
80 2 -1.07226 7.92031 6.4588
344 2 0.362581 10.938 9.08979
84 2 0.353542 9.10457 5.92968
86 2 0.701425 9.59416 7.58438
87 2 2.54211 7.79626 6.54854
105 2 -4.63883 9.36171 3.23087
106 2 -3.89304 8.06315 2.01737
107 2 -2.86819 8.73996 3.55027
108 2 -0.0978869 8.68945 1.3842
77 2 -0.356861 12.5991 6.21774
128 2 -1.66439 11.7448 2.81374
129 2 -1.18112 11.4328 0.92262
145 2 0.0219143 8.2061 3.13017
146 2 -1.62377 9.39885 4.5517
147 2 -1.27268 7.60953 4.72412
346 1 -0.352843 11.8929 9.09587
149 2 -2.30351 11.602 5.07674
150 2 -1.02436 10.9353 6.3211
193 1 -3.90881 8.47194 3.05957
20 4 -2.87288 8.26858 9.12687
201 1 -1.16736 12.1647 1.76497
207 1 -0.842983 8.586 4.66023
208 1 -2.00712 11.5159 6.14519
228 3 -3.29612 6.81367 5.59837
233 3 -3.01092 6.7408 8.5248
234 3 -2.58401 9.31789 7.82293
235 3 -3.92096 11.4841 8.26071
370 3 -7.36859 12.6375 3.75416
257 3 2.20982 7.14166 2.90862
259 3 0.419473 10.9822 3.68389
345 2 -1.38413 11.8795 8.49832
309 4 -6.26322 12.4484 0.318546
322 2 -7.40165 12.4587 8.85527
311 2 -5.78408 10.4729 1.34984
312 2 -4.50703 11.8167 2.01664
313 1 -4.88255 11.2869 1.14094
262 3 1.49038 7.58923 8.94655
323 2 -6.07357 12.6395 7.40105
332 2 -6.85808 10.5302 6.54538
148 2 -2.18965 12.5248 6.82884
310 2 -4.03211 10.8315 0.56141
109 2 -2.0052 9.44 0.334964
331 2 -6.08733 9.44756 5.14283
6 4 -4.73309 12.3271 9.2735
8 4 -5.77278 12.4503 14.3118
22 4 -3.74818 10.0274 13.398
363 2 -4.51016 8.12252 17.3723
43 4 -1.55079 9.92039 11.1271
45 4 1.40726 10.959 11.9866
120 2 -2.45396 6.94834 13.7867
75 2 -3.20082 9.21683 14.8215
88 2 -1.91339 11.1495 10.0185
99 2 -6.52341 11.1264 10.6211
100 2 -5.02781 11.6874 11.5311
101 2 -5.01875 10.1125 10.4197
119 2 -1.0269 8.17092 13.5156
337 2 -2.10812 12.2096 18.4985
121 2 -2.26528 7.64302 12.0703
126 2 -3.98122 7.35869 13.4324
265 3 3.4784 7.82546 13.3788
151 2 3.02313 8.22317 16.9289
152 2 3.40692 6.94807 15.5827
154 2 1.16612 7.3995 14.6855
155 2 0.456096 9.16529 14.5675
156 2 1.44874 8.51394 16.184
191 1 -5.4457 11.1526 10.635
198 1 -1.75134 7.31979 13.0299
200 1 -4.54154 8.33418 13.7235
209 1 3.51263 7.23558 16.7161
210 1 1.31922 8.4873 15.0557
232 3 -4.52279 8.42974 10.0911
236 3 -4.70529 11.3962 13.9568
317 2 -4.08209 12.6747 18.3893
263 3 -1.58778 8.56442 10.3276
264 3 -2.7158 10.0734 12.2474
266 3 -0.0630193 10.1263 11.7117
71 2 -1.57612 7.48746 18.2027
315 3 -6.65664 12.0204 17.8234
316 3 -6.96699 11.6512 15.1147
319 2 -1.35453 11.7413 13.6017
320 2 1.04287 9.69935 18.5709
330 2 -0.223444 9.27474 17.755
336 2 -1.86939 12.0675 16.5616
125 2 -5.03396 8.27261 14.8676
338 2 -0.309955 12.1254 17.7467
339 1 -1.39291 12.4163 17.5959
127 2 -5.36644 8.67276 12.7531
347 2 -0.192106 12.7856 9.77391
255 3 1.24437 6.76504 18.254
212 1 8.66452 3.68368 8.61075
47 4 10.5785 2.2477 3.81589
50 4 10.2679 2.76007 8.7926
51 4 13.2025 2.13985 5.4663
55 4 11.88 4.78284 2.1586
81 2 6.85153 3.39097 7.8309
57 4 12.3075 4.53257 7.16111
136 2 5.52333 4.83438 4.17983
89 2 16.4757 1.08761 3.16087
352 2 15.5769 1.79966 8.54296
93 2 13.4157 5.43233 7.98226
137 2 6.83301 6.15787 4.73351
133 2 7.64163 5.1892 1.99319
134 2 8.75953 3.78558 1.29839
135 2 8.41983 3.73165 3.07628
351 1 15.0218 0.603805 1.92549
170 2 9.07161 5.75878 3.94961
157 2 8.26013 2.6056 4.49571
158 2 9.13802 4.2576 4.88717
159 2 9.63627 2.74177 5.8782
161 2 8.57658 3.78169 7.46818
166 2 13.4045 4.23818 0.0874467
167 2 13.3374 3.04909 1.58994
49 4 14.0471 0.150618 7.96179
172 2 8.32872 5.63099 5.74126
203 1 7.97433 4.04162 2.057
357 2 10.8974 1.81951 1.1454
211 1 9.20662 3.12008 4.87005
354 1 14.5904 1.63515 9.20368
214 1 13.3923 4.19683 1.1922
329 2 14.8086 2.09907 0.292084
269 3 9.78671 0.999145 3.03939
271 3 9.86911 1.29745 8.08901
272 3 14.4323 1.96575 4.51806
273 3 11.7778 1.73175 4.78576
274 3 13.3787 0.87136 6.81013
280 3 11.0216 3.52148 2.78933
281 3 12.5726 5.83182 3.21341
282 3 10.9602 5.59155 0.866575
283 3 11.5065 3.59351 8.08096
284 3 13.128 3.53938 6.19173
288 3 11.2827 5.54709 6.52028
348 2 14.7911 1.75153 1.78392
359 1 10.6936 2.30878 0.0816231
353 2 13.8622 2.49646 9.18802
204 1 5.7418 6.04782 4.48399
371 3 12.7819 0.44637 0.178556
72 2 15.0594 3.48847 8.68762
350 2 14.8634 0.116752 3.03394
216 1 8.88704 6.27118 4.98738
162 2 8.91126 4.74286 9.09331
349 2 15.9557 0.206722 1.30172
160 2 7.8545 3.08062 9.19002
9 4 15.2278 2.62909 16.4729
48 4 12.357 1.57249 17.6583
174 2 8.29561 5.53905 13.8919
53 4 9.85912 1.56632 15.7585
54 4 11.7768 1.95477 11.5601
60 4 11.663 3.34456 14.192
82 2 6.54315 4.7712 16.2569
252 3 6.69106 3.70683 13.8525
91 2 13.1517 1.66908 10.6195
92 2 11.2941 0.355279 11.5298
95 2 12.8451 3.30803 15.4421
96 2 11.741 4.99398 13.8887
116 2 11.8841 5.0327 10.6775
117 2 12.4355 5.92725 12.2778
369 1 9.97997 5.3565 17.1767
285 3 6.42749 5.36174 9.442
256 3 5.18722 5.80706 14.0943
163 2 7.80691 4.4383 10.8186
164 2 9.38557 3.39234 11.3096
165 2 8.70092 4.88977 12.3899
366 2 9.76139 4.33827 17.6527
197 1 12.5001 5.89702 11.1474
213 1 8.41114 3.97168 11.682
368 2 8.97364 6.0369 17.0431
270 3 13.4443 2.82133 16.9036
275 3 15.2315 1.4872 15.2605
276 3 9.04126 0.422908 14.9068
277 3 11.2629 0.963901 16.6463
278 3 8.62169 2.07971 16.9528
279 3 10.77 2.67359 10.69
355 2 14.8036 1.37122 10.368
289 3 10.3141 2.9323 14.7793
290 3 12.2168 2.52195 12.9726
328 2 16.0853 0.745898 17.998
342 2 6.80348 5.17075 17.9495
343 1 6.21519 6.08809 17.763
173 2 10.0641 6.09272 13.9328
341 2 5.57267 6.13624 16.7822
29 4 7.14741 2.81905 12.4827
327 1 15.9479 1.89624 18.0419
367 2 10.5322 5.20809 16.2085
56 4 10.9777 6.56635 18.1253
358 2 10.032 2.43706 18.4501
361 2 13.4257 6.36362 16.9218
286 3 4.75384 6.39614 11.3479
217 1 8.94194 6.43949 13.7164
118 2 13.538 5.95626 10.7341
356 2 11.5147 3.62926 18.5625
19 4 9.44823 11.2027 4.43603
296 3 5.93861 11.1705 0.250872
171 2 8.36079 7.21513 4.8287
46 4 4.90532 12.2652 1.15222
186 2 8.70337 10.2476 9.01452
59 4 10.4523 6.78066 5.96846
62 4 4.38985 10.8519 4.04046
64 4 7.03167 8.83919 8.29064
66 4 6.79098 11.2631 6.19494
94 2 10.9925 6.68329 8.91927
85 2 5.01632 7.52823 5.42203
98 2 8.21672 7.73315 7.55522
122 2 9.30619 10.2412 2.10996
123 2 8.0709 9.44694 3.24997
124 2 9.9304 9.01555 3.46277
41 4 2.09823 10.2487 0.475692
25 4 0.5787 12.6223 7.62496
297 3 5.84585 7.85392 9.12284
298 3 3.11839 9.56183 8.52615
179 2 2.8841 10.4724 5.97234
180 2 2.31339 11.8415 4.57822
181 2 3.68367 12.3345 5.96978
182 2 9.65822 8.80758 7.04796
183 2 11.2342 8.30345 7.89677
184 2 9.69602 7.62228 8.46632
23 4 0.595923 12.188 2.36868
199 1 9.14592 9.79983 3.14276
169 2 8.59586 7.77517 0.48469
219 1 3.13286 11.4377 5.33979
220 1 10.1921 7.94988 7.574
76 2 2.00276 11.8539 6.87666
258 3 4.44766 6.94014 1.45169
261 3 1.55203 11.5626 1.15683
287 3 11.3933 7.60817 4.76238
293 3 3.95497 9.01739 3.76782
294 3 4.29007 11.6144 2.63233
138 2 5.47895 6.75476 3.62033
304 3 6.64916 12.3933 7.43693
299 3 4.22407 11.9594 8.88514
301 3 8.21271 11.4206 5.45071
302 3 5.71349 11.1444 4.89464
303 3 6.72257 9.79756 7.05294
260 3 2.77264 9.20203 1.41459
39 4 3.41346 7.91711 2.28239
83 2 2.49792 9.17284 4.02793
15 4 11.6661 7.35356 10.3895
58 4 6.11933 6.7203 10.2202
61 4 8.77289 7.62426 12.1132
63 4 7.14997 10.5589 17.7987
221 1 7.71715 10.0365 9.56308
67 4 4.52656 10.6684 16.5122
364 2 12.0361 7.27973 15.8009
365 2 9.11805 8.16684 17.2344
314 4 9.8753 11.2536 16.7006
175 2 8.63064 7.33466 14.3514
176 2 9.18175 9.97988 12.1899
177 2 8.54798 9.12196 13.8102
178 2 7.3119 9.76486 12.4765
340 2 6.73096 7.07473 18.0576
215 1 9.69453 8.18632 18.2429
188 2 5.86842 10.023 10.4172
189 2 4.51857 8.81103 10.7974
190 2 4.60032 10.3651 11.8262
52 4 6.11571 12.7754 15.0228
218 1 8.35664 9.41002 12.6981
222 1 4.77029 9.86722 10.8542
187 2 7.938 9.83123 10.7682
44 4 2.84795 9.09995 14.1159
268 3 1.14277 12.4277 12.4642
362 1 12.5298 7.16386 16.9348
291 3 10.2818 7.7335 11.4173
292 3 7.41906 7.25855 11.1863
295 3 8.23188 11.4668 16.7854
97 2 8.05173 9.27304 18.5211
300 3 2.23618 11.1387 10.4787
305 3 3.68277 9.76439 15.3824
306 3 5.97054 9.8537 16.8403
307 3 5.01454 12.0697 15.7976
308 3 3.47898 10.716 17.8894
65 4 3.47628 10.6414 9.64084
321 2 7.52426 11.8996 15.2589
153 2 4.58014 7.20392 17.0169
318 2 10.0356 9.56243 16.8273
267 3 2.34174 10.174 13.0737
90 2 5.92763 12.5179 13.3289
168 2 10.501 9.05817 18.4341
185 2 6.92016 10.8819 9.39314
ITEM: TIMESTEP
200
ITEM: NUMBER OF ATOMS
371
ITEM: BOX BOUNDS xy xz yz pp pp pp
0.0000000000000000e+00 2.6218854900000004e+01 8.4591323999999997e+00
0.0000000000000000e+00 1.3020299999999999e+01 4.5844109999999999e-01
0.0000000000000000e+00 1.8640300000000000e+01 2.0540000000000000e-01
ITEM: ATOMS id type x y z
1 4 2.17542 1.04749 2.93031
2 2 3.86946 1.31976 3.06055
246 3 4.59856 3.55097 9.22727
4 3 1.95778 0.856546 1.37336
68 2 1.01653 0.770186 7.03892
250 3 4.99051 5.094 6.96652
325 1 2.28381 0.32296 8.43322
245 3 5.29981 4.15503 1.29077
243 3 6.63023 1.882 0.63431
202 1 5.52262 2.34633 3.46747
32 4 4.5457 5.56016 0.662702
33 4 5.59364 4.39968 8.39213
35 4 4.38033 5.93848 5.54224
30 4 6.28778 3.05015 1.74779
192 1 2.40854 2.90306 5.8455
335 2 7.44769 0.398395 1.35066
324 2 2.22463 1.4787 8.59377
103 2 2.85461 1.87223 5.61351
104 2 2.90656 3.41564 6.68758
130 2 5.44542 1.23898 3.50291
131 2 4.51868 2.8705 3.62633
132 2 6.49837 2.73806 4.0505
212 1 8.89023 3.83233 8.60504
160 2 8.11733 3.2051 9.24395
50 4 10.4292 2.71726 8.91347
162 2 9.07914 4.89936 9.08103
216 1 8.79376 6.2885 5.02772
81 2 7.02613 3.52515 7.97815
136 2 5.6018 4.75557 4.13908
137 2 6.8351 6.3428 4.43998
204 1 5.70262 6.05918 4.15858
133 2 7.57011 5.18771 2.29782
134 2 8.51622 3.85797 1.39944
135 2 8.33799 3.59985 3.30065
288 3 11.1615 5.4601 6.58192
170 2 9.07548 5.73269 4.0803
157 2 8.40943 2.42771 4.66591
282 3 10.8928 5.71357 0.780253
158 2 9.12545 4.282 4.97248
280 3 10.9844 3.55046 2.88097
159 2 9.63814 2.74122 6.01899
161 2 8.54687 3.88913 7.54458
172 2 8.18497 5.57326 5.72798
203 1 7.84729 4.07626 2.26595
211 1 9.28258 3.09128 5.00644
55 4 11.8273 4.79625 2.12931
10 4 2.10998 1.27818 11.6706
165 2 8.29938 4.95385 12.3364
242 3 7.7227 1.33222 12.9177
24 4 7.12326 1.68629 17.6079
26 4 4.68003 2.38025 10.4545
241 3 5.86492 2.806 11.5279
28 4 4.35687 1.95904 16.0296
251 3 4.2535 3.38015 15.2318
240 3 5.75065 1.76151 16.8228
239 3 3.752 0.776392 15.2358
238 3 3.21354 2.55796 11.509
69 2 1.6569 0.283958 10.2864
36 4 5.56565 4.33297 14.8461
237 3 4.76848 0.920935 9.85894
78 2 3.12724 2.28257 17.1544
224 3 2.29944 0.499799 13.0731
143 2 3.03954 4.06919 12.3263
174 2 7.60144 6.19051 13.6078
53 4 9.79606 1.55058 15.8051
82 2 6.20311 4.76118 16.3873
217 1 8.73357 6.53421 13.5894
286 3 4.96059 6.49449 11.4712
252 3 6.62802 3.57727 13.9724
358 2 10.2014 2.36208 18.3798
56 4 10.8186 6.53309 18.0124
367 2 10.3145 5.18787 15.8177
96 2 11.7243 4.87669 14.0781
29 4 6.99757 2.82021 12.5743
341 2 5.59074 6.2794 16.8123
173 2 9.52192 5.78564 13.2602
343 1 6.12961 6.14454 17.8186
342 2 6.9588 5.295 17.8663
116 2 12.0101 4.98954 10.7761
117 2 12.6397 6.10784 12.1873
289 3 10.1699 2.88459 14.7703
369 1 9.9455 5.21439 16.8678
285 3 6.52028 5.3792 9.4062
278 3 8.60325 2.10069 16.8727
256 3 5.21328 5.7447 14.1277
366 2 10.0314 4.22589 17.4348
163 2 7.52309 4.47524 10.7345
164 2 9.07124 3.49402 11.3338
368 2 8.89733 5.62011 16.8999
213 1 8.12649 4.05122 11.6238
197 1 12.6937 5.88986 11.0799
317 2 4.67798 0.495766 18.5598
334 1 11.134 10.5749 5.61331
12 4 12.8256 7.04445 4.27301
6 4 12.4456 12.419 9.24934
331 2 11.2438 9.47882 5.33744
333 2 12.0696 11.2415 5.35234
21 4 14.0274 10.5044 7.01614
85 2 5.13039 7.49851 5.33241
148 2 14.9587 12.7172 6.23614
332 2 10.7999 10.7691 6.63615
74 2 12.9348 9.854 5.82507
323 2 11.1626 12.8827 7.36915
313 1 12.5594 11.4068 0.935955
312 2 13.3634 11.7665 1.67102
311 2 11.7709 10.6999 1.51176
322 2 9.7992 12.555 8.69998
309 4 11.0668 12.48 0.286252
105 2 12.717 9.20892 2.99231
106 2 13.1686 7.65232 2.04137
184 2 9.47741 7.59322 8.66514
345 2 15.888 11.9874 8.34949
77 2 16.7102 12.638 6.42254
128 2 15.741 11.834 2.6627
199 1 9.10295 9.95565 3.21168
370 3 10.0727 12.5881 3.71013
235 3 13.2323 11.4369 8.09429
234 3 14.6683 9.20696 7.86667
208 1 15.0998 11.5613 5.9092
149 2 14.7654 11.3072 4.81931
201 1 16.3069 12.2521 1.74671
193 1 13.3256 8.28582 2.9755
19 4 9.49503 11.3023 4.50956
171 2 8.20126 7.29584 4.7886
186 2 8.77096 10.1324 8.97872
59 4 10.4479 6.73088 5.98393
303 3 6.81078 9.69239 7.04011
64 4 7.0374 8.77174 8.2514
301 3 8.32757 11.4758 5.56767
94 2 11.1716 6.83218 8.76274
98 2 8.02877 7.54314 7.56362
138 2 5.40668 6.44621 3.10583
122 2 8.93887 10.5788 2.28608
123 2 8.21065 9.28034 3.47871
287 3 11.4217 7.77352 4.97021
124 2 10.1106 9.39971 3.28357
297 3 5.91328 7.98083 9.2155
182 2 9.37407 8.56689 6.85363
220 1 9.97186 7.87006 7.60253
183 2 11.0136 8.33253 7.74563
169 2 8.82316 8.18362 0.770687
8 4 11.4813 12.5298 14.3493
22 4 13.5926 10.089 13.5082
363 2 12.5043 8.04774 17.7355
338 2 16.9456 12.5619 17.626
127 2 11.9622 8.68666 12.9758
339 1 15.8496 12.6045 17.5551
75 2 14.36 9.27807 14.8894
88 2 15.5955 11.2834 10.2373
99 2 10.7592 11.3455 10.5865
100 2 12.4154 11.6278 11.5368
101 2 12.1474 10.0886 10.3565
125 2 12.1548 8.43477 14.9552
337 2 15.2975 12.1425 18.4476
336 2 15.4059 12.2721 16.5377
126 2 13.4088 7.5239 13.9131
319 2 15.9889 11.6262 13.3513
316 3 10.3588 11.7694 15.1928
315 3 10.7206 12.0031 17.835
264 3 14.737 10.0066 12.3713
187 2 7.82814 9.83246 10.6944
236 3 12.6893 11.4284 13.8196
191 1 11.8872 11.2102 10.6213
232 3 12.6675 8.3942 10.1026
200 1 12.7638 8.49581 13.9966
15 4 11.5943 7.27549 10.3987
58 4 6.09247 6.73661 10.2403
347 2 16.7757 12.8917 9.81111
61 4 8.70499 7.72213 12.0982
221 1 7.75572 10.0582 9.55403
318 2 10.0435 9.55171 16.8115
364 2 12.1936 7.34706 15.9473
365 2 9.17538 8.30665 17.5161
314 4 9.88196 11.3228 16.6776
175 2 9.03507 7.02672 14.5251
176 2 9.08485 10.2149 12.4445
177 2 8.21449 9.19085 13.7699
178 2 7.19603 9.96485 12.3247
340 2 6.52348 7.2235 18.2597
27 4 17.1387 12.8931 13.4779
295 3 8.28065 11.4626 16.8588
292 3 7.54406 7.22142 11.1465
291 3 10.293 7.55755 11.187
362 1 12.3447 7.01593 17.0309
215 1 9.85459 8.42957 18.4047
218 1 8.20848 9.55155 12.6583
97 2 8.04651 9.24576 18.4929
168 2 10.6888 9.21743 18.3743
310 2 13.4207 11.104 18.6587
349 2 16.0845 0.196713 1.47162
47 4 10.5304 2.26532 3.81252
350 2 14.9955 0.290978 3.02511
51 4 13.2214 2.10519 5.61034
223 3 16.939 2.4514 5.42328
72 2 15.0613 3.62401 8.80957
57 4 12.2707 4.47919 7.21416
371 3 12.9257 0.311719 0.22183
89 2 16.4723 1.11644 3.26059
352 2 15.6932 1.97302 8.83559
93 2 13.286 5.51099 8.04346
353 2 13.8287 2.43162 8.98331
359 1 10.8578 2.37625 0.162585
348 2 14.9879 1.70177 1.65836
284 3 13.1783 3.59922 6.23049
351 1 15.132 0.591482 1.92725
283 3 11.6131 3.6389 8.31565
102 2 19.415 3.55082 4.95164
274 3 13.3717 1.04036 6.86287
273 3 11.83 1.80925 4.71741
272 3 14.4215 2.00106 4.50446
166 2 13.4346 4.29932 0.0735474
167 2 13.0844 2.98878 1.34616
49 4 14.1752 0.270492 8.03368
271 3 10.0748 1.24841 8.06373
269 3 10.0435 0.934712 2.86474
357 2 11.1039 2.03473 1.20826
329 2 15.0648 1.97089 0.291652
226 3 16.5697 5.99034 1.8706
214 1 13.2332 4.09589 1.19022
3 2 18.6966 2.43075 3.32523
70 2 17.8324 3.6271 1.31975
5 4 15.9074 2.40579 4.23796
7 4 17.9704 2.45092 6.57752
139 2 20.34 5.37281 8.86586
225 3 16.079 3.66159 3.30064
11 4 17.0661 4.57363 2.50623
249 3 20.1557 6.02018 5.0755
14 4 16.4564 4.47935 8.31148
360 2 14.085 4.56092 1.85323
244 3 18.5669 4.55948 3.29567
31 4 19.1476 6.16115 3.86722
229 3 16.0255 5.39219 6.95741
227 3 17.5478 3.26193 7.89351
281 3 12.5335 5.76202 3.25138