ITEM: TIMESTEP
0
ITEM: NUMBER OF ATOMS
371
ITEM: BOX BOUNDS xy xz yz pp pp pp
-8.8510000000000009e+00 1.7777500000000000e+01 -8.8510000000000009e+00
0.0000000000000000e+00 1.3020299999999999e+01 4.5889999999999997e-01
0.0000000000000000e+00 1.8640300000000000e+01 2.0540000000000000e-01
ITEM: ATOMS id type q x y z
360 2 0.208453 -2.78021 4.38232 1.51376
2 2 -0.0155531 2.38812 1.42282 2.82411
345 2 0.0412873 7.4058 0.413704 9.24338
324 2 0.154423 0.747889 0.484853 8.05783
68 2 0.0383736 1.88175 1.23456 7.03312
7 4 1.0846 0.816891 2.46046 6.27766
11 4 1.26192 0.29967 4.20947 2.4401
14 4 1.26047 -0.875921 4.68745 7.74544
30 4 1.08415 5.65366 3.03086 1.73298
31 4 1.25807 1.57051 6.30346 4.16118
72 2 0.0172431 -2.3382 3.8831 8.18639
33 4 1.23905 5.62836 4.38203 8.26453
35 4 1.04287 4.28344 5.80147 5.658
5 4 1.27055 -1.1855 1.97303 4.02275
70 2 -0.0253844 1.39829 3.38835 1.34957
237 3 -0.785859 3.64467 0.885526 9.18036
102 2 0.196906 2.60046 3.62079 5.26526
103 2 0.137982 3.03204 1.83374 5.50969
104 2 0.235341 3.25133 3.06992 6.95005
130 2 0.132954 4.62661 2.08248 3.8164
131 2 0.151529 4.15199 1.02001 2.27786
132 2 0.164725 3.50033 2.8565 2.4462
250 3 -0.813669 4.84271 5.16707 7.07321
192 1 -0.694578 2.71524 2.7995 6.04718
202 1 -0.678105 4.26398 2.06975 2.70391
223 3 -0.823821 -0.0347974 1.69893 5.21651
225 3 -0.864829 -0.615773 2.95242 2.91688
226 3 -0.823813 -0.524722 5.34319 1.68816
227 3 -0.806872 0.228754 3.57543 7.29574
229 3 -0.802614 -1.21071 5.79534 6.56967
243 3 -0.774394 6.01071 2.13502 0.287909
244 3 -0.850279 1.15105 4.89354 3.60074
245 3 -0.792867 5.01082 4.4317 1.44686
246 3 -0.849025 4.69129 3.32297 8.95541
249 3 -0.829623 2.78815 6.15582 5.22774
32 4 1.24035 4.40027 5.83518 0.755693
247 3 -0.789675 -0.348703 5.52398 8.98501
1 4 0.940084 1.43308 0.151219 2.16161
3 2 -0.0083827 -0.0543077 0.79773 1.75056
329 2 0.176167 -1.57813 2.50482 0.552701
136 2 0.0150557 5.01736 4.80358 4.48489
139 2 0.244796 2.3368 4.87385 9.11584
335 2 0.167995 8.01973 1.04786 2.9265
10 4 1.08924 1.83701 1.74351 11.6051
17 4 1.23987 0.185198 4.67812 15.4673
73 2 0.0145545 -2.39567 6.08558 12.4229
24 4 1.23902 6.92248 1.55337 17.5354
26 4 1.41901 4.29603 2.27392 10.0283
252 3 -0.821078 6.05652 3.24957 13.437
28 4 1.24491 4.32439 1.99317 16.0804
29 4 1.32999 6.54662 2.17982 12.4005
253 3 -0.79998 1.19171 5.40046 16.5394
36 4 1.25595 5.63032 4.2268 14.6992
37 4 1.19653 2.19026 6.31939 17.6193
251 3 -0.817681 4.38838 3.62193 15.5377
328 2 0.156971 0.131068 1.65276 18.0659
254 3 -0.79781 3.25858 5.66506 18.6093
78 2 -0.0093948 3.50283 2.18077 17.545
110 2 0.152589 -0.72208 2.01519 10.887
111 2 0.163648 0.325065 3.4527 11.8903
112 2 0.161331 -0.423786 1.82639 12.688
113 2 0.19735 0.563449 2.89527 13.6423
114 2 0.197177 0.461449 2.32388 15.4309
115 2 0.212417 1.99726 3.28243 14.7576
69 2 0.00760374 0.65555 0.864963 10.5474
140 2 0.210923 2.58073 5.50455 10.9241
326 2 0.187877 -0.0759787 3.66028 17.9374
142 2 0.212108 2.93953 4.55234 13.8511
143 2 0.268396 2.86148 4.16144 12.0063
144 2 0.216874 1.9579 5.72642 12.7275
195 1 -0.67495 0.00915444 2.25647 11.7596
196 1 -0.668174 0.900475 3.12704 14.7207
205 1 -0.651727 2.3194 5.77952 9.7408
206 1 -0.684321 2.87079 4.98748 12.8111
224 3 -0.830062 2.14239 1.05154 12.9744
230 3 -0.784335 -1.30377 4.02513 16.1144
231 3 -0.788481 -0.117487 5.76819 14.1457
18 4 1.05011 -0.709056 6.51321 12.8322
238 3 -0.801484 2.72135 2.82096 10.9292
239 3 -0.846964 3.33543 0.998464 15.3863
240 3 -0.857821 5.74633 1.37672 16.3443
241 3 -0.827561 5.50422 1.88167 11.0694
242 3 -0.803427 7.40225 0.881131 13.0823
327 1 -0.669722 -0.589437 2.61018 18.1497
38 4 1.31512 4.20982 6.33706 12.8301
71 2 0.0970603 -1.58291 6.56686 17.9596
331 2 0.169198 -5.46065 9.43847 4.3193
313 1 -0.675205 -4.68026 10.6615 0.426957
13 4 1.01504 -0.698553 6.72249 0.82404
16 4 1.13721 -2.18472 7.03175 6.8212
20 4 1.35256 -3.28692 8.46277 9.15531
21 4 1.02719 -3.6566 10.4628 6.89222
325 1 -0.674012 -7.57378 12.3098 7.93511
40 4 0.714243 0.855121 9.70986 4.37281
42 4 0.975424 1.57846 9.07386 8.19865
74 2 0.00758485 -4.38375 9.28396 5.76591
79 2 0.00911058 0.232565 7.09694 4.95866
80 2 -0.00201915 -1.13391 8.34107 6.4682
337 2 0.156039 -2.68153 12.4495 0.551094
84 2 -0.0300996 -0.00798352 9.55775 5.97532
86 2 -0.0337978 0.653179 10.4159 7.73697
87 2 -0.0394387 2.07971 8.44131 6.77198
105 2 0.150009 -5.27327 8.71368 2.82128
106 2 0.191171 -3.58875 7.96085 2.16126
107 2 0.134724 -3.68774 9.2563 3.6579
108 2 0.0291758 -1.41303 8.0613 1.74785
262 3 -0.82413 0.717615 8.02862 9.00444
323 2 0.191935 -7.07641 12.1059 6.91923
370 3 -0.807879 -7.66136 11.8189 3.25279
145 2 0.0721034 0.0809701 8.59963 3.09628
146 2 0.141113 -1.63111 9.59539 4.429
147 2 0.195071 -1.40959 7.75601 4.64817
12 4 1.32085 -4.45248 6.95697 4.36612
149 2 0.0998881 -2.66514 11.2917 5.0473
150 2 0.148146 -1.19692 11.3082 6.44377
193 1 -0.654702 -4.20358 8.39288 3.13483
194 1 -0.649062 -2.60638 7.24054 0.540399
334 1 -0.659768 -6.08505 10.0921 5.07487
207 1 -0.666524 -0.854219 8.71465 4.53901
208 1 -0.643292 -2.33179 11.5803 6.16852
228 3 -0.823877 -3.25582 7.08879 5.64832
233 3 -0.797713 -2.94729 6.88439 8.58828
234 3 -0.874325 -3.03205 9.68002 8.04015
235 3 -0.762395 -4.83895 11.4685 7.50845
312 2 0.151509 -5.22727 9.63559 0.618858
257 3 -0.894537 1.95454 7.38396 3.00001
259 3 -0.812583 0.814644 11.1212 3.64347
333 2 0.165366 -5.76323 11.1738 5.29671
344 2 0.18212 -1.06398 11.0909 8.0871
4 3 -0.860856 -6.86631 12.4801 0.843111
148 2 0.152814 -2.63153 12.6961 6.39881
129 2 0.1638 -1.31119 12.6181 1.38892
346 1 -0.656849 -0.419761 11.9328 8.47017
6 4 1.09339 -5.71148 12.23 8.7376
330 2 0.156046 -2.95273 8.2118 0.0336485
310 2 0.147714 -4.4679 11.1493 1.46898
128 2 0.171606 -1.27702 12.0207 3.28528
201 1 -0.650331 -0.815543 12.7679 2.53193
109 2 0.18749 -3.38382 6.59113 1.01645
347 2 0.211443 0.39038 11.6784 9.2888
83 2 0.0749184 2.47103 9.02086 4.55349
88 2 0.035144 -1.99015 11.5718 9.57385
22 4 1.08468 -3.72724 11.0041 13.4229
121 2 0.207297 -2.80238 7.88919 12.3736
43 4 1.28023 -1.90261 10.4227 10.9312
44 4 1.37991 2.66115 9.06122 13.7656
45 4 1.49578 1.07528 10.9057 11.7086
75 2 0.148373 -2.59134 12.0841 15.0198
311 2 0.164228 -3.30896 10.7989 18.4668
99 2 0.264122 -5.51991 9.98505 9.97196
100 2 0.127418 -6.99975 11.3431 10.3293
101 2 0.21917 -5.22516 11.5615 11.1404
119 2 0.163727 -1.05431 8.66809 13.0266
120 2 0.162603 -2.46978 7.93681 14.1937
125 2 0.148907 -1.7534 10.212 15.0481
126 2 0.0223259 -3.81845 9.42891 14.2278
248 3 -0.782601 0.174637 6.56507 11.5171
151 2 0.198094 3.18205 8.31507 16.669
127 2 0.155374 -3.45714 10.4289 15.8959
154 2 0.224588 0.812199 7.51544 14.5896
155 2 0.165439 0.280737 9.27312 14.5583
156 2 0.176024 1.53201 8.68913 15.8508
191 1 -0.66031 -5.7904 11.1496 10.2329
198 1 -0.682199 -2.05635 7.82061 13.1874
200 1 -0.681195 -2.72508 10.7368 15.0783
209 1 -0.673722 3.38241 7.24362 16.5221
210 1 -0.66362 1.1208 8.57852 14.8151
232 3 -0.779594 -5.004 8.35628 9.73211
236 3 -0.828116 -5.15354 11.6783 13.6761
265 3 -0.837835 3.33878 7.68089 13.2975
263 3 -0.800133 -2.3626 8.96573 10.4402
264 3 -0.839304 -2.90329 10.9487 12.0991
266 3 -0.882918 -0.345606 10.4954 11.3526
339 1 -0.668671 -1.65078 12.6079 18.1662
315 3 -0.829426 -6.4485 11.0774 17.2001
316 3 -0.835056 -7.48012 12.1085 15.0033
319 2 -0.0150545 -0.997532 11.3966 14.3009
8 4 1.47542 -6.25513 12.9017 14.252
116 2 0.169367 -4.12595 7.5974 12.5901
336 2 0.163513 -2.13934 12.0041 17.3029
27 4 1.27513 -0.249405 12.8354 13.7842
338 2 0.17756 -0.603411 12.2886 18.3275
317 2 0.0302598 -4.17375 12.4235 17.9219
34 4 1.30748 0.623498 6.60634 9.8076
152 2 0.20535 2.87298 6.93283 15.508
320 2 0.0875074 1.12677 9.234 18.4683
309 4 1.07677 -5.75148 11.8015 18.3963
267 3 -0.861807 1.82987 9.93263 12.7697
255 3 -0.78355 0.934327 7.57289 18.5
363 2 0.194319 -3.73463 6.9154 17.9858
141 2 0.210734 2.93512 6.63424 9.35007
25 4 0.728647 8.76121 1.01354 8.09383
47 4 1.35368 11.0476 1.92991 4.19867
348 2 0.170634 15.8528 0.979399 0.939526
51 4 1.51659 13.5737 2.24152 5.91489
55 4 1.26333 12.3259 4.4316 2.41421
357 2 0.217413 11.2567 2.37404 1.31175
57 4 1.29739 12.3365 4.4703 7.57683
354 1 -0.663538 15.7484 0.359718 9.26152
350 2 0.139939 14.6693 0.460171 2.46732
358 2 0.189232 9.81274 1.31199 0.396336
93 2 0.108334 13.3481 5.81715 8.03214
284 3 -0.817332 13.3296 3.76913 6.53418
133 2 0.1741 7.48711 4.53381 2.82097
134 2 0.177541 8.12936 2.84316 2.19167
352 2 0.149693 15.6988 1.53842 9.10124
351 1 -0.649923 15.4268 0.108689 1.53944
89 2 0.0211816 16.1392 0.414931 3.3894
157 2 0.158135 9.00497 0.949368 4.98788
158 2 0.18319 8.52309 2.62411 4.14739
159 2 0.160844 9.5515 2.61932 5.92366
371 3 -0.825135 12.867 0.139932 0.134149
166 2 0.23999 13.3872 3.02475 0.5511
167 2 0.192777 14.0187 2.66817 2.401
137 2 0.180224 6.82891 6.43604 4.98666
172 2 0.156134 8.56437 4.92045 5.56429
203 1 -0.653213 7.3114 3.40528 2.70397
288 3 -0.862814 11.1408 5.31029 6.88452
211 1 -0.656229 9.20378 2.09078 4.93465
81 2 -0.0515257 6.92356 3.45945 7.63803
214 1 -0.657019 13.7229 3.4898 1.6342
359 1 -0.646698 10.6324 2.19558 0.358972
269 3 -0.819631 10.701 0.774416 3.16455
271 3 -0.797508 9.77866 1.9896 8.80954
272 3 -0.841088 14.7387 2.19555 4.70209
273 3 -0.825115 12.0387 1.64922 5.36654
274 3 -0.819223 14.058 1.32839 7.14505
280 3 -0.780356 11.4622 3.31595 3.38499
281 3 -0.758017 13.0515 5.6802 3.35649
282 3 -0.773846 11.4995 5.04641 1.02705
283 3 -0.830253 12.0346 3.64834 8.87519
216 1 -0.686172 8.7444 6.05658 5.43527
77 2 -0.0226087 8.15952 1.68012 6.5661
170 2 0.177274 8.65581 6.35067 4.37497
135 2 0.116421 6.81836 2.84049 3.63998
161 2 0.166819 10.0525 5.44003 9.03205
9 4 1.2318 15.4788 2.65516 16.7758
48 4 1.27664 12.2786 1.35255 18.0377
368 2 0.146823 8.9771 5.97603 17.7832
53 4 1.44471 9.67283 1.73916 16.0761
54 4 0.995712 11.9557 1.81234 12.4372
60 4 0.987903 11.665 3.47811 14.9569
82 2 -0.017069 6.96784 4.44899 15.7577
212 1 -0.662385 9.70123 4.60609 9.74182
91 2 -0.0501762 13.5026 1.26571 12.2358
94 2 0.00232471 11.1515 5.76217 10.3406
95 2 0.117224 12.8995 3.22912 16.2808
96 2 -0.0428702 11.9818 5.13002 14.643
361 2 0.140173 12.7587 5.75775 16.654
117 2 0.12121 11.6643 6.34418 12.7759
369 1 -0.669697 9.63609 5.06343 17.8729
50 4 1.30737 10.7567 2.99353 9.67579
162 2 0.175932 9.65613 4.9116 10.8651
163 2 0.216193 8.22857 4.07677 12.2396
164 2 0.178852 7.66296 3.34666 10.5635
165 2 0.208924 8.78435 2.37882 11.8323
175 2 0.201357 7.98963 6.27336 13.9512
92 2 0.111269 11.2244 0.298922 12.7007
213 1 -0.659008 8.00133 3.19828 11.6749
367 2 0.245512 9.8407 4.57036 16.8221
270 3 -0.73242 13.6171 2.73648 17.4799
275 3 -0.828992 15.5585 1.32347 15.9348
160 2 0.188589 8.71222 4.25393 9.39237
277 3 -0.783756 11.2083 1.20566 16.8402
278 3 -0.798713 8.56587 2.01118 17.1833
279 3 -0.794071 11.3302 2.53357 11.1739
256 3 -0.775373 5.26651 5.63126 14.0974
289 3 -0.806926 10.2113 3.43963 15.5334
290 3 -0.850165 12.0161 2.64785 13.7516
343 1 -0.654813 6.19539 6.52766 18.1717
341 2 0.152471 6.28391 5.47979 17.6102
276 3 -0.884633 9.21019 0.758446 14.9798
56 4 0.92745 11.2564 6.07919 18.5951
286 3 -0.801491 4.94131 6.32553 11.3629
58 4 1.51307 6.24199 6.48285 10.3819
356 2 0.213769 10.5988 3.38606 18.48
174 2 0.148837 9.80885 6.55419 13.9914
285 3 -0.852911 6.42126 5.33169 9.32148
366 2 0.197962 9.21024 4.32962 18.589
19 4 1.14196 9.51512 10.5346 4.21172
23 4 1.24414 0.941383 12.2619 2.53404
299 3 -0.793234 4.23041 11.8597 8.7798
46 4 1.44528 5.01066 11.8694 0.85978
215 1 -0.652634 9.88448 7.41083 0.632355
59 4 1.10923 10.4683 6.49404 6.15659
62 4 1.28826 4.64375 10.4563 3.815
64 4 1.08503 7.23216 8.56005 8.29954
66 4 1.50096 6.93517 10.5491 6.02604
138 2 0.222333 5.4631 6.62353 3.62068
85 2 0.214306 5.35903 7.76777 5.2224
98 2 -0.0132527 8.66638 7.49463 8.13739
122 2 0.176211 9.60464 8.20166 3.34317
123 2 0.18486 8.99487 9.41183 2.03372
124 2 0.203095 7.74862 8.87682 3.33693
261 3 -0.809619 1.38727 11.2809 1.04711
342 2 0.161498 6.69394 6.51866 0.140597
49 4 1.27937 5.54082 12.7722 8.00213
185 2 0.187658 7.73143 10.8679 8.89122
179 2 0.137406 3.07963 10.6224 5.70758
180 2 0.238998 2.95617 12.0986 4.42968
181 2 0.22346 4.34036 12.0646 5.63467
182 2 0.154262 9.64782 8.74181 6.98299
365 2 0.150071 9.0134 6.73763 1.15104
184 2 0.194024 10.2045 8.13506 8.5832
41 4 1.36686 1.92315 10.1016 0.172996
199 1 -0.653809 8.89313 9.07095 3.06228
183 2 0.192648 11.4794 8.44327 7.47054
219 1 -0.682639 3.60591 11.459 5.04655
220 1 -0.70263 10.4309 8.14789 7.521
322 2 0.177536 9.19408 11.4343 8.32164
204 1 -0.663234 5.69606 6.6831 4.71249
298 3 -0.810866 2.89678 9.49882 8.78469
287 3 -0.812016 11.4088 7.10544 4.91822
293 3 -0.812389 3.91053 9.02957 3.77633
294 3 -0.824415 4.6601 11.265 2.23253
171 2 0.126534 8.08492 6.68662 6.17644
260 3 -0.853341 2.6907 9.06146 1.04401
349 2 0.181746 7.39019 12.1691 1.84075
301 3 -0.784558 8.52637 10.6187 5.46941
302 3 -0.799914 6.1354 10.4554 4.55632
303 3 -0.823076 6.76467 9.23522 6.93441
304 3 -0.800105 6.42692 11.7663 6.97468
258 3 -0.837397 4.36121 7.22553 1.68219
169 2 0.164948 10.7309 7.84133 1.29961
186 2 0.161355 9.20892 9.69071 8.99404
39 4 1.49329 3.18972 8.09429 2.25875
221 1 -0.675445 8.12495 9.88985 9.2824
76 2 0.0349099 0.837943 12.5021 7.22052
355 2 0.170877 7.95 12.7353 8.9041
332 2 0.189054 10.9177 9.44205 6.02975
15 4 0.967612 11.2799 7.44691 10.7976
153 2 0.210443 4.47622 7.00798 16.546
61 4 1.00941 8.39785 7.85619 12.1909
63 4 1.16146 6.73057 9.92386 17.5561
292 3 -0.761106 7.42297 6.61911 11.4395
67 4 1.42275 4.3266 10.6697 16.1761
97 2 0.00315693 6.823 8.4207 18.3657
52 4 0.992015 6.30793 12.736 15.3442
353 2 0.136509 6.50666 12.8801 10.2891
321 2 0.0988415 7.49307 11.5473 15.8213
176 2 0.152551 8.40994 10.4024 12.1229
177 2 0.157264 7.46056 9.75821 13.5603
178 2 0.171078 6.53986 9.8082 11.848
340 2 0.160255 5.81354 7.40285 17.467
187 2 0.187962 7.96403 9.8529 10.456
188 2 0.280209 5.38629 9.28074 10.2258
189 2 0.193624 4.18619 9.7243 11.7401
190 2 0.144771 5.45848 10.9413 11.0792
268 3 -0.778203 0.831812 12.5819 12.5679
218 1 -0.679504 7.59606 9.72416 12.4617
222 1 -0.67343 4.81495 10.0664 10.8505
314 4 1.17575 9.85209 10.8862 15.9986
118 2 0.164263 11.4675 8.24013 13.0315
197 1 -0.663667 12.0724 7.44888 12.5078
90 2 -0.0544151 6.4888 12.6759 13.7273
291 3 -0.752026 9.79435 7.97191 11.0191
296 3 -0.841864 6.25454 11.0927 18.5857
295 3 -0.779017 8.26673 10.4434 16.7253
173 2 0.126965 8.63862 8.01608 14.5121
300 3 -0.845183 2.1046 11.3431 10.5652
305 3 -0.794605 3.51687 9.95274 14.8158
306 3 -0.833778 5.61693 9.68797 16.4073
307 3 -0.802353 4.87717 12.1881 15.7423
308 3 -0.827155 3.03329 10.6224 17.5155
318 2 -0.0373889 10.2976 9.61808 15.0201
65 4 1.30922 3.41395 10.8212 9.66139
364 2 0.141226 12.2047 7.57516 16.8315
217 1 -0.665425 8.77859 7.05176 13.8279
168 2 0.157668 9.94256 8.33076 18.5291
297 3 -0.80147 6.19432 7.95993 9.38482
362 1 -0.652888 12.6616 6.68458 17.3242
ITEM: TIMESTEP
100
ITEM: NUMBER OF ATOMS
371
ITEM: BOX BOUNDS xy xz yz pp pp pp
-8.8480496666666681e+00 1.7771574166666667e+01 -8.8480496666666681e+00
0.0000000000000000e+00 1.3020299999999999e+01 4.5874703333333500e-01
0.0000000000000000e+00 1.8640300000000000e+01 2.0540000000000000e-01
ITEM: ATOMS id type q x y z
360 2 0.215981 -2.69641 4.25627 1.77705
2 2 -0.0123834 2.19557 1.6367 2.74738
345 2 0.0474564 7.23463 0.383164 8.69679
324 2 0.134834 1.12406 0.768357 8.71606
68 2 0.0332379 2.05287 1.46738 7.18637
7 4 1.05559 0.943221 2.48905 6.2825
11 4 1.25354 0.224433 4.22671 2.41032
14 4 1.31664 -0.832579 4.61937 7.73369
30 4 1.12133 5.53832 3.05409 1.79119
31 4 1.24804 1.70411 6.21551 4.08514
72 2 -0.00222026 -2.23089 3.96552 8.47981
33 4 1.23577 5.58606 4.34419 8.30766
35 4 1.0493 4.28709 5.7739 5.69998
5 4 1.31563 -1.11545 2.06827 4.09802
70 2 -0.012941 1.23893 3.54033 1.29705
135 2 0.114343 6.70767 2.54807 3.6723
102 2 0.204675 2.53376 3.69889 5.04353
103 2 0.148056 3.31555 2.00035 5.64597
104 2 0.220634 3.42531 3.5081 6.78148
130 2 0.1457 4.83727 1.10405 3.32172
131 2 0.164892 3.643 1.38428 1.89107
132 2 0.163751 3.5957 2.49302 3.38389
250 3 -0.821537 4.86616 5.16177 7.0592
192 1 -0.694026 2.80982 2.95921 5.91859
202 1 -0.686442 4.18554 1.85388 2.75708
223 3 -0.801196 0.170895 1.6502 5.04857
225 3 -0.875631 -0.74044 3.12885 3.05119
226 3 -0.830234 -0.487841 5.36192 1.48985
227 3 -0.830417 -0.00324299 3.39948 7.20877
229 3 -0.817486 -1.3114 5.77979 6.61386
243 3 -0.75183 6.126 2.16587 0.553189
244 3 -0.845657 1.28462 4.81146 3.48611
245 3 -0.807402 5.02477 4.45919 1.46112
246 3 -0.837755 4.53041 3.4152 8.94946
249 3 -0.821708 2.73778 6.05108 5.42885
32 4 1.25257 4.42282 5.81802 0.732151
247 3 -0.843426 -0.0864891 5.39308 8.83738
1 4 0.941724 1.46138 0.191508 2.17137
3 2 -0.0169251 -0.0633484 0.806577 1.59132
201 1 -0.641231 8.05327 0.0810124 2.16925
136 2 0.0109129 4.95264 5.09811 4.28529
139 2 0.23921 2.67467 5.24178 8.99934
10 4 1.06044 1.80044 1.7343 11.6983
17 4 1.19683 0.257755 4.57395 15.3846
73 2 0.0333799 -2.52876 6.07904 12.6575
24 4 1.25525 6.97374 1.47693 17.6564
26 4 1.45181 4.20789 2.22236 9.99913
252 3 -0.823122 6.00546 3.19306 13.6232
28 4 1.2659 4.27419 2.08301 16.2134
29 4 1.3407 6.60042 2.14435 12.5543
253 3 -0.793188 1.4496 5.193 16.602
36 4 1.27567 5.54805 4.24076 14.697
37 4 1.21364 2.22591 6.19178 17.6209
251 3 -0.823748 4.37041 3.57992 15.5085
328 2 0.144551 0.108883 1.75654 18.001
71 2 0.0646046 -1.64542 6.32963 17.945
78 2 -0.0231584 3.37976 2.38499 17.656
110 2 0.159056 -0.582869 2.28373 10.7565
111 2 0.146306 0.332833 3.38945 12.0984
112 2 0.155522 -0.643514 1.65752 12.617
113 2 0.191397 0.499666 2.76103 13.6299
114 2 0.179505 0.70561 2.1936 15.5033
115 2 0.214403 2.06582 3.17324 14.6984
69 2 0.00606816 0.728508 0.876211 10.6145
140 2 0.21482 2.59305 5.38208 10.9555
326 2 0.179411 -0.0299971 3.63958 18.0754
142 2 0.214614 2.90195 4.56048 13.9472
143 2 0.251282 2.81238 4.15595 12.1261
144 2 0.199039 1.94142 5.71623 12.7442
195 1 -0.673281 -0.07203 2.2112 11.7679
196 1 -0.659088 0.951243 3.01857 14.6888
205 1 -0.646767 2.39878 5.89309 9.86331
206 1 -0.691843 2.83416 4.97436 12.9127
224 3 -0.813902 2.1561 0.77016 12.9448
230 3 -0.758239 -1.3539 4.08432 15.9535
231 3 -0.773805 -0.0499141 5.5538 14.0558
18 4 1.01423 -0.713452 6.48482 12.7662
238 3 -0.799239 2.72792 2.75846 10.9408
239 3 -0.838766 3.45837 1.12952 15.2614
240 3 -0.857214 5.68877 1.57033 16.7027
241 3 -0.763967 5.4694 2.05445 11.15
242 3 -0.866563 7.20014 0.769378 13.0804
327 1 -0.680498 -0.597355 2.64688 18.1585
38 4 1.34747 4.19621 6.30318 12.8709
34 4 1.37375 0.585394 6.46926 9.75854
237 3 -0.860051 3.82049 0.851355 9.36861
254 3 -0.823215 3.3476 5.63794 18.6125
331 2 0.166593 -5.47359 9.42542 4.32313
313 1 -0.66579 -4.56623 10.6677 0.433881
13 4 1.02839 -0.781661 6.66173 0.544742
16 4 1.21825 -2.24593 6.99304 6.74218
20 4 1.41303 -3.26254 8.35236 9.19223
21 4 1.01613 -3.67336 10.5427 7.04586
325 1 -0.670068 -7.54852 12.6584 8.07796
40 4 0.712201 0.834124 9.65055 4.412
42 4 0.985082 1.46135 8.97174 8.157
74 2 0.0014848 -4.26716 9.63998 5.62297
79 2 0.00187511 0.352409 7.06235 4.68982
80 2 0.013837 -1.24773 8.38435 6.3177
337 2 0.157661 -2.82515 11.9422 0.214765
84 2 -0.0294396 -0.0442227 9.48613 5.98089
86 2 -0.0257803 0.529178 10.3758 7.74004
87 2 -0.0338056 1.7533 8.24957 6.67947
105 2 0.160488 -5.07392 8.90642 2.90929
106 2 0.178924 -3.51626 8.02262 2.11459
107 2 0.136489 -3.40115 9.02651 3.8497
108 2 0.0604895 -1.69485 7.99418 1.63496
262 3 -0.801434 0.658929 7.93837 8.98906
323 2 0.20252 -7.88367 12.8684 7.01845
370 3 -0.797843 -7.61656 11.941 3.30465
145 2 0.0669341 0.188615 8.36661 3.06356
146 2 0.154279 -1.45812 9.51262 4.29972
147 2 0.176668 -1.38202 7.6838 4.54232
12 4 1.27795 -4.37827 6.94704 4.36935
149 2 0.126938 -2.43377 11.3892 5.05761
150 2 0.170098 -1.36481 11.4783 6.56401
193 1 -0.65894 -4.12388 8.38119 3.1958
194 1 -0.654211 -2.6467 7.43233 0.420176
334 1 -0.640649 -6.21188 9.97849 5.11546
207 1 -0.683557 -0.804744 8.65281 4.4721
208 1 -0.68757 -2.40603 11.6196 6.18017
228 3 -0.85666 -3.36608 7.02892 5.6557
233 3 -0.815941 -2.88712 6.9355 8.51332
234 3 -0.868366 -2.98349 9.42424 7.96833
235 3 -0.784597 -4.78208 11.4962 7.79915
312 2 0.148968 -5.25371 9.73671 0.626431
257 3 -0.894192 2.10315 7.16192 2.92669
259 3 -0.793466 0.748716 11.1267 3.77115
333 2 0.162574 -5.82572 11.0356 5.48912
344 2 0.16135 -1.0584 10.9595 8.30444
4 3 -0.848221 -6.67158 12.4906 0.891889
148 2 0.153583 -2.78837 12.6473 6.44302
129 2 0.178694 -1.20804 12.6159 1.03201
346 1 -0.644052 -0.476971 11.9377 8.45445
6 4 1.13064 -5.65397 12.2865 8.91882
109 2 0.17308 -3.53306 6.87096 0.833228
310 2 0.165279 -4.04145 11.0528 1.35135
128 2 0.142986 -1.35604 12.2614 3.07714
83 2 0.0589148 2.3888 8.95934 4.70309
88 2 0.00928545 -1.92903 11.4659 9.72276
22 4 1.09811 -3.72599 11.0738 13.4424
121 2 0.195671 -2.86695 8.19217 12.7173
43 4 1.2435 -1.8888 10.3326 10.9524
44 4 1.30988 2.48202 9.1133 13.9359
45 4 1.4356 1.13063 11.1793 11.813
75 2 0.113518 -2.61388 12.09 14.9882
311 2 0.138693 -3.34521 10.548 18.2443
99 2 0.264317 -5.43153 9.93921 10.1357
100 2 0.161236 -6.93816 11.0242 10.4486
101 2 0.229851 -5.22229 11.6229 11.07
119 2 0.142651 -0.750209 8.48626 13.1213
120 2 0.164906 -2.3681 7.66642 14.4249
125 2 0.143637 -1.71259 10.116 14.8776
126 2 0.0288511 -3.96542 9.50735 14.2422
141 2 0.231815 2.98698 6.87251 9.83754
151 2 0.197178 2.94152 8.33857 16.8741
127 2 0.149525 -3.17077 10.1644 16.0364
154 2 0.194316 0.784168 7.53364 14.6233
155 2 0.144809 0.102701 9.32027 14.5157
156 2 0.179363 1.08432 8.78494 15.9815
191 1 -0.673534 -5.81341 11.0246 10.3263
198 1 -0.644759 -2.02961 7.72958 13.3406
200 1 -0.669626 -2.73438 10.6135 15.0998
209 1 -0.651702 3.3045 7.27643 16.5615
210 1 -0.706845 0.95841 8.62848 14.8906
232 3 -0.801451 -4.9112 8.17179 9.8142
236 3 -0.869857 -5.04996 11.8388 13.6142
265 3 -0.771306 3.40391 7.66357 13.253
263 3 -0.797283 -2.27758 8.8867 10.4399
264 3 -0.824272 -2.96807 10.834 12.0268
266 3 -0.81596 -0.334585 10.3701 11.597
339 1 -0.686653 -1.6709 12.4536 17.9416
315 3 -0.834833 -6.422 11.1247 17.2407
316 3 -0.832735 -7.49852 12.0491 14.9748
319 2 -0.00909901 -1.14634 11.5684 14.3279
8 4 1.50079 -6.12468 12.8328 14.2054
116 2 0.16889 -4.18528 8.083 12.3224
336 2 0.167798 -2.09528 11.8549 17.0613
27 4 1.24043 -0.319346 12.9661 13.7632
338 2 0.176176 -0.525482 12.3642 18.075
317 2 0.0335 -4.01025 12.4275 17.9345
330 2 0.161163 -2.44248 8.55598 18.5101
152 2 0.222454 3.1601 7.03973 15.417
320 2 0.0704694 1.12018 9.14293 18.3058
309 4 1.04904 -5.61707 11.8369 18.3809
248 3 -0.79391 -0.061143 6.54061 11.2947
255 3 -0.80759 0.867853 7.48548 18.3822
363 2 0.171455 -3.8704 7.10786 17.9149
347 2 0.210865 0.154878 11.8523 9.39372
25 4 0.719233 8.92444 0.994248 7.90986
47 4 1.29846 11.1267 2.00732 4.09926
348 2 0.165945 15.9022 0.213827 0.363385
51 4 1.51886 13.5928 2.19478 5.80595
55 4 1.28242 12.3913 4.53504 2.4125
357 2 0.212016 11.3884 2.28889 1.45821
57 4 1.27387 12.4276 4.47182 7.57459
354 1 -0.674213 15.7136 0.362561 9.17419
350 2 0.14403 15.1046 1.20143 1.79695
358 2 0.220112 9.91625 1.2754 0.710123
93 2 0.0760387 13.4497 5.6685 8.19443
284 3 -0.794573 13.2862 3.7181 6.45047
133 2 0.174065 7.22375 4.35042 3.18707
134 2 0.175477 8.1019 2.95173 2.27231
356 2 0.188881 10.1703 3.20966 0.0192793
351 1 -0.692825 15.3826 0.165618 1.37346
89 2 0.00802418 15.9726 0.5785 3.20701
157 2 0.122835 9.26883 1.13436 5.1628
158 2 0.180694 8.59846 2.76067 4.20695
159 2 0.189916 9.63833 2.95543 5.85828
371 3 -0.760958 12.661 0.220168 0.190253
166 2 0.217089 13.4949 3.16757 0.551685
167 2 0.182001 13.9061 2.56093 2.39453
335 2 0.184399 8.02162 1.23644 2.3521
172 2 0.158775 8.32261 5.16616 6.01558
203 1 -0.644546 7.17352 3.31505 2.84286
288 3 -0.819334 11.0295 5.08725 7.12678
211 1 -0.65343 9.44244 2.36651 4.97227
81 2 -0.0558043 6.65821 3.36137 7.51442
214 1 -0.676518 13.7446 3.45032 1.66739
359 1 -0.643369 10.6268 2.13317 0.505591
269 3 -0.781635 10.6226 0.578347 2.94852
271 3 -0.748877 9.77971 1.85232 8.89762
272 3 -0.849015 14.8795 2.30349 4.8659
273 3 -0.849547 12.2126 1.54821 5.08159
274 3 -0.784983 14.0799 1.17392 7.12106
280 3 -0.783784 11.515 3.35243 3.32929
281 3 -0.764899 13.1673 5.62964 3.39372
282 3 -0.76109 11.4355 5.21919 1.23283
283 3 -0.823093 12.1662 3.48124 8.78725
216 1 -0.675951 8.68297 6.12438 5.58188
77 2 -0.0296893 8.36077 1.96191 6.58341
170 2 0.182368 8.63766 6.21958 4.46602
352 2 0.172418 15.5014 1.494 9.05573
161 2 0.178542 9.97905 5.36719 9.09241
366 2 0.193649 8.92379 4.02313 0.137535
355 2 0.175473 16.7817 0.127248 8.92439
329 2 0.168656 15.5327 2.33493 0.502027
9 4 1.21054 15.4818 2.75632 16.7443
48 4 1.24396 12.3145 1.53785 18.0783
368 2 0.137271 8.9758 5.97573 18.0034
53 4 1.44095 9.76161 1.7299 16.1092
54 4 1.01779 11.9063 2.06131 12.3228
60 4 0.968444 11.6095 3.65695 14.9194
82 2 -0.000515298 6.81003 4.4308 15.7696
212 1 -0.662184 9.6458 4.56138 9.77304
91 2 -0.0418144 13.5284 1.96619 11.8956
94 2 -0.021204 11.1142 5.76012 10.3013
95 2 0.12044 12.8873 3.30607 16.1868
96 2 -0.0411862 11.932 5.32182 14.6988
361 2 0.125833 12.5223 5.65639 16.7668
117 2 0.122174 12.2464 6.34138 12.6683
369 1 -0.650621 9.70833 5.02463 18.0175
50 4 1.28945 10.8457 3.05018 9.67709
162 2 0.181525 9.4907 4.93833 10.8482
163 2 0.207925 8.19961 4.15552 12.431
164 2 0.195632 7.80224 3.42485 10.8141
165 2 0.218383 8.88301 2.51168 11.9902
285 3 -0.829615 6.37586 5.20638 9.42878
92 2 0.0997648 11.424 0.462609 12.6401
213 1 -0.674172 8.04293 3.22762 11.9173
367 2 0.234499 9.95582 4.57201 16.9367
270 3 -0.751369 13.625 2.92669 17.3767
275 3 -0.826138 15.5184 1.40799 15.9055
58 4 1.51848 6.14099 6.50129 10.3602
277 3 -0.780984 11.1432 1.15248 16.9317
278 3 -0.788752 8.44121 2.00332 17.0213
279 3 -0.835872 11.128 2.67019 11.1878
256 3 -0.800302 5.21329 5.77238 14.0417
289 3 -0.797291 10.2264 3.46806 15.573
290 3 -0.845991 11.8927 2.87645 13.6501
286 3 -0.800863 4.81094 6.3337 11.3068
341 2 0.148831 6.20684 5.71344 17.4782
276 3 -0.864106 9.28053 0.868095 14.8943
56 4 0.887805 11.2025 6.18101 18.5783
160 2 0.176234 8.70271 3.96438 9.36897
19 4 1.1308 9.40072 10.6582 4.27528
23 4 1.22398 0.846424 12.1941 2.45902
299 3 -0.761886 4.31917 11.8905 8.78856
46 4 1.35331 5.08475 11.8324 0.945056
215 1 -0.638904 10.0803 7.67147 0.648298
59 4 1.06034 10.4304 6.49363 6.26103
62 4 1.34491 4.56975 10.5583 3.74887
64 4 1.06873 7.22193 8.52957 8.31028
66 4 1.49705 6.81913 10.4076 5.97424
138 2 0.217258 5.45331 6.89503 3.73095
85 2 0.230725 5.17656 7.85298 5.43288
98 2 -0.00706218 8.52885 7.37286 8.0802
122 2 0.184192 9.82631 8.49211 3.476
123 2 0.178211 9.01085 9.50457 2.05628
124 2 0.193738 7.92663 8.67962 3.38531
261 3 -0.777796 1.22436 11.2011 0.841021
137 2 0.197456 6.73657 6.64491 5.17513
49 4 1.32177 5.63104 12.6083 7.86311
185 2 0.201247 7.64855 10.9054 8.65245
179 2 0.153369 2.95317 11.1735 5.65005
180 2 0.262252 2.90614 12.4167 4.16882
181 2 0.234297 4.44688 12.3064 5.41053
182 2 0.159396 9.64744 8.84518 6.96068
365 2 0.17834 9.59847 7.22187 1.61441
184 2 0.16557 9.98971 7.90952 8.66129
41 4 1.3495 1.92245 10.001 0.143497
199 1 -0.659316 8.92577 9.14951 3.12465
183 2 0.183773 11.352 8.48037 7.47638
219 1 -0.65523 3.62368 11.743 4.9201
220 1 -0.693088 10.2949 8.09231 7.53849
322 2 0.171465 9.19813 11.7678 8.47225
204 1 -0.659438 5.62647 6.87114 4.88807
298 3 -0.75869 2.80465 9.33274 8.69106
287 3 -0.765713 11.2384 7.02719 4.99747
293 3 -0.790109 3.75759 9.1415 3.73971
294 3 -0.857601 4.73462 11.2242 2.32405
171 2 0.153106 8.23637 7.08946 6.10921
260 3 -0.853153 2.77619 9.1858 1.1907
349 2 0.159476 7.16163 12.2655 2.03974
301 3 -0.77741 8.46086 10.7478 5.57088
302 3 -0.829539 5.98872 10.3427 4.6627
303 3 -0.805851 6.76605 8.87133 6.83326
304 3 -0.85369 6.39291 11.6341 6.84112
258 3 -0.84959 4.47464 7.15208 1.7535
169 2 0.159283 11.0367 8.2778 0.981345
186 2 0.167139 9.17911 9.86063 8.83929
39 4 1.4797 3.2722 8.03103 2.19957
221 1 -0.70012 8.11385 10.0557 9.11536
76 2 0.0157314 0.630896 12.3523 6.99818
332 2 0.196854 10.7898 9.30833 5.94786
342 2 0.164659 6.63935 6.56298 0.149727
15 4 0.986839 11.3454 7.41578 10.8626
153 2 0.200739 4.39705 7.0988 16.9998
61 4 1.03985 8.38571 7.82448 12.037
63 4 1.1721 6.67698 9.96836 17.4834
292 3 -0.801387 7.44637 6.73619 11.2341
67 4 1.43242 4.24143 10.6404 16.1558
97 2 0.014809 6.826 8.55312 18.417
52 4 0.987319 6.27781 12.7495 15.4233
353 2 0.146606 6.61538 12.816 10.208
321 2 0.104842 7.61752 11.7333 15.9089
176 2 0.152103 8.28963 10.3617 12.0653
177 2 0.164649 7.24391 9.33734 13.3722
178 2 0.182318 6.47088 9.72656 11.6838
340 2 0.184077 6.15629 7.53756 17.3298
187 2 0.18235 7.96613 10.0143 10.2798
188 2 0.254883 5.16041 9.19259 10.4742
189 2 0.238674 4.09557 9.8827 11.9057
190 2 0.135406 5.39254 11.0449 11.0122
268 3 -0.816932 0.980606 12.5449 12.6157
218 1 -0.663583 7.48165 9.55254 12.2462
222 1 -0.67069 4.6217 10.1063 10.9218
314 4 1.1842 9.86236 10.9266 16
118 2 0.178493 11.2714 8.00721 13.123
197 1 -0.656709 12.1033 7.48917 12.5546
90 2 -0.0393035 6.50297 12.6322 13.7992
291 3 -0.757528 9.98563 8.14251 11.1494
296 3 -0.859311 6.19243 11.0217 18.5084
295 3 -0.787031 8.32433 10.5174 16.6433
173 2 0.146298 9.01401 8.2079 14.425
300 3 -0.800537 2.05528 11.5305 10.4363
305 3 -0.797185 3.46599 9.82974 14.8862
306 3 -0.791264 5.65729 9.53133 16.3844
307 3 -0.8178 4.86584 12.1391 15.7096
308 3 -0.83389 3.18228 10.446 17.497
318 2 -0.0332192 10.5183 9.49313 15.1885
65 4 1.22851 3.3867 10.8461 9.72711
364 2 0.148913 12.1567 7.62524 16.5225
217 1 -0.671142 8.76413 7.30489 13.8409
168 2 0.155297 9.85385 8.40881 18.5752
297 3 -0.797509 6.12894 7.91617 9.37494
362 1 -0.636622 12.4747 6.77959 17.2193
174 2 0.142504 9.70643 6.62434 13.7051
343 1 -0.675601 6.19993 6.70462 18.063
175 2 0.184769 7.8672 6.77498 14.3261
267 3 -0.803716 2.08952 10.1069 12.7327
ITEM: TIMESTEP
200
ITEM: NUMBER OF ATOMS
371
ITEM: BOX BOUNDS xy xz yz pp pp pp
-8.8450993333333336e+00 1.7765648333333335e+01 -8.8450993333333336e+00
0.0000000000000000e+00 1.3020299999999999e+01 4.5859406666666658e-01
0.0000000000000000e+00 1.8640300000000000e+01 2.0540000000000000e-01
ITEM: ATOMS id type q x y z