ITEM: TIMESTEP
0
ITEM: NUMBER OF ATOMS
371
ITEM: BOX BOUNDS xy xz yz pp pp pp
-8.8510000000000009e+00 1.7777500000000000e+01 -8.8510000000000009e+00
0.0000000000000000e+00 1.3020299999999999e+01 4.5889999999999997e-01
0.0000000000000000e+00 1.8640300000000000e+01 2.0540000000000000e-01
ITEM: ATOMS id type q x y z
3 2 -0.0487164 0.352568 0.757106 1.51589
7 4 1.12228 1.31239 2.5587 6.09527
11 4 1.19953 0.332841 4.74339 2.54306
14 4 1.20344 -0.482995 4.00631 7.95935
70 2 0.0858014 1.46499 4.40349 1.33634
223 3 -0.853988 0.368642 2.21869 4.91701
225 3 -0.844128 -0.53517 3.43347 2.82263
226 3 -0.815884 -0.683211 6.01253 2.01148
227 3 -0.823536 0.851598 2.98374 7.50138
229 3 -0.80558 -1.02953 5.02134 6.86351
244 3 -0.801192 1.38223 5.20974 3.86441
324 2 0.200576 1.20156 0.9718 8.364
5 4 1.30597 -0.914623 2.37597 3.97477
166 2 0.186899 -3.34198 5.01195 0.052045
360 2 0.230051 -2.35889 4.27501 1.43874
247 3 -0.793686 0.0660482 4.88964 9.25498
72 2 -0.010877 -1.64072 2.96885 8.57863
281 3 -0.78528 -3.8428 5.76811 3.29306
16 4 1.25849 -1.8502 6.40795 7.04567
233 3 -0.823931 -2.63111 6.33395 8.47475
201 1 -0.64597 7.87934 0.199918 1.93875
250 3 -0.831155 5.07818 5.26397 6.89761
25 4 0.726886 8.4965 0.279556 8.11412
68 2 0.0293652 2.49755 1.24708 6.34085
131 2 0.162873 4.44804 0.73803 2.21942
139 2 0.257741 2.82472 4.53753 9.27578
202 1 -0.667542 4.49683 1.58044 2.90777
77 2 0.0625377 6.80541 1.11092 8.29681
102 2 0.219008 2.85802 4.08604 5.35693
192 1 -0.667342 3.18374 2.91321 5.59935
243 3 -0.747957 6.18003 2.11478 0.480207
245 3 -0.786392 4.63139 4.28602 1.64563
246 3 -0.79481 4.72614 3.18266 8.54611
132 2 0.150666 3.58013 2.35422 2.81897
254 3 -0.814576 2.35633 5.38673 0.32305
30 4 1.06228 5.60054 2.8553 1.77105
32 4 1.25532 4.15569 5.65488 0.901549
2 2 -0.00894193 2.71707 0.739241 2.68943
103 2 0.169119 3.66837 2.37886 4.61915
104 2 0.238932 3.88793 3.05693 6.41948
130 2 0.149138 4.97608 1.35756 3.92689
33 4 1.25813 5.53294 4.48375 8.22507
335 2 0.200252 7.77124 1.35339 2.23944
129 2 0.185245 7.65397 0.0421818 0.818183
10 4 1.05233 1.78085 1.82682 11.4002
17 4 1.26284 0.0925698 4.8002 15.6401
34 4 1.2777 0.968819 6.0987 9.89178
37 4 1.20784 1.95415 6.35261 17.8374
69 2 -0.00520862 1.16738 0.808244 10.1374
18 4 1.03479 -0.611643 6.34873 12.9751
110 2 0.160628 -0.285813 2.8388 10.7803
111 2 0.203205 0.648284 3.89158 12.1043
112 2 0.167572 -0.317541 2.35417 12.6005
113 2 0.220427 2.23647 3.62971 15.0268
114 2 0.193114 0.744713 3.30692 13.6997
115 2 0.159497 0.742316 2.56855 15.5718
144 2 0.242058 1.8734 5.705 12.5858
195 1 -0.68929 0.264574 2.88328 11.7789
196 1 -0.654402 1.11908 3.43824 14.8666
230 3 -0.77891 -1.51603 4.14111 16.2041
231 3 -0.829534 -0.0492526 5.73827 14.3764
253 3 -0.806607 0.994993 5.45759 16.8539
326 2 0.166522 -0.19114 2.69407 17.5343
224 3 -0.817392 2.10976 0.921831 12.719
248 3 -0.759322 0.361503 6.31519 11.6899
73 2 0.0272347 -2.1785 5.73677 12.5235
239 3 -0.857392 3.63437 1.07202 15.0036
205 1 -0.643436 2.75285 5.47296 9.9048
240 3 -0.862876 5.64524 1.60034 16.686
237 3 -0.811776 4.00284 0.825416 9.55516
238 3 -0.758108 3.03556 2.8203 10.9937
242 3 -0.85001 7.03008 0.917257 13.178
140 2 0.206659 2.82679 5.24448 11.0248
347 2 0.203398 8.04178 0.751418 10.3193
252 3 -0.835951 5.96124 3.50102 13.419
241 3 -0.813763 5.99722 2.30788 10.9799
251 3 -0.831289 4.23072 3.63099 15.5418
24 4 1.2449 7.0416 1.67337 17.3831
26 4 1.38242 4.5197 2.25401 10.058
28 4 1.24062 4.21611 1.96833 16.087
29 4 1.36351 6.67643 2.33194 12.4464
36 4 1.26244 5.45946 4.23811 14.7015
78 2 -0.0282697 3.06158 1.96664 17.318
142 2 0.214473 2.6149 4.74496 14.2107
143 2 0.217447 3.29406 4.42652 12.5243
206 1 -0.679721 2.78697 5.21048 13.1559
346 1 -0.628552 7.31175 0.200122 9.61852
341 2 0.186626 5.0603 5.46073 17.1592
141 2 0.238079 3.42246 6.35659 9.65171
8 4 1.43372 2.62531 0.230445 14.0341
38 4 1.3209 4.13013 6.50448 13.1917
12 4 1.23432 -3.81629 6.9444 4.48216
21 4 1.01391 -3.89217 10.3615 7.30127
74 2 -0.0135389 -4.59667 9.79775 5.86198
105 2 0.157738 -4.10451 9.26134 3.87108
106 2 0.169453 -2.90432 8.25281 2.61097
107 2 0.146101 -2.26709 8.81229 4.36588
330 2 0.162553 -3.2746 8.82799 0.370684
148 2 0.177768 -2.74526 12.3074 7.40159
193 1 -0.684815 -3.23281 8.5258 3.79039
208 1 -0.676799 -2.20179 11.4674 6.91616
228 3 -0.821608 -2.78771 6.65786 5.83603
234 3 -0.864065 -3.46806 9.14163 8.1813
235 3 -0.831586 -4.79098 11.3554 8.09927
109 2 0.206168 -3.31362 7.16426 1.49861
332 2 0.152789 -6.14977 10.6452 5.63375
333 2 0.1658 -5.57576 10.5754 3.84672
334 1 -0.650001 -6.1536 10.038 4.68343
6 4 1.15525 -5.58916 12.2461 9.13018
149 2 0.0951717 -2.55803 11.0963 5.69678
194 1 -0.65546 -2.72541 7.70218 0.724725
4 3 -0.822055 -6.65518 11.8654 0.748287
312 2 0.15192 -3.81881 10.993 0.918906
20 4 1.37793 -3.16626 7.94034 9.23284
1 4 0.94637 -7.25197 12.5362 1.94547
325 1 -0.677695 -7.32323 12.7127 8.41416
323 2 0.167324 -7.01049 12.3015 7.37543
370 3 -0.794251 -7.71246 11.4886 3.01224
331 2 0.232378 -5.91521 8.83579 4.87751
311 2 0.0606063 -5.29466 9.43106 0.0656526
259 3 -0.769198 0.494244 11.4859 3.83716
108 2 0.0100113 -1.44327 8.69061 1.73266
87 2 0.00389933 1.22971 8.48693 6.70612
146 2 0.15192 -1.1091 9.93561 6.20336
31 4 1.1898 1.83567 6.66625 4.18739
262 3 -0.819824 1.14129 7.49824 9.1207
86 2 -0.0331002 0.1669 9.98287 8.7312
84 2 -0.0151427 0.861195 10.4081 6.3285
145 2 -0.00277585 -0.0996246 8.79444 3.84954
150 2 0.127151 -1.67748 10.7106 7.59791
128 2 0.15875 -1.5879 12.2727 2.6287
76 2 0.0176386 -0.55602 12.3453 6.50174
147 2 0.140499 -0.955138 8.24836 5.22876
207 1 -0.661753 -0.34915 9.05437 5.7646
13 4 1.09064 -0.870252 7.16468 0.979435
257 3 -0.873329 2.07663 7.48222 2.82636
40 4 0.687984 0.902654 10.1128 4.55366
42 4 0.95668 1.4233 8.87562 8.40637
79 2 -0.0195447 0.58684 7.49673 5.07304
80 2 0.0085532 -0.4781 7.49645 6.88212
249 3 -0.76417 3.23374 6.59372 5.32453
344 2 0.0168069 -0.485199 11.5594 9.11996
22 4 0.991622 -3.92854 10.8874 13.585
75 2 0.0782845 -3.10975 12.1346 14.6958
88 2 0.00465164 -2.15348 11.174 9.52547
100 2 0.276122 -5.76807 11.4061 11.7665
101 2 0.191357 -5.65706 10.2975 10.2125
126 2 0.0492641 -4.0158 9.35566 14.7031
317 2 0.0768192 -3.85692 12.2069 17.5327
191 1 -0.677956 -6.08986 11.2348 10.647
200 1 -0.636648 -2.95334 10.5068 15.3104
232 3 -0.769012 -4.61841 7.31559 10.1198
236 3 -0.831245 -5.34934 11.5546 13.4822
263 3 -0.824281 -2.15061 8.58059 10.2111
264 3 -0.784457 -2.97173 10.4409 12.1983
316 3 -0.803466 -7.62575 12.6079 15.0291
121 2 0.216582 -2.79303 7.76842 12.2183
345 2 0.204191 -2.44369 12.7342 10.1978
310 2 0.151036 -2.58109 10.326 18.1084
127 2 0.170053 -3.25213 10.6274 16.509
315 3 -0.812395 -6.38983 11.1884 16.79
71 2 0.123614 -2.1749 7.15901 18.2658
309 4 0.992447 -5.47993 11.3671 18.1209
120 2 0.151962 -2.55977 7.50972 14.0177
313 1 -0.643303 -3.53749 10.8104 18.4988
198 1 -0.668214 -2.02833 7.63536 13.0871
99 2 0.157335 -7.20242 11.2025 10.5359
337 2 0.165376 -1.56011 12.0251 18.4186
125 2 0.143184 -1.89274 10.0793 15.1655
27 4 1.33287 -0.615818 12.7723 13.7321
266 3 -0.848203 -0.380745 10.1538 11.2555
320 2 0.064706 1.22693 9.26671 18.5751
209 1 -0.685369 3.10316 7.20939 16.722
336 2 0.178122 -1.71532 12.1958 16.519
152 2 0.22147 2.85005 6.77137 15.6593
338 2 0.181816 -0.125348 12.8693 17.4902
210 1 -0.686122 0.899955 8.6098 15.1048
43 4 1.20344 -1.91448 10.0666 10.875
151 2 0.175072 2.80382 8.32302 16.8931
44 4 1.3029 2.40968 9.12646 14.101
265 3 -0.80647 3.28281 7.74073 13.5791
156 2 0.191756 1.01196 8.73081 16.1599
319 2 -0.0128166 -1.56992 11.3726 14.3204
119 2 0.175528 -1.13507 8.52799 13.1124
339 1 -0.672084 -1.27461 12.6441 17.5066
45 4 1.44949 0.826237 11.0205 11.804
267 3 -0.777015 1.73966 9.99778 12.8486
154 2 0.228738 0.620709 7.49727 14.7733
155 2 0.151749 0.186699 9.39226 14.6387
153 2 0.200989 4.18359 7.08624 16.9754
268 3 -0.868418 0.302553 12.3525 12.5887
255 3 -0.818974 0.679002 7.71482 18.633
133 2 0.175453 7.20189 4.3264 2.94548
134 2 0.169553 8.17343 3.09025 1.87938
357 2 0.243742 10.5207 1.99974 1.19587
157 2 0.168534 9.87012 3.19521 5.37983
158 2 0.170822 9.00081 3.47959 3.65702
159 2 0.211486 10.4059 4.64661 4.20936
161 2 0.164879 8.93143 4.38701 8.01411
172 2 0.149763 8.51566 5.38635 5.98332
203 1 -0.664229 7.27692 3.25173 2.61497
211 1 -0.666989 9.96141 3.61262 4.27665
269 3 -0.799555 10.3882 0.97064 2.78579
271 3 -0.784177 9.69988 1.26697 8.38108
359 1 -0.694793 10.5112 2.66963 0.226729
204 1 -0.645015 5.81278 5.88522 4.33852
212 1 -0.67382 8.97718 3.86169 9.02606
137 2 0.165566 6.51354 4.96763 4.55455
81 2 -0.0124662 7.19336 4.04438 8.17156
366 2 0.169168 7.95861 5.55659 1.6436
50 4 1.2855 10.4911 2.59583 9.10074
369 1 -0.642816 8.8783 5.83385 2.16652
368 2 0.176307 9.36192 4.95453 2.84862
170 2 0.16831 8.88482 6.12298 4.20557
136 2 0.231766 4.97974 5.70397 3.58247
56 4 0.922815 10.237 6.22492 0.686509
35 4 1.04391 4.78728 6.40766 5.8522
216 1 -0.655504 8.92198 6.32416 5.41964
160 2 0.156225 8.17028 3.0253 9.1884
135 2 0.138671 7.24914 2.57186 3.54367
355 2 0.137243 16.0614 1.36208 8.94906
167 2 0.197495 13.7286 3.25616 0.510313
214 1 -0.682154 13.9957 4.24693 0.903289
356 2 0.212123 11.1758 3.55113 0.296732
371 3 -0.772844 12.4971 0.625835 0.10428
280 3 -0.803353 12.1245 3.38047 2.8046
89 2 0.00407979 16.1412 0.855084 3.16169
283 3 -0.842403 11.7039 3.36642 8.41272
282 3 -0.763136 11.562 5.56228 1.27086
348 2 0.182226 14.4632 2.23472 1.50987
349 2 0.141403 15.7038 0.664662 1.49336
47 4 1.2739 11.2842 2.3391 3.71365
351 1 -0.667514 14.6717 1.11691 1.8764
350 2 0.197905 14.4531 0.935842 2.98654
284 3 -0.821451 13.1819 3.773 6.35482
288 3 -0.843705 11.1004 5.37009 6.88328
51 4 1.48338 13.6177 2.31771 5.61039
55 4 1.32418 12.777 4.80436 2.22894
57 4 1.34327 12.2641 4.44901 7.3647
93 2 0.0991992 13.3124 5.42986 8.27844
272 3 -0.840459 15.0007 2.48472 4.69346
273 3 -0.802822 12.1937 1.7143 4.91058
274 3 -0.814784 13.8355 1.1223 6.83038
53 4 1.40442 9.60569 1.84037 15.6588
82 2 0.0248197 6.74296 4.40082 15.7626
162 2 0.205596 8.99103 4.5969 9.83671
163 2 0.206272 8.52608 3.4196 10.975
164 2 0.248536 9.18826 2.49536 12.4308
165 2 0.202824 8.37184 4.20972 12.6971
173 2 0.212778 7.47795 5.4721 13.4913
213 1 -0.644379 8.32968 3.2014 12.079
278 3 -0.78982 8.23466 2.53286 16.6752
279 3 -0.80914 10.8327 2.4283 10.695
289 3 -0.788729 10.1409 2.95007 14.4901
292 3 -0.790635 7.48503 6.31379 10.9291
175 2 0.181575 9.38079 5.34218 13.7604
362 1 -0.654469 10.1834 5.68741 17.6334
277 3 -0.796811 10.995 1.42362 16.6645
217 1 -0.67495 8.4676 6.01731 13.6485
256 3 -0.789065 5.1679 5.84781 14.3714
276 3 -0.85238 8.98763 0.581462 14.9177
363 2 0.171675 10.8837 5.02688 17.0893
291 3 -0.796185 10.2819 6.50324 11.4878
364 2 0.136669 9.70644 6.50756 16.9542
358 2 0.191984 9.93013 3.14867 18.5054
285 3 -0.823288 5.48815 5.41976 9.48808
361 2 0.143959 9.34339 5.00282 18.2058
342 2 0.178447 6.54656 5.15187 18.1985
343 1 -0.678502 5.69055 5.88413 17.9924
354 1 -0.659334 14.9612 1.25541 9.38991
118 2 0.0252434 12.871 6.30041 12.7663
60 4 0.927067 11.7512 2.95351 14.0221
91 2 -0.0209221 13.4587 1.36385 10.6566
353 2 0.141456 14.8201 0.462665 10.2071
327 1 -0.672524 16.286 1.95017 17.5908
197 1 -0.657709 13.256 4.88637 11.7506
96 2 -0.0199343 12.2478 4.51323 13.3655
270 3 -0.74572 13.3522 2.70094 16.8761
95 2 0.103718 12.7529 2.82819 15.3765
94 2 0.106808 12.0972 4.36948 10.6805
290 3 -0.79866 12.089 1.76852 13.0165
328 2 0.173478 16.628 0.948281 17.0961
117 2 0.143435 13.4401 3.90906 12.3375
275 3 -0.797879 15.1502 1.62767 14.9744
9 4 1.21171 15.1552 2.70787 16.2781
48 4 1.31818 12.0552 1.81218 17.7623
54 4 0.938311 11.9189 1.47337 11.4675
15 4 0.95655 11.9433 6.30283 11.1607
352 2 0.15845 14.4225 2.25159 9.47463
116 2 0.175004 14.0935 5.18135 11.1039
329 2 0.192998 15.8561 1.76828 18.6395
23 4 1.27731 0.73088 12.4743 2.42153
41 4 1.27865 1.98837 10.2407 0.297771
46 4 1.36418 4.75867 12.5188 1.09669
62 4 1.28974 4.59927 11.0677 3.97654
85 2 0.0919116 5.51615 7.88476 6.36585
179 2 0.14603 2.9802 11.04 5.83256
180 2 0.22533 2.79788 12.3812 4.42758
49 4 1.24695 5.55954 12.8247 7.91784
219 1 -0.669927 3.48995 11.8584 5.21354
258 3 -0.828649 4.32386 7.08757 1.57881
298 3 -0.769977 2.94046 9.43435 8.49876
293 3 -0.741682 3.99898 9.2878 3.64619
294 3 -0.841927 4.59755 11.7344 2.50938
299 3 -0.78906 4.49427 11.7318 8.7667
302 3 -0.849413 5.85437 11.0232 4.96059
260 3 -0.855441 3.05498 9.42207 1.09277
39 4 1.43998 3.34199 8.27246 2.18298
261 3 -0.807473 1.29636 11.3924 1.28183
83 2 0.0729593 2.59934 9.64752 4.20451
138 2 0.159641 6.33111 6.91368 4.19254
296 3 -0.852202 5.74191 11.7575 0.0976474
181 2 0.275625 4.16008 12.5554 5.8864
367 2 0.179098 8.74652 6.86876 2.66414
185 2 0.200806 8.43871 10.9862 8.47427
304 3 -0.823903 6.90091 11.9448 7.35177
169 2 0.163347 9.37553 8.7348 0.675134
215 1 -0.642031 10.2959 8.12752 0.678259
199 1 -0.675825 8.63347 8.73881 3.36051
287 3 -0.772575 11.6739 7.18994 5.01149
303 3 -0.785222 6.55277 9.22915 6.8401
220 1 -0.68708 10.6268 8.10089 7.67497
221 1 -0.692005 8.23255 10.0141 9.15656
59 4 1.08551 10.6496 6.76316 6.20532
19 4 1.10277 9.25176 10.3684 4.11798
301 3 -0.78924 8.40952 10.8611 5.49868
64 4 1.05151 7.20233 8.73572 8.25987
66 4 1.46337 6.8902 10.8832 6.147
98 2 -0.0156726 8.69243 7.82493 7.96034
122 2 0.175797 7.54791 8.94591 3.20289
123 2 0.163518 8.75471 7.83726 4.13616
124 2 0.180962 9.25363 8.5312 2.35598
168 2 0.160643 11.2118 8.58863 1.40275
171 2 0.121499 8.47384 7.36048 5.7588
182 2 0.152081 10.0533 9.08925 7.59676
97 2 -0.00765634 6.68046 9.27921 0.324421
184 2 0.174745 10.308 7.50167 8.59563
322 2 0.160035 9.17159 12.0593 8.87159
183 2 0.194616 11.7594 8.2733 7.6124
186 2 0.140583 9.17847 9.39705 9.23069
67 4 1.47864 4.11411 10.9734 16.2865
188 2 0.149624 4.8991 10.6274 11.3325
190 2 0.238663 3.68555 9.15449 11.3654
222 1 -0.657589 4.4194 9.73897 10.7785
300 3 -0.790066 2.02345 11.3412 10.559
305 3 -0.778582 3.3821 10.074 15.1008
306 3 -0.774398 5.59777 10.1034 16.899
307 3 -0.808429 4.69455 12.2914 15.6076
308 3 -0.807335 2.99625 10.9988 17.5558
189 2 0.269724 5.1687 9.06254 10.1648
65 4 1.19408 3.45142 10.6975 9.53123
340 2 0.180085 6.00963 6.96841 17.857
92 2 0.0903953 2.73491 12.6587 11.2355
52 4 0.973709 6.07796 12.8389 15.0614
286 3 -0.802073 4.95064 6.67522 11.6148
90 2 -0.046511 6.47233 12.1466 13.6012
58 4 1.50761 5.98707 6.59812 10.4251
297 3 -0.820093 6.30082 7.99359 9.3558
321 2 0.0798243 7.34143 12.0268 15.9109
314 4 1.20133 9.63409 11.2805 15.8819
61 4 1.09504 8.79009 6.838 11.9059
174 2 0.1557 8.42445 6.80304 14.4378
295 3 -0.796122 8.29373 11.122 16.7978
187 2 0.158887 7.80911 10.3791 10.1415
365 2 0.125086 11.154 8.27947 18.1697
177 2 0.154264 9.51413 9.17933 12.6312
178 2 0.158054 7.57881 8.70749 12.7439
63 4 1.14666 6.71067 10.7545 17.8842
176 2 0.172393 8.37654 9.18665 11.0093
218 1 -0.650131 8.54481 8.75783 12.1333
318 2 -0.0339556 9.57165 10.0904 14.6749
ITEM: TIMESTEP
100
ITEM: NUMBER OF ATOMS
371
ITEM: BOX BOUNDS xy xz yz pp pp pp
-8.8510000000000009e+00 1.7777500000000000e+01 -8.8510000000000009e+00
0.0000000000000000e+00 1.2994259399999999e+01 4.5889999999999997e-01
0.0000000000000000e+00 1.8640300000000000e+01 2.0498920000000001e-01
ITEM: ATOMS id type q x y z
3 2 -0.0369245 0.786578 1.01603 1.55327
7 4 1.12283 1.38075 2.48676 6.0278
11 4 1.22796 0.316197 4.76185 2.56508
14 4 1.2668 -0.440526 4.06044 8.00764
70 2 0.0681681 1.27325 4.4054 1.21056
223 3 -0.838349 0.474085 1.97923 4.88396
225 3 -0.848887 -0.506437 3.36443 2.92101
226 3 -0.81988 -0.66513 5.91629 1.89397
227 3 -0.839532 0.747867 3.12986 7.24995
229 3 -0.824382 -1.0235 5.09594 6.9644
244 3 -0.840028 1.34453 5.28721 3.74323
324 2 0.187031 1.39065 1.25631 8.29246
5 4 1.30735 -0.896971 2.32377 4.02887
166 2 0.176864 -2.97927 4.97761 0.146796
360 2 0.229974 -2.10505 3.94824 1.49154
247 3 -0.847514 0.141024 4.9325 9.1908
335 2 0.179155 7.57276 1.30482 2.45578
281 3 -0.744938 -3.81294 5.83015 3.40539
16 4 1.31125 -1.83594 6.38816 7.08639
233 3 -0.825791 -2.6208 6.39936 8.52704
201 1 -0.657478 7.80289 0.184692 2.25669
139 2 0.242224 2.64133 4.62338 9.11594
25 4 0.71143 8.58391 0.340216 8.13515
68 2 0.0226193 2.54171 1.18201 6.45905
131 2 0.1543 4.21586 0.692859 2.03197
72 2 -0.0151371 -1.67895 3.0801 8.68549
202 1 -0.672198 4.29441 1.60784 2.71061
77 2 0.0593459 6.89005 1.13632 7.98109
102 2 0.195921 3.04942 3.92999 5.36556
192 1 -0.666824 3.28385 2.72702 5.5956
243 3 -0.761575 5.98139 2.23165 0.180406
245 3 -0.806175 4.66811 4.23468 1.63761
246 3 -0.807997 4.8364 3.1887 8.54905
132 2 0.161216 3.34339 2.21141 2.93737
254 3 -0.803568 2.34632 5.47468 0.281253
30 4 1.04274 5.5105 2.86577 1.7981
32 4 1.26047 4.10682 5.58087 1.0029
2 2 -0.000482555 2.68936 0.489597 3.05973
103 2 0.16816 3.71427 2.24318 4.60777
104 2 0.202196 3.97886 2.50109 6.5213
130 2 0.129638 5.01025 1.48377 3.62273
33 4 1.25437 5.54077 4.64872 8.33738
325 1 -0.686615 1.50947 0.152632 8.42351
135 2 0.138985 6.8369 2.47317 3.68315
141 2 0.216969 3.28929 6.26603 9.31282
10 4 1.01639 1.85856 1.83715 11.405
17 4 1.25096 0.0935904 4.78807 15.5514
34 4 1.36168 0.846575 6.09241 9.99099
37 4 1.17699 1.88816 6.42557 17.7786
69 2 -0.0143503 1.01997 0.941966 10.1898
18 4 1.09333 -0.693668 6.29416 12.8616
110 2 0.144218 -0.501465 2.51766 11.0376
111 2 0.194176 0.65827 3.80743 11.7265
112 2 0.189622 -0.194334 2.43532 12.8779
113 2 0.19806 1.93753 3.40482 15.2417
114 2 0.200878 0.715915 3.04021 13.7841
115 2 0.205158 0.378615 2.2847 15.5532
144 2 0.238851 1.83266 5.64909 12.4385
195 1 -0.684859 0.262158 2.70683 11.8511
196 1 -0.663354 0.840171 3.1779 14.982
230 3 -0.746611 -1.50946 4.112 15.9936
231 3 -0.813835 -0.168918 5.77754 14.228
253 3 -0.819836 0.956846 5.56597 16.6987
326 2 0.165534 -0.280168 2.95711 17.6756
224 3 -0.783607 2.17323 0.950091 12.7734
248 3 -0.833022 0.243844 6.20032 11.5949
73 2 0.0257659 -2.29351 5.66195 12.6312
239 3 -0.842807 3.55539 0.976323 14.9734
205 1 -0.652086 2.66669 5.49072 9.7883
240 3 -0.825387 5.71078 1.60325 16.4997
237 3 -0.802002 4.05321 0.678295 9.58735
238 3 -0.769492 3.03172 2.95542 10.8137
242 3 -0.843187 7.10329 0.983891 13.1437
140 2 0.22176 3.0476 5.23706 10.8059
347 2 0.198286 7.75784 1.18119 10.1656
252 3 -0.821781 6.02357 3.494 13.569
241 3 -0.804144 5.79327 2.28904 11.0521
251 3 -0.825978 4.19143 3.51253 15.5219
24 4 1.26201 7.01804 1.78815 17.4019
26 4 1.38234 4.45494 2.26535 9.94799
28 4 1.24099 4.161 1.98863 16.0373
29 4 1.35726 6.61976 2.46224 12.433
36 4 1.25358 5.48349 4.31876 14.8139
78 2 -0.0329187 3.15901 1.89762 17.3764
142 2 0.206644 2.52075 4.87948 13.9569
143 2 0.225834 3.18863 4.4576 12.245
206 1 -0.697567 2.77984 5.25123 12.9501
346 1 -0.634041 7.21575 0.448842 9.48954
341 2 0.168567 5.05527 5.15367 17.2121
116 2 0.147426 -3.17233 5.19411 11.1781
38 4 1.32651 4.12919 6.53518 13.2081
345 2 0.238079 6.25048 0.163686 9.97025
12 4 1.2817 -3.85354 6.87312 4.57206
21 4 0.976359 -3.76892 10.2515 7.14364
74 2 0.00356571 -4.53171 9.70189 5.67347
105 2 0.144596 -3.86947 9.16972 4.08965
106 2 0.180173 -2.88734 8.07348 2.76091
107 2 0.14649 -2.05484 8.66873 4.5106
330 2 0.180323 -3.24192 8.72621 0.434177
148 2 0.161106 -2.78073 12.2927 6.78878
193 1 -0.672085 -3.08869 8.35818 3.92617
208 1 -0.648208 -2.20472 11.2871 6.51744
228 3 -0.810054 -2.80968 6.60278 5.88596
234 3 -0.838495 -3.40055 8.99544 8.06928
235 3 -0.783159 -4.688 11.3655 7.97538
109 2 0.20017 -3.55157 7.26351 1.59829
332 2 0.165543 -6.33244 10.9302 5.57767
333 2 0.14075 -5.5284 10.6269 3.767
334 1 -0.662322 -6.16487 10.2154 4.66684
6 4 1.11498 -5.58509 12.1741 9.07396
149 2 0.107345 -2.45894 10.7739 5.40828
194 1 -0.670781 -2.82153 7.74129 0.827673
4 3 -0.808256 -6.42387 11.7651 0.784336
312 2 0.150309 -3.64607 10.8522 0.693104
79 2 -0.00427145 0.737318 7.26069 5.39523
1 4 0.902188 -7.20733 12.441 2.02256
80 2 0.00612712 -0.702444 7.76017 7.06459
323 2 0.170592 -7.27731 12.4277 7.45947
249 3 -0.807301 3.27035 6.59197 4.95449
331 2 0.244128 -5.9204 9.11307 4.91399
322 2 0.152781 -8.17596 12.5477 9.06638
259 3 -0.79047 0.587571 11.5178 3.80694
108 2 0.0141782 -1.53355 8.59344 1.91416
87 2 -0.0172997 1.18944 8.4126 6.65986
146 2 0.159778 -1.01311 9.79414 5.89335
31 4 1.26469 1.90882 6.65656 4.21598
262 3 -0.832459 1.04927 7.4305 9.16683
86 2 -0.0336866 0.1392 9.78628 8.59164
84 2 -0.00957887 0.907396 10.2772 6.18649
145 2 0.0176401 -0.0341478 8.73621 3.69908
150 2 0.107054 -1.52859 10.6194 7.32178
128 2 0.168162 -1.54011 12.2616 2.95997
76 2 0.00206555 -0.393225 11.9647 6.8383
147 2 0.143447 -0.919992 8.06195 5.04713
207 1 -0.66876 -0.288899 8.89006 5.57187
13 4 1.04676 -0.924018 7.18638 0.944049
257 3 -0.859449 2.01205 7.73705 2.97669
40 4 0.697873 0.96961 10.0381 4.41372
42 4 0.949458 1.43759 8.7378 8.33436
129 2 0.171971 -1.31592 12.7474 1.13215
337 2 0.166364 -2.27106 12.0913 0.172543
22 4 1.05662 -3.89662 10.9181 13.3078
75 2 0.0897226 -3.0554 12.2005 14.4437
88 2 -0.00733415 -2.06212 11.3595 9.7309
100 2 0.263527 -5.58227 11.3111 11.5402
101 2 0.190746 -5.50441 9.88862 10.198
126 2 0.0608623 -4.02378 9.43005 14.6257
317 2 0.0542599 -3.9565 12.2442 17.4698
191 1 -0.656906 -5.89787 11.0084 10.4925
200 1 -0.645143 -3.01949 10.6084 15.1504
232 3 -0.846359 -4.53864 7.47452 10.1301
236 3 -0.850101 -5.37045 11.5222 13.351
263 3 -0.819591 -2.2529 8.51038 10.4435
264 3 -0.874227 -2.94363 10.5447 12.1359
316 3 -0.799678 -7.7665 12.5342 15.0463
121 2 0.209285 -2.89597 7.59306 12.4677
344 2 0.0495524 -0.385146 11.915 9.53389
310 2 0.154976 -2.56767 10.1919 17.8108
127 2 0.174827 -3.18645 10.6788 16.33
315 3 -0.832941 -6.41799 11.0894 16.9151
71 2 0.122443 -2.24665 7.18553 18.4465
309 4 1.00957 -5.35853 11.3319 18.0709
120 2 0.151298 -2.41609 7.56368 14.3487
313 1 -0.654249 -3.4589 10.6807 18.3074
198 1 -0.669116 -2.10453 7.54295 13.1945
311 2 0.0800881 -4.48982 9.49875 18.4905
20 4 1.42619 -3.20787 7.93027 9.3704
125 2 0.145074 -2.01873 10.1763 14.9708
27 4 1.35044 -0.632205 12.8537 13.6805
266 3 -0.85345 -0.413055 10.1731 11.2794
320 2 0.0756026 1.06179 9.40896 18.5207
209 1 -0.663604 3.26344 7.2648 16.8813
336 2 0.175583 -1.78374 12.2549 16.8861
152 2 0.201297 2.95891 6.94367 15.7927
338 2 0.197315 -0.281032 12.8694 17.8389
210 1 -0.686846 1.03494 8.58404 15.1545
43 4 1.23171 -1.9728 10.126 10.9591
151 2 0.181524 3.07937 8.38556 17.0563
44 4 1.35637 2.4731 9.16332 14.0846
265 3 -0.823529 3.30986 7.84819 13.5865
156 2 0.186156 1.46581 8.63419 16.152
319 2 -0.0040973 -1.46082 11.3865 14.2691
119 2 0.176538 -1.22822 8.43222 12.9948
339 1 -0.667915 -1.399 12.7564 17.8737
45 4 1.50012 0.831883 10.9412 11.8877
267 3 -0.832704 1.65073 10.0532 12.9889
154 2 0.233105 0.688067 7.58377 14.8133
155 2 0.172527 0.269887 9.35231 14.9883
153 2 0.187662 4.33266 6.76677 17.2384
268 3 -0.869374 0.292053 12.2525 12.5619
255 3 -0.804336 0.64523 7.82904 18.5794
99 2 0.133897 -7.12199 11.1524 10.4495
8 4 1.40746 -6.21921 12.9068 14.0472
133 2 0.186312 7.07942 4.35463 3.35199
134 2 0.165683 8.04353 3.01678 2.40131
357 2 0.2852 10.5723 1.8025 1.34105
157 2 0.1857 9.95081 3.11029 5.42371
158 2 0.175779 8.89047 3.41677 3.80652
159 2 0.195063 10.3566 4.5786 4.31518
161 2 0.163722 8.96937 4.05388 7.83448
172 2 0.158154 8.30283 5.42776 5.85091
203 1 -0.674935 7.09692 3.27519 2.93576
211 1 -0.672496 9.95684 3.52593 4.33227
269 3 -0.779082 10.3652 1.02982 2.81184
271 3 -0.78181 9.85798 1.35933 8.19113
359 1 -0.668725 10.6951 2.38825 0.290155
204 1 -0.647148 5.89894 5.84954 4.54574
212 1 -0.662619 8.96252 3.89672 8.97032
137 2 0.170451 6.4515 5.05991 5.0927
81 2 -0.00170519 7.202 4.23635 8.06405
366 2 0.162192 8.03882 5.38577 1.52983
50 4 1.32042 10.5082 2.55472 9.06341
369 1 -0.642448 8.89221 5.75156 2.19654
368 2 0.175029 9.32554 4.97382 2.97632
170 2 0.158907 8.85448 6.12855 4.18148
136 2 0.229183 5.28215 5.456 3.67486
56 4 0.926709 10.2923 6.21904 0.742691
274 3 -0.799992 13.7669 1.11571 6.87853
216 1 -0.672784 8.88472 6.24066 5.41392
250 3 -0.843458 5.09563 5.56696 7.08117
273 3 -0.809192 12.4189 1.96412 4.78672
272 3 -0.842754 15.0594 2.53095 4.82705
167 2 0.186352 13.9059 3.14571 0.349848
214 1 -0.684763 14.2556 4.12058 0.917691
356 2 0.223228 11.2679 3.33152 0.422249
371 3 -0.748643 12.5221 0.423203 0.209899
280 3 -0.816048 12.1477 3.41383 2.6253
89 2 0.0323144 16.2183 0.789258 3.24285
283 3 -0.86599 11.7736 3.28184 8.5029
282 3 -0.756825 11.6412 5.53283 1.0243
348 2 0.181974 14.5773 2.1237 1.5457
349 2 0.151224 15.8901 0.721343 1.60446
47 4 1.28481 11.3589 2.47978 3.6636
351 1 -0.693773 14.8036 1.0372 1.87678
350 2 0.20163 14.5576 0.849708 2.91884
284 3 -0.808563 13.4182 3.74939 6.43359
288 3 -0.839851 11.2069 5.17503 6.76409
51 4 1.5644 13.7249 2.36005 5.70594
55 4 1.23103 12.8983 4.67209 2.0162
57 4 1.28163 12.3666 4.38925 7.50171
93 2 0.075663 13.2393 5.57003 8.38074
329 2 0.186273 15.5153 1.55163 0.0729108
355 2 0.141728 16.1103 1.36369 9.30056
53 4 1.45337 9.55898 1.74832 15.7449
82 2 0.0118244 6.7979 4.26091 15.881
162 2 0.180997 9.32889 4.79466 9.59093
163 2 0.199795 8.52532 3.38143 10.8595
164 2 0.234417 9.00551 2.27748 12.3884
165 2 0.204285 8.45013 4.11917 12.7417
173 2 0.191753 7.65362 5.27713 13.6195
213 1 -0.640193 8.30039 3.15463 12.047
278 3 -0.825401 8.4523 2.43841 16.6875
279 3 -0.813864 10.6803 2.2962 10.6506
289 3 -0.804373 10.364 2.9776 14.5145
292 3 -0.756988 7.60442 6.35273 11.1244
175 2 0.215764 9.38421 5.08469 14.3289
362 1 -0.655417 10.1704 5.86989 17.6348
277 3 -0.797971 10.8471 1.24885 16.7756
217 1 -0.676207 8.64811 5.80751 13.8964
256 3 -0.817732 5.11741 5.81006 14.358
276 3 -0.877447 8.97625 0.596229 14.9148
363 2 0.180998 10.9709 5.33069 17.0751
160 2 0.155931 7.99814 3.40828 9.40728
352 2 0.15638 14.4132 2.3074 9.32399
358 2 0.202025 10.1842 2.76359 18.3405
285 3 -0.824882 5.60843 5.42685 9.67774
361 2 0.151896 9.33525 5.23869 18.0839
342 2 0.201778 6.52019 4.88246 18.4866
343 1 -0.66078 5.69393 5.57312 18.087
354 1 -0.678162 14.9931 1.30072 9.37829
118 2 0.0675226 12.9909 6.02067 12.7777
60 4 0.98054 11.7718 2.93279 13.9856
91 2 -0.00548836 13.372 1.63986 10.4478
353 2 0.110325 14.6889 0.48479 10.2508
327 1 -0.680818 16.3243 2.05261 17.6456
197 1 -0.655076 13.1905 4.90461 11.758
96 2 0.000903464 12.2465 4.48718 13.4513
270 3 -0.780482 13.311 2.76165 16.9166
95 2 0.106746 12.7622 2.79808 15.4292
94 2 0.0659967 12.0027 4.73906 10.4597
290 3 -0.82728 12.3033 1.91085 12.8228
328 2 0.182236 16.7328 1.14102 17.0236
117 2 0.175495 13.3895 3.91229 12.183
275 3 -0.789295 15.2704 1.59594 15.0292
9 4 1.19211 15.1384 2.66571 16.3383
48 4 1.29477 12.1131 1.67881 17.6527
54 4 0.953837 11.9008 1.48605 11.3672
15 4 1.02378 11.9949 6.46128 11.0915
23 4 1.2653 0.700638 12.4921 2.50601
41 4 1.30982 1.89599 10.2727 0.292401
46 4 1.35467 4.86923 12.4803 1.05139
62 4 1.25715 4.62414 11.0887 3.9895
85 2 0.0878771 5.44694 8.12004 6.18522
179 2 0.132976 2.97517 10.9382 5.64404
180 2 0.236328 2.74238 12.3711 4.27457
49 4 1.28815 5.48233 12.8756 8.04576
219 1 -0.681711 3.4125 11.8667 5.10957
258 3 -0.856377 4.30823 7.06742 1.60156
298 3 -0.803373 2.83095 9.47082 8.55502
293 3 -0.738242 4.01421 9.29971 3.62333
294 3 -0.799208 4.42487 11.7156 2.51118
299 3 -0.776881 4.27944 11.9035 8.64923
302 3 -0.827059 6.05787 11.1251 4.82503
260 3 -0.854462 2.95109 9.34053 1.07234
39 4 1.46183 3.37613 8.23915 2.14473
261 3 -0.77883 1.24883 11.4537 1.0887
83 2 0.115167 2.63612 9.61668 4.00872
138 2 0.156811 6.52057 6.81106 4.35946
296 3 -0.83836 5.90413 11.7049 0.0959843
181 2 0.282729 3.79596 12.6349 5.88331
367 2 0.165968 8.72838 6.82283 2.6435
185 2 0.183287 8.51128 10.6529 8.37316
304 3 -0.810959 6.69403 11.9715 7.30806
169 2 0.157374 9.19411 8.53458 0.637604
215 1 -0.671592 10.2596 8.13083 0.636587
199 1 -0.653279 8.65938 8.75194 3.3368
287 3 -0.775974 11.698 7.35183 5.06682
303 3 -0.795404 6.5281 9.33141 6.87374
220 1 -0.687935 10.4086 7.87611 7.61897
221 1 -0.693002 8.20508 9.95133 9.24632
59 4 1.07987 10.6871 6.58311 6.13187
19 4 1.1053 9.21371 10.4614 4.15423
301 3 -0.800415 8.5374 10.722 5.66318
64 4 1.04675 7.14694 8.73442 8.29579
66 4 1.46363 6.94949 10.8881 6.13936
98 2 -0.00860367 8.46489 7.65063 7.77895
122 2 0.176254 7.53544 8.98039 3.17192
123 2 0.155354 8.80615 7.76398 4.0872
124 2 0.174211 9.23926 8.57711 2.36285
168 2 0.186029 10.7805 8.61101 1.38032
171 2 0.134142 8.52126 7.27525 5.78324
182 2 0.161962 9.74964 8.75956 7.46101
97 2 -0.0124686 6.55335 9.1238 0.182409
184 2 0.153354 10.0351 7.19217 8.41612
35 4 1.0127 4.76674 6.54515 5.88896
183 2 0.199649 11.4518 8.20688 7.89536
370 3 -0.792526 9.15086 11.623 3.02393
67 4 1.50313 3.92541 10.9691 16.3655
188 2 0.1471 5.20557 10.8737 11.1532
190 2 0.216456 3.90111 9.60053 11.5939
222 1 -0.682088 4.52595 10.0675 10.7824
300 3 -0.794829 1.92723 11.419 10.5564
305 3 -0.82369 3.33016 10.1064 15.125
306 3 -0.836433 5.27898 10.2532 16.9446
307 3 -0.780885 4.58398 12.5519 15.6538
308 3 -0.824596 2.89195 11.0836 17.5506
189 2 0.257197 5.08702 9.30714 10.1809
65 4 1.18632 3.319 10.723 9.52625
340 2 0.15689 6.09716 6.61391 17.9026
92 2 0.103902 2.62159 12.6173 11.3213
52 4 0.966067 5.94989 12.865 15.0062
286 3 -0.787108 5.01026 6.93947 11.7277
90 2 -0.0414489 5.90089 12.2473 13.4454
58 4 1.48368 6.02399 6.74062 10.4961
364 2 0.143102 9.79555 6.81766 17.1408
321 2 0.102896 7.19159 11.9552 15.8404
314 4 1.14124 9.70946 11.2869 15.9034
61 4 1.0214 8.75696 6.81425 12.2078
174 2 0.138579 8.45938 6.74598 14.5445
295 3 -0.751449 8.0168 11.0203 16.7897
187 2 0.154526 7.6548 10.4855 10.1213
365 2 0.146428 11.2472 8.28859 18.2094
177 2 0.15932 9.62963 9.07291 12.7083
178 2 0.147258 7.82587 8.84088 13.0736
63 4 1.1919 6.5606 10.6372 17.8092
176 2 0.177489 8.32499 9.13222 11.2114
218 1 -0.653948 8.61473 8.7047 12.2989
318 2 -0.0295954 9.95824 9.89986 14.9989
186 2 0.15635 9.08462 9.37 9.61517
291 3 -0.762189 10.5782 6.61587 11.6179
297 3 -0.83629 6.23988 7.96086 9.37629
ITEM: TIMESTEP
200
ITEM: NUMBER OF ATOMS
371
ITEM: BOX BOUNDS xy xz yz pp pp pp
-8.8510000000000009e+00 1.7777500000000000e+01 -8.8510000000000009e+00
0.0000000000000000e+00 1.2968218800000001e+01 4.5889999999999997e-01
0.0000000000000000e+00 1.8640300000000000e+01 2.0457839999999999e-01
ITEM: ATOMS id type q x y z