ITEM: TIMESTEP
0
ITEM: NUMBER OF ATOMS
371
ITEM: BOX BOUNDS xy xz yz pp pp pp
-8.8510000000000009e+00 1.7777500000000000e+01 -8.8510000000000009e+00
0.0000000000000000e+00 1.3020299999999999e+01 4.5889999999999997e-01
0.0000000000000000e+00 1.8640300000000000e+01 2.0540000000000000e-01
ITEM: ATOMS id type q x y z
360 2 0.208453 -2.78021 4.38232 1.51376
2 2 -0.0155531 2.38812 1.42282 2.82411
345 2 0.0412873 7.4058 0.413704 9.24338
324 2 0.154423 0.747889 0.484853 8.05783
68 2 0.0383736 1.88175 1.23456 7.03312
7 4 1.0846 0.816891 2.46046 6.27766
11 4 1.26192 0.29967 4.20947 2.4401
14 4 1.26047 -0.875921 4.68745 7.74544
30 4 1.08415 5.65366 3.03086 1.73298
31 4 1.25807 1.57051 6.30346 4.16118
72 2 0.0172431 -2.3382 3.8831 8.18639
33 4 1.23905 5.62836 4.38203 8.26453
35 4 1.04287 4.28344 5.80147 5.658
5 4 1.27055 -1.1855 1.97303 4.02275
70 2 -0.0253844 1.39829 3.38835 1.34957
237 3 -0.785859 3.64467 0.885526 9.18036
102 2 0.196906 2.60046 3.62079 5.26526
103 2 0.137982 3.03204 1.83374 5.50969
104 2 0.235341 3.25133 3.06992 6.95005
130 2 0.132954 4.62661 2.08248 3.8164
131 2 0.151529 4.15199 1.02001 2.27786
132 2 0.164725 3.50033 2.8565 2.4462
250 3 -0.813669 4.84271 5.16707 7.07321
192 1 -0.694578 2.71524 2.7995 6.04718
202 1 -0.678105 4.26398 2.06975 2.70391
223 3 -0.823821 -0.0347974 1.69893 5.21651
225 3 -0.864829 -0.615773 2.95242 2.91688
226 3 -0.823813 -0.524722 5.34319 1.68816
227 3 -0.806872 0.228754 3.57543 7.29574
229 3 -0.802614 -1.21071 5.79534 6.56967
243 3 -0.774394 6.01071 2.13502 0.287909
244 3 -0.850279 1.15105 4.89354 3.60074
245 3 -0.792867 5.01082 4.4317 1.44686
246 3 -0.849025 4.69129 3.32297 8.95541
249 3 -0.829623 2.78815 6.15582 5.22774
32 4 1.24035 4.40027 5.83518 0.755693
247 3 -0.789675 -0.348703 5.52398 8.98501
1 4 0.940084 1.43308 0.151219 2.16161
3 2 -0.0083827 -0.0543077 0.79773 1.75056
329 2 0.176167 -1.57813 2.50482 0.552701
136 2 0.0150557 5.01736 4.80358 4.48489
139 2 0.244796 2.3368 4.87385 9.11584
335 2 0.167995 8.01973 1.04786 2.9265
10 4 1.08924 1.83701 1.74351 11.6051
17 4 1.23987 0.185198 4.67812 15.4673
73 2 0.0145545 -2.39567 6.08558 12.4229
24 4 1.23902 6.92248 1.55337 17.5354
26 4 1.41901 4.29603 2.27392 10.0283
252 3 -0.821078 6.05652 3.24957 13.437
28 4 1.24491 4.32439 1.99317 16.0804
29 4 1.32999 6.54662 2.17982 12.4005
253 3 -0.79998 1.19171 5.40046 16.5394
36 4 1.25595 5.63032 4.2268 14.6992
37 4 1.19653 2.19026 6.31939 17.6193
251 3 -0.817681 4.38838 3.62193 15.5377
328 2 0.156971 0.131068 1.65276 18.0659
254 3 -0.79781 3.25858 5.66506 18.6093
78 2 -0.0093948 3.50283 2.18077 17.545
110 2 0.152589 -0.72208 2.01519 10.887
111 2 0.163648 0.325065 3.4527 11.8903
112 2 0.161331 -0.423786 1.82639 12.688
113 2 0.19735 0.563449 2.89527 13.6423
114 2 0.197177 0.461449 2.32388 15.4309
115 2 0.212417 1.99726 3.28243 14.7576
69 2 0.00760374 0.65555 0.864963 10.5474
140 2 0.210923 2.58073 5.50455 10.9241
326 2 0.187877 -0.0759787 3.66028 17.9374
142 2 0.212108 2.93953 4.55234 13.8511
143 2 0.268396 2.86148 4.16144 12.0063
144 2 0.216874 1.9579 5.72642 12.7275
195 1 -0.67495 0.00915444 2.25647 11.7596
196 1 -0.668174 0.900475 3.12704 14.7207
205 1 -0.651727 2.3194 5.77952 9.7408
206 1 -0.684321 2.87079 4.98748 12.8111
224 3 -0.830062 2.14239 1.05154 12.9744
230 3 -0.784335 -1.30377 4.02513 16.1144
231 3 -0.788481 -0.117487 5.76819 14.1457
18 4 1.05011 -0.709056 6.51321 12.8322
238 3 -0.801484 2.72135 2.82096 10.9292
239 3 -0.846964 3.33543 0.998464 15.3863
240 3 -0.857821 5.74633 1.37672 16.3443
241 3 -0.827561 5.50422 1.88167 11.0694
242 3 -0.803427 7.40225 0.881131 13.0823
327 1 -0.669722 -0.589437 2.61018 18.1497
38 4 1.31512 4.20982 6.33706 12.8301
71 2 0.0970603 -1.58291 6.56686 17.9596
331 2 0.169198 -5.46065 9.43847 4.3193
313 1 -0.675205 -4.68026 10.6615 0.426957
13 4 1.01504 -0.698553 6.72249 0.82404
16 4 1.13721 -2.18472 7.03175 6.8212
20 4 1.35256 -3.28692 8.46277 9.15531
21 4 1.02719 -3.6566 10.4628 6.89222
325 1 -0.674012 -7.57378 12.3098 7.93511
40 4 0.714243 0.855121 9.70986 4.37281
42 4 0.975424 1.57846 9.07386 8.19865
74 2 0.00758485 -4.38375 9.28396 5.76591
79 2 0.00911058 0.232565 7.09694 4.95866
80 2 -0.00201915 -1.13391 8.34107 6.4682
337 2 0.156039 -2.68153 12.4495 0.551094
84 2 -0.0300996 -0.00798352 9.55775 5.97532
86 2 -0.0337978 0.653179 10.4159 7.73697
87 2 -0.0394387 2.07971 8.44131 6.77198
105 2 0.150009 -5.27327 8.71368 2.82128
106 2 0.191171 -3.58875 7.96085 2.16126
107 2 0.134724 -3.68774 9.2563 3.6579
108 2 0.0291758 -1.41303 8.0613 1.74785
262 3 -0.82413 0.717615 8.02862 9.00444
323 2 0.191935 -7.07641 12.1059 6.91923
370 3 -0.807879 -7.66136 11.8189 3.25279
145 2 0.0721034 0.0809701 8.59963 3.09628
146 2 0.141113 -1.63111 9.59539 4.429
147 2 0.195071 -1.40959 7.75601 4.64817
12 4 1.32085 -4.45248 6.95697 4.36612
149 2 0.0998881 -2.66514 11.2917 5.0473
150 2 0.148146 -1.19692 11.3082 6.44377
193 1 -0.654702 -4.20358 8.39288 3.13483
194 1 -0.649062 -2.60638 7.24054 0.540399
334 1 -0.659768 -6.08505 10.0921 5.07487
207 1 -0.666524 -0.854219 8.71465 4.53901
208 1 -0.643292 -2.33179 11.5803 6.16852
228 3 -0.823877 -3.25582 7.08879 5.64832
233 3 -0.797713 -2.94729 6.88439 8.58828
234 3 -0.874325 -3.03205 9.68002 8.04015
235 3 -0.762395 -4.83895 11.4685 7.50845
312 2 0.151509 -5.22727 9.63559 0.618858
257 3 -0.894537 1.95454 7.38396 3.00001
259 3 -0.812583 0.814644 11.1212 3.64347
333 2 0.165366 -5.76323 11.1738 5.29671
344 2 0.18212 -1.06398 11.0909 8.0871
4 3 -0.860856 -6.86631 12.4801 0.843111
148 2 0.152814 -2.63153 12.6961 6.39881
129 2 0.1638 -1.31119 12.6181 1.38892
346 1 -0.656849 -0.419761 11.9328 8.47017
6 4 1.09339 -5.71148 12.23 8.7376
330 2 0.156046 -2.95273 8.2118 0.0336485
310 2 0.147714 -4.4679 11.1493 1.46898
128 2 0.171606 -1.27702 12.0207 3.28528
201 1 -0.650331 -0.815543 12.7679 2.53193
109 2 0.18749 -3.38382 6.59113 1.01645
347 2 0.211443 0.39038 11.6784 9.2888
83 2 0.0749184 2.47103 9.02086 4.55349
88 2 0.035144 -1.99015 11.5718 9.57385
22 4 1.08468 -3.72724 11.0041 13.4229
121 2 0.207297 -2.80238 7.88919 12.3736
43 4 1.28023 -1.90261 10.4227 10.9312
44 4 1.37991 2.66115 9.06122 13.7656
45 4 1.49578 1.07528 10.9057 11.7086
75 2 0.148373 -2.59134 12.0841 15.0198
311 2 0.164228 -3.30896 10.7989 18.4668
99 2 0.264122 -5.51991 9.98505 9.97196
100 2 0.127418 -6.99975 11.3431 10.3293
101 2 0.21917 -5.22516 11.5615 11.1404
119 2 0.163727 -1.05431 8.66809 13.0266
120 2 0.162603 -2.46978 7.93681 14.1937
125 2 0.148907 -1.7534 10.212 15.0481
126 2 0.0223259 -3.81845 9.42891 14.2278
248 3 -0.782601 0.174637 6.56507 11.5171
151 2 0.198094 3.18205 8.31507 16.669
127 2 0.155374 -3.45714 10.4289 15.8959
154 2 0.224588 0.812199 7.51544 14.5896
155 2 0.165439 0.280737 9.27312 14.5583
156 2 0.176024 1.53201 8.68913 15.8508
191 1 -0.66031 -5.7904 11.1496 10.2329
198 1 -0.682199 -2.05635 7.82061 13.1874
200 1 -0.681195 -2.72508 10.7368 15.0783
209 1 -0.673722 3.38241 7.24362 16.5221
210 1 -0.66362 1.1208 8.57852 14.8151
232 3 -0.779594 -5.004 8.35628 9.73211
236 3 -0.828116 -5.15354 11.6783 13.6761
265 3 -0.837835 3.33878 7.68089 13.2975
263 3 -0.800133 -2.3626 8.96573 10.4402
264 3 -0.839304 -2.90329 10.9487 12.0991
266 3 -0.882918 -0.345606 10.4954 11.3526
339 1 -0.668671 -1.65078 12.6079 18.1662
315 3 -0.829426 -6.4485 11.0774 17.2001
316 3 -0.835056 -7.48012 12.1085 15.0033
319 2 -0.0150545 -0.997532 11.3966 14.3009
8 4 1.47542 -6.25513 12.9017 14.252
116 2 0.169367 -4.12595 7.5974 12.5901
336 2 0.163513 -2.13934 12.0041 17.3029
27 4 1.27513 -0.249405 12.8354 13.7842
338 2 0.17756 -0.603411 12.2886 18.3275
317 2 0.0302598 -4.17375 12.4235 17.9219
34 4 1.30748 0.623498 6.60634 9.8076
152 2 0.20535 2.87298 6.93283 15.508
320 2 0.0875074 1.12677 9.234 18.4683
309 4 1.07677 -5.75148 11.8015 18.3963
267 3 -0.861807 1.82987 9.93263 12.7697
255 3 -0.78355 0.934327 7.57289 18.5
363 2 0.194319 -3.73463 6.9154 17.9858
141 2 0.210734 2.93512 6.63424 9.35007
25 4 0.728647 8.76121 1.01354 8.09383
47 4 1.35368 11.0476 1.92991 4.19867
348 2 0.170634 15.8528 0.979399 0.939526
51 4 1.51659 13.5737 2.24152 5.91489
55 4 1.26333 12.3259 4.4316 2.41421
357 2 0.217413 11.2567 2.37404 1.31175
57 4 1.29739 12.3365 4.4703 7.57683
354 1 -0.663538 15.7484 0.359718 9.26152
350 2 0.139939 14.6693 0.460171 2.46732
358 2 0.189232 9.81274 1.31199 0.396336
93 2 0.108334 13.3481 5.81715 8.03214
284 3 -0.817332 13.3296 3.76913 6.53418
133 2 0.1741 7.48711 4.53381 2.82097
134 2 0.177541 8.12936 2.84316 2.19167
352 2 0.149693 15.6988 1.53842 9.10124
351 1 -0.649923 15.4268 0.108689 1.53944
89 2 0.0211816 16.1392 0.414931 3.3894
157 2 0.158135 9.00497 0.949368 4.98788
158 2 0.18319 8.52309 2.62411 4.14739
159 2 0.160844 9.5515 2.61932 5.92366
371 3 -0.825135 12.867 0.139932 0.134149
166 2 0.23999 13.3872 3.02475 0.5511
167 2 0.192777 14.0187 2.66817 2.401
137 2 0.180224 6.82891 6.43604 4.98666
172 2 0.156134 8.56437 4.92045 5.56429
203 1 -0.653213 7.3114 3.40528 2.70397
288 3 -0.862814 11.1408 5.31029 6.88452
211 1 -0.656229 9.20378 2.09078 4.93465
81 2 -0.0515257 6.92356 3.45945 7.63803
214 1 -0.657019 13.7229 3.4898 1.6342
359 1 -0.646698 10.6324 2.19558 0.358972
269 3 -0.819631 10.701 0.774416 3.16455
271 3 -0.797508 9.77866 1.9896 8.80954
272 3 -0.841088 14.7387 2.19555 4.70209
273 3 -0.825115 12.0387 1.64922 5.36654
274 3 -0.819223 14.058 1.32839 7.14505
280 3 -0.780356 11.4622 3.31595 3.38499
281 3 -0.758017 13.0515 5.6802 3.35649
282 3 -0.773846 11.4995 5.04641 1.02705
283 3 -0.830253 12.0346 3.64834 8.87519
216 1 -0.686172 8.7444 6.05658 5.43527
77 2 -0.0226087 8.15952 1.68012 6.5661
170 2 0.177274 8.65581 6.35067 4.37497
135 2 0.116421 6.81836 2.84049 3.63998
161 2 0.166819 10.0525 5.44003 9.03205
9 4 1.2318 15.4788 2.65516 16.7758
48 4 1.27664 12.2786 1.35255 18.0377
368 2 0.146823 8.9771 5.97603 17.7832
53 4 1.44471 9.67283 1.73916 16.0761
54 4 0.995712 11.9557 1.81234 12.4372
60 4 0.987903 11.665 3.47811 14.9569
82 2 -0.017069 6.96784 4.44899 15.7577
212 1 -0.662385 9.70123 4.60609 9.74182
91 2 -0.0501762 13.5026 1.26571 12.2358
94 2 0.00232471 11.1515 5.76217 10.3406
95 2 0.117224 12.8995 3.22912 16.2808
96 2 -0.0428702 11.9818 5.13002 14.643
361 2 0.140173 12.7587 5.75775 16.654
117 2 0.12121 11.6643 6.34418 12.7759
369 1 -0.669697 9.63609 5.06343 17.8729
50 4 1.30737 10.7567 2.99353 9.67579
162 2 0.175932 9.65613 4.9116 10.8651
163 2 0.216193 8.22857 4.07677 12.2396
164 2 0.178852 7.66296 3.34666 10.5635
165 2 0.208924 8.78435 2.37882 11.8323
175 2 0.201357 7.98963 6.27336 13.9512
92 2 0.111269 11.2244 0.298922 12.7007
213 1 -0.659008 8.00133 3.19828 11.6749
367 2 0.245512 9.8407 4.57036 16.8221
270 3 -0.73242 13.6171 2.73648 17.4799
275 3 -0.828992 15.5585 1.32347 15.9348
160 2 0.188589 8.71222 4.25393 9.39237
277 3 -0.783756 11.2083 1.20566 16.8402
278 3 -0.798713 8.56587 2.01118 17.1833
279 3 -0.794071 11.3302 2.53357 11.1739
256 3 -0.775373 5.26651 5.63126 14.0974
289 3 -0.806926 10.2113 3.43963 15.5334
290 3 -0.850165 12.0161 2.64785 13.7516
343 1 -0.654813 6.19539 6.52766 18.1717
341 2 0.152471 6.28391 5.47979 17.6102
276 3 -0.884633 9.21019 0.758446 14.9798
56 4 0.92745 11.2564 6.07919 18.5951
286 3 -0.801491 4.94131 6.32553 11.3629
58 4 1.51307 6.24199 6.48285 10.3819
356 2 0.213769 10.5988 3.38606 18.48
174 2 0.148837 9.80885 6.55419 13.9914
285 3 -0.852911 6.42126 5.33169 9.32148
366 2 0.197962 9.21024 4.32962 18.589
19 4 1.14196 9.51512 10.5346 4.21172
23 4 1.24414 0.941383 12.2619 2.53404
299 3 -0.793234 4.23041 11.8597 8.7798
46 4 1.44528 5.01066 11.8694 0.85978
215 1 -0.652634 9.88448 7.41083 0.632355
59 4 1.10923 10.4683 6.49404 6.15659
62 4 1.28826 4.64375 10.4563 3.815
64 4 1.08503 7.23216 8.56005 8.29954
66 4 1.50096 6.93517 10.5491 6.02604
138 2 0.222333 5.4631 6.62353 3.62068
85 2 0.214306 5.35903 7.76777 5.2224
98 2 -0.0132527 8.66638 7.49463 8.13739
122 2 0.176211 9.60464 8.20166 3.34317
123 2 0.18486 8.99487 9.41183 2.03372
124 2 0.203095 7.74862 8.87682 3.33693
261 3 -0.809619 1.38727 11.2809 1.04711
342 2 0.161498 6.69394 6.51866 0.140597
49 4 1.27937 5.54082 12.7722 8.00213
185 2 0.187658 7.73143 10.8679 8.89122
179 2 0.137406 3.07963 10.6224 5.70758
180 2 0.238998 2.95617 12.0986 4.42968
181 2 0.22346 4.34036 12.0646 5.63467
182 2 0.154262 9.64782 8.74181 6.98299
365 2 0.150071 9.0134 6.73763 1.15104
184 2 0.194024 10.2045 8.13506 8.5832
41 4 1.36686 1.92315 10.1016 0.172996
199 1 -0.653809 8.89313 9.07095 3.06228
183 2 0.192648 11.4794 8.44327 7.47054
219 1 -0.682639 3.60591 11.459 5.04655
220 1 -0.70263 10.4309 8.14789 7.521
322 2 0.177536 9.19408 11.4343 8.32164
204 1 -0.663234 5.69606 6.6831 4.71249
298 3 -0.810866 2.89678 9.49882 8.78469
287 3 -0.812016 11.4088 7.10544 4.91822
293 3 -0.812389 3.91053 9.02957 3.77633
294 3 -0.824415 4.6601 11.265 2.23253
171 2 0.126534 8.08492 6.68662 6.17644
260 3 -0.853341 2.6907 9.06146 1.04401
349 2 0.181746 7.39019 12.1691 1.84075
301 3 -0.784558 8.52637 10.6187 5.46941
302 3 -0.799914 6.1354 10.4554 4.55632
303 3 -0.823076 6.76467 9.23522 6.93441
304 3 -0.800105 6.42692 11.7663 6.97468
258 3 -0.837397 4.36121 7.22553 1.68219
169 2 0.164948 10.7309 7.84133 1.29961
186 2 0.161355 9.20892 9.69071 8.99404
39 4 1.49329 3.18972 8.09429 2.25875
221 1 -0.675445 8.12495 9.88985 9.2824
76 2 0.0349099 0.837943 12.5021 7.22052
355 2 0.170877 7.95 12.7353 8.9041
332 2 0.189054 10.9177 9.44205 6.02975
15 4 0.967612 11.2799 7.44691 10.7976
153 2 0.210443 4.47622 7.00798 16.546
61 4 1.00941 8.39785 7.85619 12.1909
63 4 1.16146 6.73057 9.92386 17.5561
292 3 -0.761106 7.42297 6.61911 11.4395
67 4 1.42275 4.3266 10.6697 16.1761
97 2 0.00315693 6.823 8.4207 18.3657
52 4 0.992015 6.30793 12.736 15.3442
353 2 0.136509 6.50666 12.8801 10.2891
321 2 0.0988415 7.49307 11.5473 15.8213
176 2 0.152551 8.40994 10.4024 12.1229
177 2 0.157264 7.46056 9.75821 13.5603
178 2 0.171078 6.53986 9.8082 11.848
340 2 0.160255 5.81354 7.40285 17.467
187 2 0.187962 7.96403 9.8529 10.456
188 2 0.280209 5.38629 9.28074 10.2258
189 2 0.193624 4.18619 9.7243 11.7401
190 2 0.144771 5.45848 10.9413 11.0792
268 3 -0.778203 0.831812 12.5819 12.5679
218 1 -0.679504 7.59606 9.72416 12.4617
222 1 -0.67343 4.81495 10.0664 10.8505
314 4 1.17575 9.85209 10.8862 15.9986
118 2 0.164263 11.4675 8.24013 13.0315
197 1 -0.663667 12.0724 7.44888 12.5078
90 2 -0.0544151 6.4888 12.6759 13.7273
291 3 -0.752026 9.79435 7.97191 11.0191
296 3 -0.841864 6.25454 11.0927 18.5857
295 3 -0.779017 8.26673 10.4434 16.7253
173 2 0.126965 8.63862 8.01608 14.5121
300 3 -0.845183 2.1046 11.3431 10.5652
305 3 -0.794605 3.51687 9.95274 14.8158
306 3 -0.833778 5.61693 9.68797 16.4073
307 3 -0.802353 4.87717 12.1881 15.7423
308 3 -0.827155 3.03329 10.6224 17.5155
318 2 -0.0373889 10.2976 9.61808 15.0201
65 4 1.30922 3.41395 10.8212 9.66139
364 2 0.141226 12.2047 7.57516 16.8315
217 1 -0.665425 8.77859 7.05176 13.8279
168 2 0.157668 9.94256 8.33076 18.5291
297 3 -0.80147 6.19432 7.95993 9.38482
362 1 -0.652888 12.6616 6.68458 17.3242
ITEM: TIMESTEP
100
ITEM: NUMBER OF ATOMS
371
ITEM: BOX BOUNDS xy xz yz pp pp pp
-8.8572134333333334e+00 1.7777500000000000e+01 -8.8572134333333334e+00
0.0000000000000000e+00 1.3020299999999999e+01 4.5889999999999997e-01
0.0000000000000000e+00 1.8640300000000000e+01 2.0540000000000000e-01
ITEM: ATOMS id type q x y z
360 2 0.215977 -2.69642 4.25629 1.77704
2 2 -0.0123851 2.19556 1.63671 2.74735
345 2 0.047456 7.23463 0.383163 8.69679
324 2 0.134787 1.12346 0.768293 8.7164
68 2 0.0332523 2.0528 1.46724 7.18649
7 4 1.05558 0.943229 2.48908 6.28248
11 4 1.25355 0.224432 4.22671 2.41031
14 4 1.31664 -0.832582 4.61937 7.73369
30 4 1.12133 5.53831 3.05409 1.79119
31 4 1.24804 1.70411 6.21551 4.08514
72 2 -0.00222341 -2.23089 3.96553 8.47981
33 4 1.23577 5.58606 4.3442 8.30766
35 4 1.04931 4.28709 5.7739 5.69998
5 4 1.31563 -1.11546 2.06825 4.09801
70 2 -0.0129398 1.23893 3.54032 1.29705
135 2 0.114353 6.70764 2.54804 3.67229
102 2 0.204674 2.53389 3.69889 5.04352
103 2 0.148053 3.31556 2.0003 5.64599
104 2 0.22063 3.42531 3.50805 6.78155
130 2 0.145703 4.83728 1.10406 3.32172
131 2 0.164893 3.64301 1.3843 1.89105
132 2 0.16375 3.5957 2.49303 3.38388
250 3 -0.821536 4.86616 5.16177 7.0592
192 1 -0.694022 2.80983 2.95921 5.91858
202 1 -0.686442 4.18554 1.85389 2.75708
223 3 -0.801188 0.170879 1.65018 5.04855
225 3 -0.875629 -0.740439 3.12885 3.05119
226 3 -0.830235 -0.487842 5.36192 1.48986
227 3 -0.830416 -0.00324832 3.39948 7.20877
229 3 -0.817482 -1.3114 5.77979 6.61386
243 3 -0.751822 6.126 2.16587 0.553187
244 3 -0.845655 1.28461 4.81146 3.48611
245 3 -0.807402 5.02477 4.45919 1.46111
246 3 -0.837753 4.53041 3.4152 8.94945
249 3 -0.821707 2.73778 6.05108 5.42885
32 4 1.25257 4.42282 5.81802 0.73215
247 3 -0.843426 -0.0864892 5.39309 8.83738
1 4 0.941718 1.46136 0.191511 2.17137
3 2 -0.0169248 -0.0634325 0.806468 1.5913
201 1 -0.64121 8.05382 0.081579 2.16902
136 2 0.0109122 4.95264 5.09811 4.28529
139 2 0.23921 2.67467 5.24178 8.99934
10 4 1.06044 1.80044 1.7343 11.6983
17 4 1.19682 0.257751 4.57395 15.3846
73 2 0.03338 -2.52875 6.07904 12.6575
24 4 1.25525 6.97374 1.47694 17.6564
26 4 1.45181 4.20788 2.22234 9.99912
252 3 -0.823121 6.00545 3.19306 13.6232
28 4 1.2659 4.27419 2.08301 16.2134
29 4 1.3407 6.60042 2.14435 12.5543
253 3 -0.793195 1.44958 5.19299 16.602
36 4 1.27567 5.54805 4.24076 14.697
37 4 1.21363 2.22589 6.19178 17.6209
251 3 -0.823747 4.37041 3.57992 15.5085
328 2 0.144609 0.108845 1.75681 18.0015
71 2 0.0646032 -1.64543 6.32962 17.945
78 2 -0.02316 3.37976 2.38499 17.656
110 2 0.159053 -0.582869 2.28375 10.7565
111 2 0.146307 0.332826 3.38944 12.0984
112 2 0.155519 -0.64353 1.65753 12.617
113 2 0.191398 0.499683 2.76104 13.6299
114 2 0.179504 0.705687 2.19355 15.5033
115 2 0.214407 2.0658 3.17329 14.6983
69 2 0.00606919 0.728504 0.876204 10.6145
140 2 0.214821 2.59305 5.38208 10.9555
326 2 0.179412 -0.0300803 3.63962 18.075
142 2 0.214614 2.90195 4.56048 13.9472
143 2 0.251284 2.81238 4.15594 12.1261
144 2 0.199038 1.94142 5.71624 12.7442
195 1 -0.673282 -0.0720327 2.21121 11.7679
196 1 -0.659097 0.951265 3.01857 14.6888
205 1 -0.646766 2.39878 5.89309 9.86331
206 1 -0.69184 2.83416 4.97436 12.9127
224 3 -0.813901 2.1561 0.770159 12.9448
230 3 -0.758267 -1.35391 4.08433 15.9536
231 3 -0.773805 -0.0499188 5.5538 14.0558
18 4 1.01422 -0.713451 6.48482 12.7662
238 3 -0.799236 2.72792 2.75846 10.9408
239 3 -0.838766 3.45837 1.12952 15.2614
240 3 -0.857218 5.68877 1.57033 16.7027
241 3 -0.763965 5.4694 2.05445 11.15
242 3 -0.866564 7.20014 0.769377 13.0804
327 1 -0.680564 -0.597253 2.64685 18.1585
38 4 1.34747 4.19621 6.30318 12.8709
34 4 1.37375 0.585394 6.46926 9.75854
237 3 -0.860063 3.82049 0.851345 9.36861
254 3 -0.823205 3.34759 5.63793 18.6125
331 2 0.166593 -5.47359 9.42542 4.32314
313 1 -0.665784 -4.56623 10.6677 0.433879
13 4 1.02839 -0.781665 6.66173 0.544745
16 4 1.21825 -2.24593 6.99304 6.74218
20 4 1.41303 -3.26254 8.35236 9.19224
21 4 1.01613 -3.67337 10.5427 7.04587
325 1 -0.669987 -7.54841 12.6583 8.07797
40 4 0.712238 0.834099 9.65051 4.41203
42 4 0.985085 1.46135 8.97174 8.157
74 2 0.00148492 -4.26716 9.64 5.62298
79 2 0.00187627 0.35242 7.06234 4.68983
80 2 0.0138373 -1.24774 8.38433 6.3177
337 2 0.157675 -2.82486 11.9424 0.21504
84 2 -0.0294316 -0.044276 9.48603 5.98094
86 2 -0.0257805 0.52918 10.3758 7.74004
87 2 -0.0338078 1.7533 8.24957 6.67947
105 2 0.160489 -5.07391 8.90642 2.90929
106 2 0.178924 -3.51626 8.02262 2.11458
107 2 0.13649 -3.40114 9.02651 3.84969
108 2 0.0604883 -1.69486 7.99418 1.63496
262 3 -0.801433 0.65893 7.93837 8.98906
323 2 0.20252 -7.88383 12.8686 7.0187
370 3 -0.797841 -7.61656 11.941 3.30465
145 2 0.0669296 0.18864 8.36659 3.06354
146 2 0.154271 -1.4581 9.51272 4.29976
147 2 0.17667 -1.38208 7.68387 4.5422
12 4 1.27795 -4.37827 6.94704 4.36935
149 2 0.126946 -2.43377 11.3892 5.05762
150 2 0.170101 -1.36482 11.4783 6.56402
193 1 -0.65894 -4.12388 8.38119 3.1958
194 1 -0.654209 -2.6467 7.43234 0.420174
334 1 -0.640647 -6.21188 9.97848 5.11546
207 1 -0.683556 -0.804704 8.65282 4.47211
208 1 -0.68757 -2.40604 11.6196 6.18016
228 3 -0.856658 -3.36608 7.02892 5.6557
233 3 -0.81594 -2.88712 6.9355 8.51332
234 3 -0.868364 -2.98349 9.42424 7.96833
235 3 -0.784589 -4.7821 11.4962 7.79916
312 2 0.148967 -5.25372 9.73671 0.626439
257 3 -0.894197 2.10315 7.16192 2.92669
259 3 -0.793526 0.748706 11.1266 3.77129
333 2 0.162577 -5.82572 11.0357 5.48912
344 2 0.161349 -1.0584 10.9595 8.30444
4 3 -0.848222 -6.67157 12.4906 0.891891
148 2 0.153585 -2.78836 12.6473 6.44301
129 2 0.178742 -1.20689 12.6164 1.03202
346 1 -0.644052 -0.476971 11.9377 8.45445
6 4 1.13068 -5.65398 12.2865 8.91886
109 2 0.173079 -3.53308 6.87098 0.833206
310 2 0.165281 -4.04144 11.0528 1.35134
128 2 0.143011 -1.35553 12.2618 3.07673
83 2 0.0589202 2.38884 8.95929 4.70308
88 2 0.00928417 -1.92903 11.4659 9.72277
22 4 1.09811 -3.72599 11.0738 13.4424
121 2 0.195671 -2.86695 8.19217 12.7173
43 4 1.24349 -1.8888 10.3326 10.9524
44 4 1.30988 2.48202 9.1133 13.9359
45 4 1.43559 1.13063 11.1793 11.813
75 2 0.113519 -2.61388 12.09 14.9882
311 2 0.138695 -3.34521 10.548 18.2443
99 2 0.264319 -5.43152 9.93924 10.1357
100 2 0.161235 -6.93819 11.0243 10.4485
101 2 0.229833 -5.22222 11.6231 11.0699
119 2 0.142649 -0.750196 8.48626 13.1213
120 2 0.164906 -2.36811 7.66642 14.4249
125 2 0.143638 -1.7126 10.116 14.8776
126 2 0.0288516 -3.96542 9.50734 14.2422
141 2 0.231816 2.98698 6.87251 9.83754
151 2 0.197175 2.94153 8.33857 16.8741
127 2 0.149525 -3.17076 10.1644 16.0364
154 2 0.194315 0.784176 7.53364 14.6233
155 2 0.14481 0.102698 9.32026 14.5157
156 2 0.179363 1.08431 8.78494 15.9815
191 1 -0.673525 -5.81342 11.0246 10.3262
198 1 -0.644757 -2.02961 7.72958 13.3406
200 1 -0.669626 -2.73439 10.6135 15.0998
209 1 -0.651707 3.30449 7.27643 16.5615
210 1 -0.706844 0.95841 8.62848 14.8906
232 3 -0.801449 -4.9112 8.17179 9.8142
236 3 -0.869855 -5.04996 11.8388 13.6142
265 3 -0.771306 3.40391 7.66357 13.253
263 3 -0.797282 -2.27758 8.8867 10.4399
264 3 -0.824273 -2.96807 10.834 12.0268
266 3 -0.815961 -0.334583 10.3701 11.597
339 1 -0.686654 -1.67079 12.4536 17.9418
315 3 -0.834834 -6.422 11.1247 17.2407
316 3 -0.832735 -7.49852 12.0491 14.9748
319 2 -0.00909734 -1.14634 11.5684 14.3279
8 4 1.50079 -6.12468 12.8328 14.2054
116 2 0.168891 -4.18528 8.083 12.3224
336 2 0.167795 -2.09539 11.8549 17.0615
27 4 1.24043 -0.319345 12.9661 13.7632
338 2 0.176193 -0.525392 12.3641 18.0748
317 2 0.0334976 -4.01024 12.4274 17.9345
330 2 0.161164 -2.44245 8.55599 18.5101
152 2 0.222454 3.16009 7.03972 15.417
320 2 0.0704768 1.12018 9.14291 18.3057
309 4 1.04904 -5.61707 11.8369 18.3809
248 3 -0.79391 -0.0611427 6.54061 11.2947
255 3 -0.807596 0.867839 7.48549 18.3822
363 2 0.171454 -3.8704 7.10786 17.9149
347 2 0.210865 0.154878 11.8523 9.39372
25 4 0.719235 8.92444 0.994248 7.90986
47 4 1.2985 11.1267 2.00733 4.09927
348 2 0.165941 15.9019 0.214105 0.363346
51 4 1.51886 13.5928 2.19479 5.80594
55 4 1.28242 12.3914 4.53504 2.4125
357 2 0.21202 11.3884 2.28891 1.45821
57 4 1.27387 12.4276 4.47182 7.57459
354 1 -0.674355 15.7139 0.362416 9.17416
350 2 0.144038 15.1044 1.2013 1.79725
358 2 0.220109 9.91618 1.27541 0.710126
93 2 0.0760389 13.4497 5.66849 8.19443
284 3 -0.794577 13.2862 3.7181 6.45047
133 2 0.174065 7.2238 4.35035 3.18701
134 2 0.175475 8.10193 2.95161 2.27233
356 2 0.188884 10.1704 3.20968 0.0192803
351 1 -0.692829 15.3825 0.165673 1.37354
89 2 0.00802603 15.9728 0.578418 3.20711
157 2 0.122844 9.26883 1.13439 5.16281
158 2 0.180701 8.59847 2.76066 4.20696
159 2 0.189915 9.6383 2.95543 5.8583
371 3 -0.760968 12.661 0.220151 0.190256
166 2 0.217092 13.4949 3.16758 0.551689
167 2 0.182 13.9062 2.56092 2.39454
335 2 0.18446 8.02247 1.2368 2.35165
172 2 0.158775 8.32261 5.16616 6.01558
203 1 -0.64454 7.17355 3.31499 2.84285
288 3 -0.819333 11.0295 5.08725 7.12678
211 1 -0.653431 9.44243 2.36652 4.97228
81 2 -0.0558037 6.65821 3.36137 7.51442
214 1 -0.676519 13.7446 3.45032 1.6674
359 1 -0.643364 10.6268 2.1332 0.505577
269 3 -0.781719 10.6227 0.578425 2.94855
271 3 -0.748876 9.77971 1.85232 8.89762
272 3 -0.849013 14.8795 2.30348 4.8659
273 3 -0.849558 12.2127 1.54822 5.0816
274 3 -0.784979 14.0799 1.17393 7.12109
280 3 -0.78379 11.515 3.35243 3.32929
281 3 -0.764899 13.1673 5.62963 3.39372
282 3 -0.761091 11.4355 5.21919 1.23283
283 3 -0.823095 12.1662 3.48124 8.78725
216 1 -0.675953 8.68297 6.12438 5.58188
77 2 -0.0296883 8.36075 1.96191 6.58341
170 2 0.182367 8.63766 6.21958 4.46602
352 2 0.172367 15.5014 1.49413 9.0555
161 2 0.178542 9.97905 5.36719 9.09241
366 2 0.19365 8.9238 4.02312 0.137532
355 2 0.175619 16.7809 0.127324 8.92445
329 2 0.168671 15.533 2.33532 0.502085
9 4 1.21054 15.4819 2.75635 16.7442
48 4 1.24396 12.3145 1.53785 18.0783
368 2 0.13727 8.9758 5.97573 18.0034
53 4 1.44095 9.76161 1.7299 16.1092
54 4 1.01778 11.9063 2.06132 12.3228
60 4 0.968445 11.6095 3.65694 14.9194
82 2 -0.000515968 6.81003 4.4308 15.7696
212 1 -0.662184 9.6458 4.56138 9.77304
91 2 -0.0418179 13.5284 1.96619 11.8956
94 2 -0.021204 11.1142 5.76012 10.3013
95 2 0.120448 12.8873 3.30606 16.1869
96 2 -0.0411875 11.932 5.32179 14.6988
361 2 0.125833 12.5223 5.65639 16.7668
117 2 0.122174 12.2464 6.34138 12.6683
369 1 -0.650619 9.70833 5.02463 18.0175
50 4 1.28945 10.8457 3.05018 9.67709
162 2 0.181526 9.4907 4.93833 10.8482
163 2 0.207925 8.19961 4.15552 12.431
164 2 0.195633 7.80224 3.42485 10.8141
165 2 0.218382 8.88301 2.51168 11.9902
285 3 -0.829613 6.37586 5.20638 9.42878
92 2 0.0997651 11.424 0.462611 12.6401
213 1 -0.674171 8.04293 3.22762 11.9173
367 2 0.234499 9.95582 4.57201 16.9367
270 3 -0.751361 13.6249 2.92669 17.3767
275 3 -0.826135 15.5184 1.40798 15.9055
58 4 1.51848 6.14099 6.50129 10.3602
277 3 -0.780979 11.1432 1.15248 16.9317
278 3 -0.788751 8.44121 2.00332 17.0213
279 3 -0.835872 11.128 2.67019 11.1878
256 3 -0.800301 5.21329 5.77238 14.0417
289 3 -0.79729 10.2264 3.46806 15.573
290 3 -0.845991 11.8927 2.87645 13.6501
286 3 -0.800861 4.81094 6.3337 11.3068
341 2 0.14883 6.20684 5.71344 17.4782
276 3 -0.864105 9.28053 0.868096 14.8943
56 4 0.887806 11.2025 6.18101 18.5783
160 2 0.176234 8.70271 3.96438 9.36897
19 4 1.1308 9.40072 10.6582 4.27528
23 4 1.22393 0.847071 12.194 2.45911
299 3 -0.761887 4.31919 11.8905 8.78862
46 4 1.3533 5.08476 11.8324 0.945062
215 1 -0.638905 10.0803 7.67147 0.648298
59 4 1.06034 10.4304 6.49363 6.26103
62 4 1.3449 4.56975 10.5583 3.74887
64 4 1.06873 7.22193 8.52959 8.31029
66 4 1.49704 6.81914 10.4076 5.97422
138 2 0.217257 5.45331 6.89503 3.73095
85 2 0.230725 5.17655 7.85298 5.43288
98 2 -0.00706104 8.52885 7.37286 8.0802
122 2 0.184187 9.82632 8.49209 3.476
123 2 0.17821 9.01085 9.50457 2.05628
124 2 0.193736 7.92663 8.67962 3.38531
261 3 -0.777857 1.22443 11.201 0.840782
137 2 0.197457 6.73657 6.64491 5.17513
49 4 1.32173 5.63107 12.6083 7.86312
185 2 0.201246 7.64842 10.9054 8.65241
179 2 0.153368 2.95316 11.1735 5.65002
180 2 0.262222 2.9062 12.4167 4.16884
181 2 0.234295 4.44696 12.3063 5.41061
182 2 0.159397 9.64742 8.84517 6.96068
365 2 0.178339 9.59847 7.22187 1.61441
184 2 0.165572 9.98971 7.90951 8.66129
41 4 1.34957 1.92247 10.001 0.143471
199 1 -0.65931 8.92577 9.14952 3.12466
183 2 0.183774 11.352 8.48038 7.47638
219 1 -0.655239 3.62371 11.743 4.92011
220 1 -0.693087 10.2949 8.09231 7.53849
322 2 0.171443 9.19814 11.7674 8.47221
204 1 -0.659437 5.62647 6.87113 4.88807
298 3 -0.758691 2.80465 9.33275 8.69105
287 3 -0.765714 11.2384 7.02719 4.99747
293 3 -0.790118 3.75759 9.1415 3.7397
294 3 -0.857618 4.73462 11.2242 2.32405
171 2 0.153106 8.23637 7.08946 6.10922
260 3 -0.853178 2.77619 9.1858 1.1907
349 2 0.159475 7.16175 12.2655 2.03959
301 3 -0.777407 8.46087 10.7478 5.57088
302 3 -0.829538 5.98871 10.3427 4.6627
303 3 -0.805848 6.76606 8.87132 6.83326
304 3 -0.853689 6.39291 11.6341 6.8411
258 3 -0.849591 4.47465 7.15208 1.75349
169 2 0.159281 11.0367 8.2778 0.981344
186 2 0.167135 9.17915 9.86076 8.83923
39 4 1.47969 3.2722 8.03103 2.19957
221 1 -0.700114 8.11387 10.0557 9.11533
76 2 0.0157336 0.630896 12.3523 6.99818
332 2 0.196853 10.7898 9.30832 5.94786
342 2 0.16466 6.63934 6.56299 0.149734
15 4 0.986842 11.3454 7.41578 10.8626
153 2 0.20074 4.39703 7.09879 16.9998
61 4 1.03985 8.38571 7.82448 12.037
63 4 1.1721 6.67697 9.96836 17.4834
292 3 -0.801386 7.44636 6.73619 11.2341
67 4 1.43243 4.24143 10.6404 16.1558
97 2 0.0148077 6.826 8.55312 18.417
52 4 0.987323 6.27781 12.7494 15.4233
353 2 0.146635 6.61554 12.8163 10.2079
321 2 0.104843 7.61753 11.7333 15.9089
176 2 0.152105 8.28962 10.3617 12.0653
177 2 0.164648 7.2439 9.33734 13.3722
178 2 0.182318 6.47088 9.72656 11.6838
340 2 0.184078 6.15625 7.53757 17.3299
187 2 0.182345 7.96615 10.0143 10.2798
188 2 0.254882 5.16041 9.19259 10.4742
189 2 0.238672 4.09558 9.8827 11.9057
190 2 0.135411 5.39254 11.0449 11.0122
268 3 -0.816932 0.980606 12.5449 12.6157
218 1 -0.663584 7.48165 9.55253 12.2462
222 1 -0.670689 4.6217 10.1063 10.9218
314 4 1.1842 9.86236 10.9266 16
118 2 0.178493 11.2714 8.00721 13.123
197 1 -0.656707 12.1033 7.48917 12.5546
90 2 -0.039304 6.50297 12.6322 13.7992
291 3 -0.757526 9.98563 8.14251 11.1494
296 3 -0.859316 6.19244 11.0217 18.5084
295 3 -0.787028 8.32433 10.5174 16.6433
173 2 0.146298 9.01401 8.2079 14.425
300 3 -0.800536 2.05528 11.5305 10.4363
305 3 -0.797185 3.46599 9.82974 14.8862
306 3 -0.791264 5.65729 9.53133 16.3844
307 3 -0.817799 4.86584 12.139 15.7096
308 3 -0.833896 3.18228 10.446 17.497
318 2 -0.0332188 10.5183 9.49313 15.1885
65 4 1.22852 3.38671 10.8461 9.7271
364 2 0.148913 12.1567 7.62524 16.5225
217 1 -0.671142 8.76413 7.30489 13.8409
168 2 0.155298 9.85385 8.40881 18.5752
297 3 -0.79751 6.12895 7.91618 9.37493
362 1 -0.636623 12.4747 6.77959 17.2193
174 2 0.142504 9.70643 6.62434 13.7051
343 1 -0.675603 6.19992 6.70461 18.063
175 2 0.184768 7.8672 6.77498 14.3261
267 3 -0.803715 2.08952 10.1069 12.7327
ITEM: TIMESTEP
200
ITEM: NUMBER OF ATOMS
371
ITEM: BOX BOUNDS xy xz yz pp pp pp
-8.8634268666666678e+00 1.7777500000000000e+01 -8.8634268666666678e+00
0.0000000000000000e+00 1.3020299999999999e+01 4.5889999999999997e-01
0.0000000000000000e+00 1.8640300000000000e+01 2.0540000000000000e-01