ITEM: TIMESTEP
0
ITEM: NUMBER OF ATOMS
371
ITEM: BOX BOUNDS xy xz yz pp pp pp
-8.8510000000000009e+00 1.7777500000000000e+01 -8.8510000000000009e+00
0.0000000000000000e+00 1.3020299999999999e+01 4.5889999999999997e-01
0.0000000000000000e+00 1.8640300000000000e+01 2.0540000000000000e-01
ITEM: ATOMS id type x y z
1 4 2.16028 0.974246 2.86266
2 2 3.78114 1.26403 3.14187
3 2 1.43419 2.40919 3.2814
4 3 2.09934 0.739384 1.26194
68 2 0.721133 0.692995 7.33902
7 4 0.57787 2.26284 6.49041
11 4 -0.235755 4.50912 2.58989
14 4 -0.867463 4.4822 8.02494
360 2 -2.95021 4.75463 1.61866
31 4 1.77081 6.1078 4.25093
32 4 4.50321 5.41719 0.61322
33 4 5.49325 4.41093 8.46199
35 4 4.38964 5.80101 5.71341
30 4 6.26043 2.98877 1.81806
70 2 0.35361 3.60717 1.28986
335 2 7.23322 0.490605 1.34655
102 2 2.43252 3.31108 5.08973
103 2 2.6789 1.5611 5.94108
104 2 2.88147 3.27147 6.95824
130 2 5.54307 0.894693 3.12578
131 2 4.84918 2.46864 3.98753
132 2 6.71201 2.14342 3.87099
324 2 2.44408 1.37276 8.53536
192 1 2.37992 2.68579 6.05427
202 1 5.67824 1.96208 3.36635
223 3 -0.404322 2.19124 5.28266
225 3 -1.33255 3.70923 3.36192
226 3 -0.945213 5.80326 1.75076
227 3 0.132547 3.35468 7.57988
229 3 -1.33995 5.45972 6.69084
243 3 6.51005 1.89435 0.661003
244 3 1.13452 4.84271 3.449
245 3 5.10557 4.26173 1.59988
325 1 2.34217 0.251874 8.35518
249 3 2.92372 5.78347 5.22398
250 3 4.83326 5.15527 7.15609
247 3 -0.241006 5.35176 9.22352
139 2 3.08825 5.40226 8.69434
10 4 2.17356 1.30775 11.6326
17 4 0.405296 4.31477 15.3517
18 4 -0.488708 6.11206 12.7497
24 4 7.30956 1.49623 17.4926
26 4 4.75812 2.40808 10.5511
38 4 4.33707 6.38309 12.962
28 4 4.51785 2.08646 16.1608
251 3 4.58765 3.4613 15.3236
246 3 4.53275 3.48454 9.34018
326 2 -0.428238 2.49902 18.0906
37 4 2.41286 5.76833 17.4656
69 2 1.69269 0.465897 10.2061
36 4 5.65153 4.42193 14.7816
73 2 -1.99344 5.67261 12.0906
78 2 3.33103 2.50298 17.2985
110 2 0.226101 1.68527 10.5008
111 2 0.37577 3.19492 11.6308
112 2 -0.219069 1.55548 12.3534
113 2 2.24591 3.0183 14.8098
114 2 0.836681 2.53221 13.5249
115 2 0.758095 1.97341 15.3549
253 3 1.48343 4.81125 16.4826
34 4 0.993248 6.13945 9.69448
141 2 3.00163 4.89603 10.5246
142 2 2.62909 5.08223 13.8869
143 2 3.11426 4.09572 12.2786
144 2 1.94566 5.67266 12.1758
195 1 0.451275 2.10573 11.616
196 1 1.12913 2.78645 14.6619
205 1 2.43664 4.92568 9.52101
206 1 2.91212 5.14961 12.7836
224 3 2.43996 0.238097 12.8989
230 3 -1.12673 3.88321 16.1572
231 3 -0.0772166 5.21702 13.976
237 3 4.85752 0.875686 9.9071
238 3 3.28984 2.4245 11.4853
239 3 3.75459 0.855352 15.2973
240 3 5.90127 1.59494 16.7229
241 3 5.99184 2.63445 11.4565
242 3 7.96286 1.47245 12.6895
254 3 3.56868 5.11896 18.3429
248 3 0.593787 6.39116 11.569
118 2 -3.83447 6.14211 11.4375
140 2 2.04511 3.92618 9.32749
334 1 -6.24487 10.5781 5.53055
12 4 -4.19989 7.18253 4.14664
13 4 -0.358787 6.89406 0.537777
16 4 -2.21357 6.81612 6.75602
333 2 -5.38529 11.21 5.33509
21 4 -3.2912 10.3914 7.03503
331 2 -6.15443 9.35836 5.2534
40 4 0.826787 9.49828 4.14684
42 4 1.9619 8.65584 7.98344
74 2 -4.48033 9.76223 5.99756
79 2 0.546771 6.93905 5.11265
80 2 -1.24204 8.21361 6.95837
344 2 0.350264 10.9322 8.95473
84 2 0.086497 9.00225 5.78979
86 2 0.659682 9.61807 7.72566
87 2 2.09603 8.25241 6.36893
105 2 -4.75622 9.28345 3.17199
106 2 -3.26305 8.31162 2.33284
107 2 -2.87498 9.40149 3.81203
108 2 -0.122552 8.61887 1.25376
77 2 -0.845363 12.8743 6.66114
128 2 -1.75654 11.9688 2.77098
129 2 -1.24577 11.3595 1.11795
145 2 0.0319465 8.15984 2.9755
146 2 -1.57503 8.97246 4.19453
147 2 -1.00589 7.20935 4.4735
346 1 -0.260294 11.9018 8.99644
149 2 -2.57963 11.0345 4.954
150 2 -0.948049 11.2316 6.05831
193 1 -3.67221 8.75952 3.33818
20 4 -2.8206 8.15838 9.16445
201 1 -1.25081 12.2076 1.82199
207 1 -0.664402 8.26357 4.29831
208 1 -2.07125 11.4486 6.00443
228 3 -3.19147 6.98371 5.42738
233 3 -3.10315 6.58471 8.43927
234 3 -2.47878 9.22046 7.83848
235 3 -4.01037 11.5286 8.1682
370 3 -7.25505 12.5484 3.73247
257 3 2.22305 7.11891 3.17408
259 3 0.558584 10.9381 3.62331
345 2 -1.30786 11.785 8.4221
309 4 -6.29002 12.4797 0.208367
322 2 -7.47321 12.6479 8.79588
311 2 -6.0059 10.3333 0.953843
312 2 -5.19241 11.5863 2.26943
313 1 -5.13913 11.1544 1.18118
262 3 1.51879 7.36636 8.77042
323 2 -6.28888 12.7127 7.3019
332 2 -6.71291 10.7409 6.51293
148 2 -2.45676 12.4906 6.27586
310 2 -4.13209 10.8093 0.838028
6 4 -4.7212 12.3904 9.25024
109 2 -2.06919 9.14157 0.302866
83 2 2.44513 9.16326 4.44954
8 4 -5.77665 12.4391 14.4293
22 4 -3.73363 10.0631 13.4631
363 2 -4.75683 8.16116 17.5513
43 4 -1.50254 10.0557 11.1342
45 4 1.39422 10.8663 11.9179
120 2 -2.45183 7.15378 14.0097
75 2 -3.07562 8.9637 14.6953
88 2 -1.82797 11.3468 10.0655
99 2 -6.3739 11.5567 10.6088
100 2 -4.6685 11.6032 11.4889
101 2 -4.98811 10.0471 10.4197
119 2 -0.995168 8.27268 13.3181
337 2 -1.85311 12.0134 18.271
121 2 -2.52133 7.69814 12.2429
126 2 -4.14777 7.44556 13.414
265 3 3.52529 7.72403 13.4085
151 2 2.86414 8.13387 16.8831
152 2 3.09097 6.83405 15.4347
154 2 1.22523 7.43586 14.5852
155 2 0.391333 9.18329 14.124
156 2 0.940249 8.76218 15.8814
191 1 -5.18702 11.2245 10.5743
198 1 -1.81652 7.38584 13.023
200 1 -4.63054 8.3964 13.694
209 1 3.38061 7.14136 16.5117
210 1 1.13695 8.55456 14.7966
232 3 -4.48994 8.35949 10.0356
236 3 -4.63573 11.3174 13.9844
317 2 -4.09455 12.698 18.6019
263 3 -1.68299 8.70786 10.2958
264 3 -2.60457 10.139 12.3498
266 3 -0.062345 10.3579 11.8302
71 2 -1.493 7.33208 18.0515
315 3 -6.61663 11.9418 17.7087
316 3 -7.11533 11.7931 15.1027
319 2 -1.39328 11.725 13.2613
194 1 -0.777856 8.75338 18.5575
330 2 -0.251836 9.08738 17.5744
336 2 -1.77563 12.1808 16.3526
320 2 0.833796 9.92919 18.589
338 2 -0.219748 12.2561 17.4245
339 1 -1.30508 12.4632 17.3927
127 2 -5.37022 8.73121 12.7935
347 2 -0.175185 12.5301 9.99266
255 3 1.37029 6.66204 18.3665
361 2 -3.80148 6.67322 17.1124
27 4 -0.22081 12.9315 13.3647
125 2 -5.12976 8.30156 14.8121
212 1 8.48563 3.51585 8.51869
47 4 10.529 2.2177 3.83257
50 4 10.1817 2.74107 8.81463
51 4 13.1517 1.94659 5.59069
55 4 12.0879 4.80289 2.12865
81 2 6.64967 3.3289 7.79246
57 4 12.1852 4.4109 7.07492
136 2 5.55793 5.14267 3.88065
89 2 16.4792 1.03097 3.10305
352 2 15.707 1.9473 8.59316
93 2 13.4511 5.28024 7.80761
137 2 6.94665 6.16712 4.75304
133 2 7.61062 4.96628 2.1859
134 2 8.61391 3.7697 1.14056
135 2 8.51392 3.51374 2.98081
351 1 15.0722 0.538631 1.82454
170 2 9.10568 5.80799 4.08278
157 2 8.30595 2.3789 4.82507
158 2 9.13932 4.08239 5.01235
159 2 9.71012 2.49269 5.98482
161 2 8.39168 3.59094 7.40711
166 2 13.1819 3.55199 0.480647
167 2 13.8013 2.92815 2.17386
49 4 14.1302 0.256135 8.0641
172 2 8.43899 5.24241 5.74343
203 1 7.98918 3.90194 2.0535
357 2 10.9969 1.80919 1.24046
211 1 9.24071 2.87517 4.98811
354 1 14.7136 1.77587 9.17895
214 1 13.5831 3.84709 1.54528
329 2 14.6681 1.96303 0.227608
269 3 9.74199 0.895467 3.05511
271 3 9.94747 1.32033 8.21374
272 3 14.4092 1.81409 4.67697
273 3 11.7482 1.78237 4.70367
274 3 13.0701 0.828019 7.05249
280 3 11.1257 3.60891 2.81852
281 3 12.5416 6.01025 3.11332
282 3 11.214 5.68754 0.666696
283 3 11.2847 3.56053 8.09684
284 3 13.1316 3.45047 6.21329
288 3 11.2054 5.4901 6.42762
348 2 15.0301 1.7195 1.52862
359 1 10.6907 2.25812 0.234182
353 2 13.9414 2.63208 9.09725
204 1 5.77508 6.15775 4.46673
371 3 12.6823 0.309788 0.121328
72 2 15.0618 3.65807 8.63055
350 2 14.799 0.380443 2.96734
216 1 8.93535 6.09827 5.10832
162 2 8.61945 4.49735 9.11609
349 2 16.1192 0.130764 1.62505
5 4 15.8778 2.27296 4.15709
160 2 7.75361 2.72946 9.04581
356 2 10.9384 3.37912 0.248381
9 4 15.204 2.64463 16.4982
48 4 12.2958 1.54667 17.7442
174 2 8.23418 5.66539 13.5566
53 4 9.82592 1.63818 15.6969
54 4 11.8963 1.9766 11.5215
60 4 11.8265 3.25675 14.2386
82 2 6.42585 4.96826 16.2569
252 3 6.73742 3.61672 13.8268
91 2 13.1619 1.73702 10.434
92 2 11.432 0.411909 11.7954
95 2 12.9747 2.92226 15.4898
96 2 12.0613 4.94334 14.1164
116 2 12.3298 5.08828 10.2974
117 2 11.8714 5.4959 12.1534
369 1 9.86676 5.46675 17.2116
217 1 9.02195 6.50238 13.6101
256 3 5.29646 5.84048 14.1456
163 2 7.65914 4.5193 10.783
164 2 9.39421 3.5725 11.235
165 2 8.69629 5.04756 12.2995
366 2 9.63518 4.41882 17.4628
197 1 12.4028 5.8374 11.1892
213 1 8.38411 4.14224 11.5776
368 2 8.88954 6.1903 17.4389
270 3 13.4313 2.84587 17
275 3 15.2126 1.4174 15.253
276 3 9.02337 0.371811 14.8761
277 3 11.1808 1.04392 16.6832
278 3 8.57078 2.21128 16.8532
279 3 10.7846 2.71731 10.7176
355 2 14.8878 1.28308 10.1991
289 3 10.3707 2.95106 14.762
290 3 12.4327 2.65615 12.897
328 2 16.1459 0.852271 18.0754
342 2 6.91386 5.00203 17.9208
343 1 6.3055 5.97465 17.963
173 2 10.131 6.11256 13.7724
341 2 5.73129 6.38289 17.0213
29 4 7.20951 2.95912 12.4772
327 1 15.9221 1.92403 18.0405
367 2 10.2886 5.68049 16.1074
56 4 11.0181 6.56239 18.0678
358 2 10.0519 2.22796 18.5377
285 3 6.33469 5.48978 9.33824
19 4 9.50107 11.3125 4.53375
296 3 5.86991 11.1748 0.413535
171 2 8.39469 7.17921 5.27267
46 4 4.95637 12.1434 1.18466
186 2 8.84971 10.1886 9.05402
59 4 10.5328 6.8039 5.9425
62 4 4.35066 10.7361 4.10427
64 4 6.98143 8.89284 8.27995
66 4 6.6434 11.0568 6.21235
94 2 10.7403 6.7205 8.82661
85 2 5.15582 7.46828 5.75516
98 2 8.26818 7.82969 7.79014
122 2 9.40147 10.7133 2.01373
123 2 7.85938 10.118 2.99401
124 2 9.50205 9.30557 3.40213
41 4 1.97455 10.2793 0.524231
25 4 0.663794 12.7142 7.57865
297 3 6.04291 8.04546 9.20466
298 3 3.18306 9.49408 8.34001
179 2 2.59713 10.5952 5.81017
180 2 2.41726 12.0161 4.45693
181 2 3.53825 12.2949 5.99909
182 2 9.62672 8.85479 6.9027
183 2 11.298 8.50532 7.5651
184 2 9.80533 8.16901 8.67473
23 4 0.563359 12.2074 2.4465
199 1 8.9552 10.2608 2.99911
169 2 8.97526 7.96418 0.697086
219 1 3.10627 11.5011 5.26391
220 1 10.2049 8.13123 7.59508
76 2 1.90707 11.8834 6.76657
258 3 4.2974 7.0159 1.44386
261 3 1.55891 11.6233 1.26455
287 3 11.4142 7.71136 4.93401
293 3 3.93948 8.94411 3.6019
294 3 4.39182 11.6082 2.64736
138 2 5.43948 7.04081 3.83357
304 3 6.5534 12.3742 7.369
299 3 4.46922 11.9872 9.12798
301 3 8.23546 11.0948 5.55927
302 3 5.6148 11.0169 5.03438
303 3 6.30915 9.67216 7.04787
97 2 7.59098 9.05667 0.0303107
39 4 3.25344 8.04455 2.35441
260 3 2.45563 9.07282 1.39579
15 4 11.6063 7.2555 10.3236
58 4 6.19163 6.72976 10.319
61 4 8.74036 7.63359 12.0436
63 4 7.07803 10.5306 17.8812
221 1 7.76522 10.195 9.48122
67 4 4.456 10.5914 16.534
364 2 12.186 7.39465 15.8129
365 2 9.02318 8.397 17.5526
314 4 9.87003 11.2153 16.5718
175 2 8.72819 7.40844 14.3092
176 2 8.91711 10.1094 12.1803
177 2 8.13637 9.33699 13.7897
178 2 7.04395 9.67505 12.3441
340 2 6.85144 6.81528 18.5279
215 1 9.80192 8.42374 18.343
188 2 5.89231 10.1782 10.2646
189 2 4.5843 8.95921 10.8698
190 2 4.8384 10.6424 11.8035
52 4 6.03707 12.7301 15.1195
218 1 8.09064 9.39919 12.6575
222 1 4.86848 10.0392 10.8113
187 2 7.73138 9.87558 10.6838
44 4 2.80122 9.16644 14.1312
268 3 1.08666 12.5853 12.5895
362 1 12.541 7.22538 16.9771
291 3 10.3662 7.64975 11.3666
292 3 7.5802 7.00757 11.1903
295 3 8.11711 11.3075 16.9706
286 3 4.99269 6.63256 11.3751
300 3 2.27592 10.9097 10.6131
305 3 3.71569 9.7873 15.3089
306 3 5.86277 9.77489 16.9827
307 3 4.79567 12.1443 15.9404
308 3 3.39206 10.5327 17.8798
65 4 3.55148 10.7467 9.64725
321 2 7.34483 11.7566 15.5481
153 2 4.55272 7.15815 16.7107
318 2 10.1426 9.53649 16.6793
267 3 2.30937 10.2741 13.0704
90 2 5.97969 12.2881 13.5114
168 2 10.3614 9.37563 18.377
185 2 7.29703 11.1904 9.33279
ITEM: TIMESTEP
100
ITEM: NUMBER OF ATOMS
371
ITEM: BOX BOUNDS xy xz yz pp pp pp
-8.8510000000000009e+00 1.7777500000000000e+01 -8.8510000000000009e+00
0.0000000000000000e+00 1.3029620150000000e+01 4.5889999999999997e-01
0.0000000000000000e+00 1.8640300000000000e+01 2.1472014999999978e-01
ITEM: ATOMS id type x y z
1 4 2.19155 1.04147 2.87198
2 2 3.8133 1.27017 3.33886
3 2 1.5338 2.54146 3.08443
4 3 2.13338 0.722384 1.30755
68 2 0.698303 0.66169 7.4234
7 4 0.620768 2.26211 6.68343
11 4 -0.22497 4.54692 2.43232
14 4 -0.922011 4.4011 8.09214
360 2 -3.07293 4.70303 1.66759
31 4 1.74025 6.15536 4.00893
32 4 4.48872 5.58602 0.625339
33 4 5.59491 4.42521 8.39468
35 4 4.37854 5.91104 5.78353
30 4 6.32105 3.12151 1.80014
70 2 0.133976 3.5032 1.15442
335 2 7.26519 0.359226 1.38963
102 2 2.19429 3.42483 5.04313
103 2 2.93137 1.96168 6.01929
104 2 2.5324 3.62881 6.99304
130 2 5.48099 1.17942 3.26124
131 2 4.5353 2.80509 3.60871
132 2 6.36937 2.66915 4.09209
324 2 2.37115 1.34633 8.61071
192 1 2.33724 2.91703 6.04245
202 1 5.52726 2.28992 3.39215
223 3 -0.366284 2.29791 5.43681
225 3 -1.26032 3.70016 3.31275
226 3 -0.788209 6.07866 1.84712
227 3 0.271743 3.41836 7.7156
229 3 -1.47406 5.37595 6.84026
243 3 6.66028 1.81642 0.675108
244 3 1.11383 4.94391 3.33169
245 3 5.22808 4.3518 1.39339
325 1 2.32678 0.210757 8.44406
249 3 2.91559 5.8859 5.15342
250 3 4.98331 5.18023 7.06525
247 3 -0.367225 5.34439 9.24401
139 2 2.8184 5.25888 8.56793
246 3 4.44178 3.58828 9.05737
5 4 -1.3345 2.35813 4.19603
254 3 3.102 5.00635 0.00102978
10 4 2.22112 1.34798 11.6796
17 4 0.41061 4.3459 15.4221
18 4 -0.260943 6.18517 12.7931
24 4 7.26683 1.48136 17.4615
26 4 4.64946 2.49274 10.4715
38 4 4.27102 6.34955 12.9267
28 4 4.35436 2.18135 16.0309
251 3 4.41171 3.48458 15.2226
140 2 1.69033 4.0419 9.44657
326 2 -0.350413 2.5 18.161
37 4 2.43827 5.89547 17.4799
69 2 1.72755 0.365558 10.3
36 4 5.67065 4.40548 14.8392
73 2 -1.74726 5.59062 12.186
78 2 3.44189 2.59122 17.3598
110 2 0.258791 2.27163 10.4681
111 2 0.566331 3.28316 12.0723
112 2 -0.185806 1.54589 12.1775
113 2 2.13373 2.95148 14.8322
114 2 0.766613 2.6158 13.563
115 2 0.710003 1.8262 15.3434
253 3 1.60623 4.99985 16.2663
34 4 1.02496 6.27636 9.89259
141 2 2.99932 5.03127 10.4378
142 2 2.79047 4.85376 14.0765
143 2 3.14733 4.13604 12.4088
144 2 2.16722 5.62268 12.4687
195 1 0.542008 2.23926 11.5874
196 1 1.01764 2.76353 14.7334
205 1 2.32428 4.97481 9.56847
206 1 2.95171 5.07604 12.9926
224 3 2.49078 0.382262 12.9306
230 3 -1.0046 3.89352 16.0771
231 3 0.158397 5.52978 14.1209
237 3 4.73124 0.920324 9.87036
238 3 3.36015 2.56148 11.4064
239 3 3.68179 0.875792 15.2386
240 3 5.82745 1.78392 16.6379
241 3 5.94399 2.73065 11.4218
242 3 7.88091 1.47227 12.8699
27 4 8.60615 0.240027 13.4167
248 3 0.801127 6.46252 11.6481
334 1 -6.36915 10.5278 5.52656
12 4 -4.44602 7.08549 4.22336
13 4 -0.433734 6.9254 0.517222
16 4 -2.2777 6.7152 6.78317
333 2 -5.50725 11.2513 5.48093
21 4 -3.35309 10.5071 7.121
194 1 -1.1633 8.7123 0.0902775
40 4 0.816232 9.58031 4.19903
42 4 1.99959 8.56592 7.94923
74 2 -4.58676 9.86841 6.06261
79 2 0.294703 6.94888 4.67978
80 2 -1.07279 7.92354 6.4588
344 2 0.362762 10.9426 9.08979
84 2 0.353719 9.10753 5.92968
86 2 0.701776 9.59795 7.58438
87 2 2.54339 7.79953 6.54854
105 2 -4.64115 9.36333 3.23087
106 2 -3.89498 8.06416 2.01737
107 2 -2.86963 8.74173 3.55027
108 2 -0.0979359 8.69014 1.3842
77 2 -0.35704 12.6022 6.21774
128 2 -1.66522 11.7462 2.81374
129 2 -1.18171 11.4333 0.92262
145 2 0.0219252 8.20766 3.13017
146 2 -1.62458 9.40112 4.5517
147 2 -1.27331 7.61189 4.72412
346 1 -0.35302 11.8974 9.09587
149 2 -2.30466 11.6045 5.07674
150 2 -1.02487 10.9384 6.3211
193 1 -3.91076 8.47347 3.05957
20 4 -2.87432 8.27314 9.12687
201 1 -1.16794 12.1656 1.76497
207 1 -0.843404 8.58833 4.66023
208 1 -2.00813 11.5189 6.14519
228 3 -3.29777 6.81647 5.59837
233 3 -3.01242 6.74506 8.5248
234 3 -2.5853 9.3218 7.82293
235 3 -3.92292 11.4882 8.26071
370 3 -7.37228 12.6394 3.75416
257 3 2.21093 7.14311 2.90862
259 3 0.419682 10.9841 3.68389
345 2 -1.38482 11.8837 8.49832
309 4 -6.26636 12.4486 0.318546
322 2 -7.40536 12.4632 8.85527
311 2 -5.78697 10.4736 1.34984
312 2 -4.50929 11.8178 2.01664
313 1 -4.885 11.2875 1.14094
262 3 1.49112 7.5937 8.94655
323 2 -6.07661 12.6432 7.40105
332 2 -6.86151 10.5335 6.54538
148 2 -2.19074 12.5282 6.82884
310 2 -4.03413 10.8317 0.56141
109 2 -2.0062 9.44017 0.334964
331 2 -6.09038 9.45013 5.14283
6 4 -4.73546 12.3317 9.2735
8 4 -5.77566 12.4575 14.3118
22 4 -3.75005 10.0341 13.398
363 2 -4.51241 8.13121 17.3723
43 4 -1.55157 9.92596 11.1271
45 4 1.40796 10.965 11.9866
120 2 -2.45518 6.95523 13.7867
75 2 -3.20243 9.22425 14.8215
88 2 -1.91435 11.1545 10.0185
99 2 -6.52667 11.1318 10.6211
100 2 -5.03033 11.6931 11.5311
101 2 -5.02126 10.1177 10.4197
119 2 -1.02741 8.17768 13.5156
337 2 -2.10917 12.2189 18.4985
121 2 -2.26641 7.64906 12.0703
126 2 -3.98321 7.3654 13.4324
265 3 3.48014 7.83215 13.3788
151 2 3.02465 8.23163 16.9289
152 2 3.40862 6.95586 15.5827
154 2 1.1667 7.40684 14.6855
155 2 0.456325 9.17257 14.5675
156 2 1.44947 8.52204 16.184
191 1 -5.44842 11.1579 10.635
198 1 -1.75222 7.32631 13.0299
200 1 -4.54381 8.34104 13.7235
209 1 3.51439 7.24394 16.7161
210 1 1.31988 8.49483 15.0557
232 3 -4.52505 8.43478 10.0911
236 3 -4.70764 11.4031 13.9568
317 2 -4.08413 12.6839 18.3893
263 3 -1.58857 8.56959 10.3276
264 3 -2.71716 10.0795 12.2474
266 3 -0.0630508 10.1321 11.7117
71 2 -1.57691 7.49656 18.2027
315 3 -6.65997 12.0293 17.8234
316 3 -6.97047 11.6588 15.1147
319 2 -1.35521 11.7481 13.6017
320 2 1.04339 9.70864 18.5709
330 2 -0.223556 9.28362 17.755
336 2 -1.87032 12.0758 16.5616
125 2 -5.03648 8.28004 14.8676
338 2 -0.31011 12.1342 17.7467
339 1 -1.39361 12.4251 17.5959
127 2 -5.36912 8.67914 12.7531
347 2 -0.192202 12.7905 9.77391
255 3 1.24499 6.77417 18.254
212 1 8.66885 3.68799 8.61075
47 4 10.5838 2.24961 3.81589
50 4 10.2731 2.76447 8.7926
51 4 13.2091 2.14258 5.4663
55 4 11.886 4.78392 2.1586
81 2 6.85496 3.39488 7.8309
57 4 12.3136 4.53615 7.16111
136 2 5.52609 4.83647 4.17983
89 2 16.4839 1.08919 3.16087
352 2 15.5847 1.80393 8.54296
93 2 13.4225 5.43633 7.98226
137 2 6.83643 6.16024 4.73351
133 2 7.64545 5.1902 1.99319
134 2 8.76391 3.78623 1.29839
135 2 8.42404 3.73319 3.07628
351 1 15.0293 0.604768 1.92549
170 2 9.07615 5.76075 3.94961
157 2 8.26426 2.60785 4.49571
158 2 9.14259 4.26004 4.88717
159 2 9.6411 2.74471 5.8782
161 2 8.58087 3.78542 7.46818
166 2 13.4112 4.23822 0.0874467
167 2 13.3441 3.04988 1.58994
49 4 14.0541 0.154599 7.96179
172 2 8.33289 5.63386 5.74126
203 1 7.97832 4.04265 2.057
357 2 10.9029 1.82008 1.1454
211 1 9.21123 3.12252 4.87005
354 1 14.5977 1.63975 9.20368
214 1 13.399 4.19743 1.1922
329 2 14.816 2.09922 0.292084
269 3 9.79161 1.00066 3.03939
271 3 9.87404 1.3015 8.08901
272 3 14.4395 1.968 4.51806
273 3 11.7837 1.73415 4.78576
274 3 13.3854 0.874765 6.81013
280 3 11.0271 3.52287 2.78933
281 3 12.5789 5.83343 3.21341
282 3 10.9657 5.59198 0.866575
283 3 11.5122 3.59756 8.08096
284 3 13.1346 3.54247 6.19173
288 3 11.2883 5.55035 6.52028
348 2 14.7985 1.75243 1.78392
359 1 10.6989 2.30883 0.0816231
353 2 13.8691 2.50106 9.18802
204 1 5.74467 6.05006 4.48399
371 3 12.7883 0.44646 0.178556
72 2 15.0669 3.49281 8.68762
350 2 14.8708 0.118269 3.03394
216 1 8.89149 6.27367 4.98738
162 2 8.91572 4.7474 9.09331
349 2 15.9637 0.207372 1.30172
160 2 7.85843 3.08522 9.19002
9 4 15.2354 2.63733 16.4729
48 4 12.3632 1.58132 17.6583
174 2 8.29976 5.54599 13.8919
53 4 9.86405 1.5742 15.7585
54 4 11.7827 1.96055 11.5601
60 4 11.6688 3.35166 14.192
82 2 6.54642 4.77933 16.2569
252 3 6.6944 3.71376 13.8525
91 2 13.1583 1.67439 10.6195
92 2 11.2997 0.361043 11.5298
95 2 12.8515 3.31576 15.4421
96 2 11.7469 5.00093 13.8887
116 2 11.89 5.03804 10.6775
117 2 12.4417 5.93339 12.2778
369 1 9.98496 5.36509 17.1767
285 3 6.4307 5.36646 9.442
256 3 5.18982 5.81411 14.0943
163 2 7.81081 4.44371 10.8186
164 2 9.39027 3.39799 11.3096
165 2 8.70527 4.89596 12.3899
366 2 9.76628 4.3471 17.6527
197 1 12.5063 5.9026 11.1474
213 1 8.41534 3.97752 11.682
368 2 8.97813 6.04542 17.0431
270 3 13.451 2.82978 16.9036
275 3 15.2391 1.49483 15.2605
276 3 9.04578 0.430361 14.9068
277 3 11.2686 0.972224 16.6463
278 3 8.626 2.08819 16.9528
279 3 10.7754 2.67893 10.69
355 2 14.811 1.3764 10.368
289 3 10.3193 2.93969 14.7793
290 3 12.2229 2.52844 12.9726
328 2 16.0933 0.754897 17.998
342 2 6.80689 5.17973 17.9495
343 1 6.2183 6.09697 17.763
173 2 10.0692 6.09969 13.9328
341 2 5.57546 6.14463 16.7822
29 4 7.15099 2.82529 12.4827
327 1 15.9559 1.90526 18.0419
367 2 10.5375 5.21619 16.2085
56 4 10.9832 6.57541 18.1253
358 2 10.0371 2.44629 18.4501
361 2 13.4324 6.37209 16.9218
286 3 4.75622 6.40182 11.3479
217 1 8.94641 6.44635 13.7164
118 2 13.5448 5.96163 10.7341
356 2 11.5204 3.63854 18.5625
19 4 9.45296 11.2049 4.43603
296 3 5.94158 11.1707 0.250872
171 2 8.36497 7.21755 4.8287
46 4 4.90777 12.2658 1.15222
186 2 8.70772 10.2521 9.01452
59 4 10.4575 6.78364 5.96846
62 4 4.39205 10.8539 4.04046
64 4 7.03519 8.84334 8.29064
66 4 6.79438 11.2662 6.19494
94 2 10.998 6.68775 8.91927
85 2 5.01883 7.53094 5.42203
98 2 8.22084 7.73693 7.55522
122 2 9.31084 10.2423 2.10996
123 2 8.07494 9.44857 3.24997
124 2 9.93536 9.01728 3.46277
41 4 2.09928 10.249 0.475692
25 4 0.578989 12.6261 7.62496
297 3 5.84878 7.85848 9.12284
298 3 3.11995 9.56609 8.52615
179 2 2.88555 10.4754 5.97234
180 2 2.31455 11.8438 4.57822
181 2 3.68552 12.3374 5.96978
182 2 9.66305 8.8111 7.04796
183 2 11.2398 8.3074 7.89677
184 2 9.70087 7.62652 8.46632
23 4 0.596221 12.1892 2.36868
199 1 9.1505 9.8014 3.14276
169 2 8.60016 7.77541 0.48469
219 1 3.13442 11.4404 5.33979
220 1 10.1972 7.95367 7.574
76 2 2.00376 11.8573 6.87666
258 3 4.44989 6.94086 1.45169
261 3 1.55281 11.5632 1.15683
287 3 11.399 7.61055 4.76238
293 3 3.95695 9.01927 3.76782
294 3 4.29221 11.6157 2.63233
138 2 5.48169 6.75657 3.62033
304 3 6.65248 12.3971 7.43693
299 3 4.22619 11.9638 8.88514
301 3 8.21682 11.4233 5.45071
302 3 5.71635 11.1469 4.89464
303 3 6.72593 9.80109 7.05294
260 3 2.77403 9.20274 1.41459
39 4 3.41516 7.91825 2.28239
83 2 2.49917 9.17485 4.02793
15 4 11.6719 7.35875 10.3895
58 4 6.12239 6.72541 10.2202
61 4 8.77728 7.63032 12.1132
63 4 7.15355 10.5678 17.7987
221 1 7.72101 10.0413 9.56308
67 4 4.52882 10.6766 16.5122
364 2 12.0421 7.28763 15.8009
365 2 9.12261 8.17546 17.2344
314 4 9.88024 11.262 16.7006
175 2 8.63496 7.34184 14.3514
176 2 9.18634 9.98597 12.1899
177 2 8.55225 9.12886 13.8102
178 2 7.31556 9.7711 12.4765
340 2 6.73432 7.08376 18.0576
215 1 9.69938 8.19544 18.2429
188 2 5.87135 10.0282 10.4172
189 2 4.52083 8.81642 10.7974
190 2 4.60262 10.3711 11.8262
52 4 6.11877 12.7829 15.0228
218 1 8.36082 9.41636 12.6981
222 1 4.77268 9.87265 10.8542
187 2 7.94197 9.83661 10.7682
44 4 2.84937 9.10701 14.1159
268 3 1.14335 12.4339 12.4642
362 1 12.5361 7.17233 16.9348
291 3 10.287 7.73921 11.4173
292 3 7.42277 7.26414 11.1863
295 3 8.236 11.4752 16.7854
97 2 8.05576 9.2823 18.5211
300 3 2.2373 11.1439 10.4787
305 3 3.68461 9.77208 15.3824
306 3 5.97353 9.86212 16.8403
307 3 5.01705 12.0776 15.7976
308 3 3.48072 10.725 17.8894
65 4 3.47802 10.6462 9.64084
321 2 7.52802 11.9073 15.2589
153 2 4.58243 7.21243 17.0169
318 2 10.0406 9.57084 16.8273
267 3 2.34291 10.1806 13.0737
90 2 5.93059 12.5246 13.3289
168 2 10.5062 9.06739 18.4341
185 2 6.92362 10.8866 9.39314
ITEM: TIMESTEP
200
ITEM: NUMBER OF ATOMS
371
ITEM: BOX BOUNDS xy xz yz pp pp pp
0.0000000000000000e+00 2.6245100000000001e+01 8.4675999999999991e+00
0.0000000000000000e+00 1.3038940300000000e+01 4.5889999999999997e-01
0.0000000000000000e+00 1.8640300000000000e+01 2.2404030000000041e-01
ITEM: ATOMS id type x y z
1 4 2.18136 1.03531 2.9347
2 2 3.86713 1.36776 3.02523
246 3 4.60325 3.56055 9.22688
4 3 1.96811 0.850899 1.37265
68 2 0.885318 0.766921 7.08784
250 3 4.99417 5.09705 6.96582
325 1 2.25401 0.308808 8.37514
245 3 5.3093 4.15629 1.28914
243 3 6.64249 1.87582 0.619231
202 1 5.53479 2.35261 3.46548
32 4 4.54826 5.55688 0.660285
33 4 5.59948 4.40959 8.39147
35 4 4.38396 5.93808 5.54945
30 4 6.29631 3.04823 1.74458
192 1 2.40787 2.91008 5.8455
335 2 7.44887 0.365699 1.3006
324 2 2.3119 1.44802 8.59294
103 2 2.84253 1.8757 5.61958
104 2 2.90649 3.42076 6.68542
130 2 5.45822 1.24483 3.50099
131 2 4.53219 2.87863 3.62701
132 2 6.51614 2.74446 4.03944
212 1 8.89743 3.8416 8.60474
160 2 8.12135 3.21801 9.24352
50 4 10.4426 2.72821 8.91338
162 2 9.08399 4.90999 9.07813
216 1 8.76815 6.2948 5.02558
81 2 7.03438 3.53577 7.97698
136 2 5.58017 4.80299 4.11017
137 2 6.81343 6.33609 4.47315
204 1 5.69128 6.06137 4.15634
133 2 7.57053 5.18565 2.29433
134 2 8.51496 3.8544 1.39467
135 2 8.34461 3.60409 3.29826
288 3 11.1632 5.47651 6.57387
170 2 9.27643 5.82521 4.12688
157 2 8.42134 2.43494 4.67339
282 3 10.9016 5.71317 0.784728
158 2 9.12239 4.29784 4.96766
280 3 10.9962 3.55333 2.88111
159 2 9.65545 2.76327 6.01582
161 2 8.55512 3.89621 7.54421
172 2 8.17226 5.51782 5.66762
203 1 7.85052 4.07606 2.26423
211 1 9.2922 3.10593 5.00445
55 4 11.8421 4.80336 2.13522
10 4 2.11603 1.28552 11.6716
165 2 8.27955 4.97315 12.3258
242 3 7.73691 1.36313 12.9199
24 4 7.14907 1.66091 17.6237
26 4 4.67738 2.39038 10.4488
241 3 5.86887 2.81896 11.534
28 4 4.36855 1.97577 16.0315
251 3 4.25536 3.39275 15.2384
240 3 5.75793 1.76878 16.8314
239 3 3.75688 0.797659 15.256
238 3 3.20551 2.57263 11.5109
69 2 1.71277 0.356435 10.2301
36 4 5.57756 4.35858 14.8415
237 3 4.776 0.933304 9.8742
78 2 3.14627 2.26248 17.1592
224 3 2.28993 0.522227 13.0738
143 2 3.03274 4.0729 12.3331
174 2 7.62842 6.21591 13.6871
53 4 9.80523 1.56641 15.812
82 2 6.24542 4.81024 16.3596
217 1 8.76734 6.51606 13.5899
286 3 4.95979 6.50318 11.4674
252 3 6.62896 3.5835 13.969
358 2 10.199 2.38243 18.3778
56 4 10.8338 6.54979 18.0205
367 2 10.3486 5.20999 15.8287
96 2 11.7435 4.90271 14.0597
29 4 7.00305 2.82653 12.5758
341 2 5.50548 6.22965 16.7935
173 2 9.50131 5.72341 13.3197
343 1 6.09889 6.183 17.7948
342 2 6.99475 5.42246 17.8436
116 2 12.0299 5.0401 10.7559
117 2 12.6889 6.11601 12.1827
289 3 10.1824 2.89897 14.7676
369 1 9.94743 5.22038 16.8572
285 3 6.52099 5.37588 9.41761
278 3 8.60654 2.1225 16.8898
256 3 5.21826 5.7536 14.1268
366 2 10.0669 4.24586 17.4305
163 2 7.53941 4.47309 10.7253
164 2 9.05846 3.51041 11.3199
368 2 8.9034 5.65084 16.9206
213 1 8.12061 4.06694 11.6166
197 1 12.6976 5.91871 11.0835
317 2 4.76633 0.454351 18.565
347 2 8.41143 0.198301 9.66455
334 1 11.1628 10.5679 5.60515
12 4 12.9031 7.11312 4.31107
6 4 12.5106 12.4524 9.24457
331 2 11.2618 9.49448 5.34029
333 2 12.0486 11.2304 5.23542
21 4 13.9862 10.505 7.05827
310 2 13.0957 10.9797 0.106641
148 2 15.0414 12.7562 6.23139
332 2 10.7941 10.825 6.60341
74 2 12.9456 9.86523 5.83142
323 2 10.9891 12.8467 7.27638
313 1 12.6048 11.4584 0.984577
312 2 13.354 11.744 1.83851
311 2 11.7467 10.6113 1.46227
322 2 9.8422 12.5406 8.85147
309 4 11.1069 12.4629 0.297834
105 2 12.7399 9.19576 3.24004
106 2 13.0495 7.71286 1.9935
184 2 9.37777 7.51028 8.6419
345 2 15.9595 11.8511 8.32019
77 2 16.7652 12.6912 6.43114
128 2 15.623 11.9477 2.67736
199 1 9.2251 9.9847 3.17666
370 3 10.1802 12.537 3.776
235 3 13.2435 11.516 8.08136
234 3 14.6651 9.18901 7.81819
208 1 15.1274 11.61 6.00433
149 2 14.6251 11.2526 4.96887
201 1 16.2805 12.1964 1.78952
193 1 13.3956 8.30801 2.94016
19 4 9.55413 11.3217 4.50161
171 2 8.20947 7.2784 4.75984
186 2 8.80823 10.1472 8.94657
59 4 10.4117 6.7918 5.96266
303 3 6.82657 9.68382 7.05223
64 4 7.05595 8.71722 8.2543
301 3 8.26696 11.438 5.48476
94 2 11.0689 6.75253 8.90596
98 2 8.04679 7.51017 7.61312
138 2 5.4197 6.45285 3.07925
122 2 8.89165 10.4683 2.26774
123 2 8.48786 9.18719 3.52514
287 3 11.5215 7.76135 5.00371
124 2 10.2639 9.54252 3.08926
297 3 5.91891 7.93862 9.10334
182 2 9.47282 8.67408 6.98892
220 1 9.98888 7.85111 7.65021
183 2 11.019 8.1772 7.89493
169 2 9.02641 7.95161 0.843921
85 2 5.14518 7.49185 5.31085
8 4 11.4367 12.5673 14.3782
22 4 13.6148 10.099 13.4915
363 2 12.5688 8.07092 17.8575
338 2 17.0581 12.5499 17.6526
127 2 12.0014 8.63325 12.9169
339 1 15.9335 12.5979 17.5703
75 2 14.2937 9.26331 14.9133
88 2 15.6166 11.348 10.261
99 2 10.7858 11.3943 10.3587
100 2 12.1718 11.542 11.7039
101 2 12.3137 10.1085 10.3515
125 2 12.1353 8.48566 14.9289
337 2 15.3682 12.1227 18.4729
336 2 15.5101 12.2743 16.5356
126 2 13.4493 7.53047 13.9333
319 2 15.9656 11.6543 13.3241
316 3 10.3241 11.7282 15.1335
315 3 10.7102 12.0406 17.8194
264 3 14.7583 10.0039 12.3919
187 2 7.97548 9.79624 10.6734
236 3 12.7033 11.4826 13.7385
191 1 11.9864 11.3047 10.6092
232 3 12.6782 8.45893 10.1194
200 1 12.787 8.47959 13.9885
15 4 11.6092 7.3357 10.4422
58 4 6.08184 6.70762 10.2733
97 2 8.08011 9.29522 18.5054
61 4 8.73721 7.70923 12.0688
221 1 7.78975 10.004 9.53158
318 2 10.0126 9.53289 16.7141
364 2 12.2633 7.47594 16.0365
365 2 9.1094 8.26748 17.5526
314 4 9.87204 11.2893 16.6738
175 2 9.05536 6.97634 14.4957
176 2 9.204 10.2832 12.4122
177 2 8.36271 9.24527 13.7659
178 2 7.35588 9.85942 12.2503
340 2 6.37666 7.29576 18.1765
168 2 10.5569 9.27217 18.3147
295 3 8.27087 11.5336 16.8775
292 3 7.53008 7.187 11.19
291 3 10.2786 7.62323 11.2033
362 1 12.3877 7.12961 17.121
215 1 9.84926 8.40161 18.369
218 1 8.36322 9.56812 12.6388
27 4 17.1271 12.9328 13.4668
349 2 16.1032 0.199955 1.47142
47 4 10.5401 2.26924 3.8121
350 2 14.9957 0.279325 3.02189
51 4 13.2338 2.11239 5.61213
223 3 16.9562 2.45752 5.42314
72 2 15.0804 3.63559 8.80914
57 4 12.2806 4.48849 7.21456
371 3 12.94 0.311467 0.220096
89 2 16.4712 1.11715 3.25713
352 2 15.7078 1.98415 8.8393
93 2 13.2733 5.52944 8.05226
353 2 13.8445 2.43859 8.98185
359 1 10.8699 2.37761 0.163317
348 2 15.0084 1.70978 1.65546
284 3 13.1892 3.60708 6.23231
351 1 15.1396 0.588737 1.9205
283 3 11.6252 3.64832 8.31373
102 2 19.4353 3.55463 4.94981
274 3 13.3875 1.04888 6.86164
273 3 11.8421 1.81478 4.71754
272 3 14.436 2.00702 4.50528
166 2 13.4392 4.304 0.0774384
167 2 13.0958 2.99583 1.34542
49 4 14.1881 0.275127 8.03262
271 3 10.0938 1.26698 8.07063
269 3 10.0571 0.949511 2.86927
357 2 11.1154 2.03519 1.20948
329 2 15.0749 1.97531 0.294571
226 3 16.5867 5.99042 1.87099
214 1 13.2452 4.09758 1.19296
3 2 18.6758 2.39417 3.34078
70 2 17.8504 3.62758 1.32087
5 4 15.9228 2.40986 4.23859
7 4 17.986 2.46101 6.57839
139 2 20.3613 5.37928 8.86912
225 3 16.0957 3.66469 3.30162
11 4 17.0816 4.57379 2.50588
249 3 20.1753 6.02624 5.07771
14 4 16.4751 4.48594 8.31251
360 2 14.1037 4.55674 1.84841
244 3 18.5867 4.56054 3.29378
31 4 19.1725 6.15977 3.86206
229 3 16.0458 5.40428 6.95742
227 3 17.5646 3.27287 7.89293