ITEM: TIMESTEP
0
ITEM: NUMBER OF ATOMS
371
ITEM: BOX BOUNDS xy xz yz pp pp pp
-8.8510000000000009e+00 1.7777500000000000e+01 -8.8510000000000009e+00
0.0000000000000000e+00 1.3020299999999999e+01 4.5889999999999997e-01
0.0000000000000000e+00 1.8640300000000000e+01 2.0540000000000000e-01
ITEM: ATOMS id type x y z
1 4 2.16028 0.974246 2.86266
2 2 3.78114 1.26403 3.14187
3 2 1.43419 2.40919 3.2814
4 3 2.09934 0.739384 1.26194
68 2 0.721133 0.692995 7.33902
7 4 0.57787 2.26284 6.49041
11 4 -0.235755 4.50912 2.58989
14 4 -0.867463 4.4822 8.02494
360 2 -2.95021 4.75463 1.61866
31 4 1.77081 6.1078 4.25093
32 4 4.50321 5.41719 0.61322
33 4 5.49325 4.41093 8.46199
35 4 4.38964 5.80101 5.71341
30 4 6.26043 2.98877 1.81806
70 2 0.35361 3.60717 1.28986
335 2 7.23322 0.490605 1.34655
102 2 2.43252 3.31108 5.08973
103 2 2.6789 1.5611 5.94108
104 2 2.88147 3.27147 6.95824
130 2 5.54307 0.894693 3.12578
131 2 4.84918 2.46864 3.98753
132 2 6.71201 2.14342 3.87099
324 2 2.44408 1.37276 8.53536
192 1 2.37992 2.68579 6.05427
202 1 5.67824 1.96208 3.36635
223 3 -0.404322 2.19124 5.28266
225 3 -1.33255 3.70923 3.36192
226 3 -0.945213 5.80326 1.75076
227 3 0.132547 3.35468 7.57988
229 3 -1.33995 5.45972 6.69084
243 3 6.51005 1.89435 0.661003
244 3 1.13452 4.84271 3.449
245 3 5.10557 4.26173 1.59988
325 1 2.34217 0.251874 8.35518
249 3 2.92372 5.78347 5.22398
250 3 4.83326 5.15527 7.15609
247 3 -0.241006 5.35176 9.22352
139 2 3.08825 5.40226 8.69434
10 4 2.17356 1.30775 11.6326
17 4 0.405296 4.31477 15.3517
18 4 -0.488708 6.11206 12.7497
24 4 7.30956 1.49623 17.4926
26 4 4.75812 2.40808 10.5511
38 4 4.33707 6.38309 12.962
28 4 4.51785 2.08646 16.1608
251 3 4.58765 3.4613 15.3236
246 3 4.53275 3.48454 9.34018
326 2 -0.428238 2.49902 18.0906
37 4 2.41286 5.76833 17.4656
69 2 1.69269 0.465897 10.2061
36 4 5.65153 4.42193 14.7816
73 2 -1.99344 5.67261 12.0906
78 2 3.33103 2.50298 17.2985
110 2 0.226101 1.68527 10.5008
111 2 0.37577 3.19492 11.6308
112 2 -0.219069 1.55548 12.3534
113 2 2.24591 3.0183 14.8098
114 2 0.836681 2.53221 13.5249
115 2 0.758095 1.97341 15.3549
253 3 1.48343 4.81125 16.4826
34 4 0.993248 6.13945 9.69448
141 2 3.00163 4.89603 10.5246
142 2 2.62909 5.08223 13.8869
143 2 3.11426 4.09572 12.2786
144 2 1.94566 5.67266 12.1758
195 1 0.451275 2.10573 11.616
196 1 1.12913 2.78645 14.6619
205 1 2.43664 4.92568 9.52101
206 1 2.91212 5.14961 12.7836
224 3 2.43996 0.238097 12.8989
230 3 -1.12673 3.88321 16.1572
231 3 -0.0772166 5.21702 13.976
237 3 4.85752 0.875686 9.9071
238 3 3.28984 2.4245 11.4853
239 3 3.75459 0.855352 15.2973
240 3 5.90127 1.59494 16.7229
241 3 5.99184 2.63445 11.4565
242 3 7.96286 1.47245 12.6895
254 3 3.56868 5.11896 18.3429
248 3 0.593787 6.39116 11.569
118 2 -3.83447 6.14211 11.4375
140 2 2.04511 3.92618 9.32749
334 1 -6.24487 10.5781 5.53055
12 4 -4.19989 7.18253 4.14664
13 4 -0.358787 6.89406 0.537777
16 4 -2.21357 6.81612 6.75602
333 2 -5.38529 11.21 5.33509
21 4 -3.2912 10.3914 7.03503
331 2 -6.15443 9.35836 5.2534
40 4 0.826787 9.49828 4.14684
42 4 1.9619 8.65584 7.98344
74 2 -4.48033 9.76223 5.99756
79 2 0.546771 6.93905 5.11265
80 2 -1.24204 8.21361 6.95837
344 2 0.350264 10.9322 8.95473
84 2 0.086497 9.00225 5.78979
86 2 0.659682 9.61807 7.72566
87 2 2.09603 8.25241 6.36893
105 2 -4.75622 9.28345 3.17199
106 2 -3.26305 8.31162 2.33284
107 2 -2.87498 9.40149 3.81203
108 2 -0.122552 8.61887 1.25376
77 2 -0.845363 12.8743 6.66114
128 2 -1.75654 11.9688 2.77098
129 2 -1.24577 11.3595 1.11795
145 2 0.0319465 8.15984 2.9755
146 2 -1.57503 8.97246 4.19453
147 2 -1.00589 7.20935 4.4735
346 1 -0.260294 11.9018 8.99644
149 2 -2.57963 11.0345 4.954
150 2 -0.948049 11.2316 6.05831
193 1 -3.67221 8.75952 3.33818
20 4 -2.8206 8.15838 9.16445
201 1 -1.25081 12.2076 1.82199
207 1 -0.664402 8.26357 4.29831
208 1 -2.07125 11.4486 6.00443
228 3 -3.19147 6.98371 5.42738
233 3 -3.10315 6.58471 8.43927
234 3 -2.47878 9.22046 7.83848
235 3 -4.01037 11.5286 8.1682
370 3 -7.25505 12.5484 3.73247
257 3 2.22305 7.11891 3.17408
259 3 0.558584 10.9381 3.62331
345 2 -1.30786 11.785 8.4221
309 4 -6.29002 12.4797 0.208367
322 2 -7.47321 12.6479 8.79588
311 2 -6.0059 10.3333 0.953843
312 2 -5.19241 11.5863 2.26943
313 1 -5.13913 11.1544 1.18118
262 3 1.51879 7.36636 8.77042
323 2 -6.28888 12.7127 7.3019
332 2 -6.71291 10.7409 6.51293
148 2 -2.45676 12.4906 6.27586
310 2 -4.13209 10.8093 0.838028
6 4 -4.7212 12.3904 9.25024
109 2 -2.06919 9.14157 0.302866
83 2 2.44513 9.16326 4.44954
8 4 -5.77665 12.4391 14.4293
22 4 -3.73363 10.0631 13.4631
363 2 -4.75683 8.16116 17.5513
43 4 -1.50254 10.0557 11.1342
45 4 1.39422 10.8663 11.9179
120 2 -2.45183 7.15378 14.0097
75 2 -3.07562 8.9637 14.6953
88 2 -1.82797 11.3468 10.0655
99 2 -6.3739 11.5567 10.6088
100 2 -4.6685 11.6032 11.4889
101 2 -4.98811 10.0471 10.4197
119 2 -0.995168 8.27268 13.3181
337 2 -1.85311 12.0134 18.271
121 2 -2.52133 7.69814 12.2429
126 2 -4.14777 7.44556 13.414
265 3 3.52529 7.72403 13.4085
151 2 2.86414 8.13387 16.8831
152 2 3.09097 6.83405 15.4347
154 2 1.22523 7.43586 14.5852
155 2 0.391333 9.18329 14.124
156 2 0.940249 8.76218 15.8814
191 1 -5.18702 11.2245 10.5743
198 1 -1.81652 7.38584 13.023
200 1 -4.63054 8.3964 13.694
209 1 3.38061 7.14136 16.5117
210 1 1.13695 8.55456 14.7966
232 3 -4.48994 8.35949 10.0356
236 3 -4.63573 11.3174 13.9844
317 2 -4.09455 12.698 18.6019
263 3 -1.68299 8.70786 10.2958
264 3 -2.60457 10.139 12.3498
266 3 -0.062345 10.3579 11.8302
71 2 -1.493 7.33208 18.0515
315 3 -6.61663 11.9418 17.7087
316 3 -7.11533 11.7931 15.1027
319 2 -1.39328 11.725 13.2613
194 1 -0.777856 8.75338 18.5575
330 2 -0.251836 9.08738 17.5744
336 2 -1.77563 12.1808 16.3526
320 2 0.833796 9.92919 18.589
338 2 -0.219748 12.2561 17.4245
339 1 -1.30508 12.4632 17.3927
127 2 -5.37022 8.73121 12.7935
347 2 -0.175185 12.5301 9.99266
255 3 1.37029 6.66204 18.3665
361 2 -3.80148 6.67322 17.1124
27 4 -0.22081 12.9315 13.3647
125 2 -5.12976 8.30156 14.8121
212 1 8.48563 3.51585 8.51869
47 4 10.529 2.2177 3.83257
50 4 10.1817 2.74107 8.81463
51 4 13.1517 1.94659 5.59069
55 4 12.0879 4.80289 2.12865
81 2 6.64967 3.3289 7.79246
57 4 12.1852 4.4109 7.07492
136 2 5.55793 5.14267 3.88065
89 2 16.4792 1.03097 3.10305
352 2 15.707 1.9473 8.59316
93 2 13.4511 5.28024 7.80761
137 2 6.94665 6.16712 4.75304
133 2 7.61062 4.96628 2.1859
134 2 8.61391 3.7697 1.14056
135 2 8.51392 3.51374 2.98081
351 1 15.0722 0.538631 1.82454
170 2 9.10568 5.80799 4.08278
157 2 8.30595 2.3789 4.82507
158 2 9.13932 4.08239 5.01235
159 2 9.71012 2.49269 5.98482
161 2 8.39168 3.59094 7.40711
166 2 13.1819 3.55199 0.480647
167 2 13.8013 2.92815 2.17386
49 4 14.1302 0.256135 8.0641
172 2 8.43899 5.24241 5.74343
203 1 7.98918 3.90194 2.0535
357 2 10.9969 1.80919 1.24046
211 1 9.24071 2.87517 4.98811
354 1 14.7136 1.77587 9.17895
214 1 13.5831 3.84709 1.54528
329 2 14.6681 1.96303 0.227608
269 3 9.74199 0.895467 3.05511
271 3 9.94747 1.32033 8.21374
272 3 14.4092 1.81409 4.67697
273 3 11.7482 1.78237 4.70367
274 3 13.0701 0.828019 7.05249
280 3 11.1257 3.60891 2.81852
281 3 12.5416 6.01025 3.11332
282 3 11.214 5.68754 0.666696
283 3 11.2847 3.56053 8.09684
284 3 13.1316 3.45047 6.21329
288 3 11.2054 5.4901 6.42762
348 2 15.0301 1.7195 1.52862
359 1 10.6907 2.25812 0.234182
353 2 13.9414 2.63208 9.09725
204 1 5.77508 6.15775 4.46673
371 3 12.6823 0.309788 0.121328
72 2 15.0618 3.65807 8.63055
350 2 14.799 0.380443 2.96734
216 1 8.93535 6.09827 5.10832
162 2 8.61945 4.49735 9.11609
349 2 16.1192 0.130764 1.62505
5 4 15.8778 2.27296 4.15709
160 2 7.75361 2.72946 9.04581
356 2 10.9384 3.37912 0.248381
9 4 15.204 2.64463 16.4982
48 4 12.2958 1.54667 17.7442
174 2 8.23418 5.66539 13.5566
53 4 9.82592 1.63818 15.6969
54 4 11.8963 1.9766 11.5215
60 4 11.8265 3.25675 14.2386
82 2 6.42585 4.96826 16.2569
252 3 6.73742 3.61672 13.8268
91 2 13.1619 1.73702 10.434
92 2 11.432 0.411909 11.7954
95 2 12.9747 2.92226 15.4898
96 2 12.0613 4.94334 14.1164
116 2 12.3298 5.08828 10.2974
117 2 11.8714 5.4959 12.1534
369 1 9.86676 5.46675 17.2116
217 1 9.02195 6.50238 13.6101
256 3 5.29646 5.84048 14.1456
163 2 7.65914 4.5193 10.783
164 2 9.39421 3.5725 11.235
165 2 8.69629 5.04756 12.2995
366 2 9.63518 4.41882 17.4628
197 1 12.4028 5.8374 11.1892
213 1 8.38411 4.14224 11.5776
368 2 8.88954 6.1903 17.4389
270 3 13.4313 2.84587 17
275 3 15.2126 1.4174 15.253
276 3 9.02337 0.371811 14.8761
277 3 11.1808 1.04392 16.6832
278 3 8.57078 2.21128 16.8532
279 3 10.7846 2.71731 10.7176
355 2 14.8878 1.28308 10.1991
289 3 10.3707 2.95106 14.762
290 3 12.4327 2.65615 12.897
328 2 16.1459 0.852271 18.0754
342 2 6.91386 5.00203 17.9208
343 1 6.3055 5.97465 17.963
173 2 10.131 6.11256 13.7724
341 2 5.73129 6.38289 17.0213
29 4 7.20951 2.95912 12.4772
327 1 15.9221 1.92403 18.0405
367 2 10.2886 5.68049 16.1074
56 4 11.0181 6.56239 18.0678
358 2 10.0519 2.22796 18.5377
285 3 6.33469 5.48978 9.33824
19 4 9.50107 11.3125 4.53375
296 3 5.86991 11.1748 0.413535
171 2 8.39469 7.17921 5.27267
46 4 4.95637 12.1434 1.18466
186 2 8.84971 10.1886 9.05402
59 4 10.5328 6.8039 5.9425
62 4 4.35066 10.7361 4.10427
64 4 6.98143 8.89284 8.27995
66 4 6.6434 11.0568 6.21235
94 2 10.7403 6.7205 8.82661
85 2 5.15582 7.46828 5.75516
98 2 8.26818 7.82969 7.79014
122 2 9.40147 10.7133 2.01373
123 2 7.85938 10.118 2.99401
124 2 9.50205 9.30557 3.40213
41 4 1.97455 10.2793 0.524231
25 4 0.663794 12.7142 7.57865
297 3 6.04291 8.04546 9.20466
298 3 3.18306 9.49408 8.34001
179 2 2.59713 10.5952 5.81017
180 2 2.41726 12.0161 4.45693
181 2 3.53825 12.2949 5.99909
182 2 9.62672 8.85479 6.9027
183 2 11.298 8.50532 7.5651
184 2 9.80533 8.16901 8.67473
23 4 0.563359 12.2074 2.4465
199 1 8.9552 10.2608 2.99911
169 2 8.97526 7.96418 0.697086
219 1 3.10627 11.5011 5.26391
220 1 10.2049 8.13123 7.59508
76 2 1.90707 11.8834 6.76657
258 3 4.2974 7.0159 1.44386
261 3 1.55891 11.6233 1.26455
287 3 11.4142 7.71136 4.93401
293 3 3.93948 8.94411 3.6019
294 3 4.39182 11.6082 2.64736
138 2 5.43948 7.04081 3.83357
304 3 6.5534 12.3742 7.369
299 3 4.46922 11.9872 9.12798
301 3 8.23546 11.0948 5.55927
302 3 5.6148 11.0169 5.03438
303 3 6.30915 9.67216 7.04787
97 2 7.59098 9.05667 0.0303107
39 4 3.25344 8.04455 2.35441
260 3 2.45563 9.07282 1.39579
15 4 11.6063 7.2555 10.3236
58 4 6.19163 6.72976 10.319
61 4 8.74036 7.63359 12.0436
63 4 7.07803 10.5306 17.8812
221 1 7.76522 10.195 9.48122
67 4 4.456 10.5914 16.534
364 2 12.186 7.39465 15.8129
365 2 9.02318 8.397 17.5526
314 4 9.87003 11.2153 16.5718
175 2 8.72819 7.40844 14.3092
176 2 8.91711 10.1094 12.1803
177 2 8.13637 9.33699 13.7897
178 2 7.04395 9.67505 12.3441
340 2 6.85144 6.81528 18.5279
215 1 9.80192 8.42374 18.343
188 2 5.89231 10.1782 10.2646
189 2 4.5843 8.95921 10.8698
190 2 4.8384 10.6424 11.8035
52 4 6.03707 12.7301 15.1195
218 1 8.09064 9.39919 12.6575
222 1 4.86848 10.0392 10.8113
187 2 7.73138 9.87558 10.6838
44 4 2.80122 9.16644 14.1312
268 3 1.08666 12.5853 12.5895
362 1 12.541 7.22538 16.9771
291 3 10.3662 7.64975 11.3666
292 3 7.5802 7.00757 11.1903
295 3 8.11711 11.3075 16.9706
286 3 4.99269 6.63256 11.3751
300 3 2.27592 10.9097 10.6131
305 3 3.71569 9.7873 15.3089
306 3 5.86277 9.77489 16.9827
307 3 4.79567 12.1443 15.9404
308 3 3.39206 10.5327 17.8798
65 4 3.55148 10.7467 9.64725
321 2 7.34483 11.7566 15.5481
153 2 4.55272 7.15815 16.7107
318 2 10.1426 9.53649 16.6793
267 3 2.30937 10.2741 13.0704
90 2 5.97969 12.2881 13.5114
168 2 10.3614 9.37563 18.377
185 2 7.29703 11.1904 9.33279
ITEM: TIMESTEP
100
ITEM: NUMBER OF ATOMS
371
ITEM: BOX BOUNDS xy xz yz pp pp pp
-8.8445925500000016e+00 1.7777500000000000e+01 -8.8445925500000016e+00
0.0000000000000000e+00 1.3020299999999999e+01 4.5889999999999997e-01
0.0000000000000000e+00 1.8640300000000000e+01 2.0540000000000000e-01
ITEM: ATOMS id type x y z
1 4 2.19205 1.04004 2.87198
2 2 3.81392 1.2685 3.33886
3 2 1.53505 2.53992 3.08443
4 3 2.13374 0.721731 1.30755
68 2 0.698591 0.657978 7.4234
7 4 0.621861 2.25877 6.68343
11 4 -0.22271 4.54571 2.43232
14 4 -0.919857 4.39705 8.09214
360 2 -3.07059 4.70219 1.66759
31 4 1.7433 6.15335 4.00893
32 4 4.49151 5.5857 0.625339
33 4 5.59707 4.42101 8.39468
35 4 4.38146 5.90815 5.78353
30 4 6.3226 3.12061 1.80014
70 2 0.135721 3.50262 1.15442
335 2 7.26536 0.358532 1.38963
102 2 2.19597 3.42231 5.04313
103 2 2.93232 1.95867 6.01929
104 2 2.53418 3.62531 6.99304
130 2 5.48156 1.17778 3.26124
131 2 4.53668 2.80328 3.60871
132 2 6.37068 2.6671 4.09209
324 2 2.37178 1.34202 8.61071
192 1 2.33866 2.914 6.04245
202 1 5.52839 2.28823 3.39215
223 3 -0.365166 2.29519 5.43681
225 3 -1.25849 3.69851 3.31275
226 3 -0.78518 6.07773 1.84712
227 3 0.273407 3.4145 7.7156
229 3 -1.47141 5.37253 6.84026
243 3 6.66118 1.81608 0.675108
244 3 1.11628 4.94225 3.33169
245 3 5.23025 4.3511 1.39339
325 1 2.32684 0.206535 8.44406
249 3 2.91851 5.88332 5.15342
250 3 4.98586 5.1767 7.06525
247 3 -0.364606 5.33977 9.24401
139 2 2.82098 5.2546 8.56793
246 3 4.44352 3.58375 9.05737
5 4 -1.33335 2.35603 4.19603
254 3 3.10451 5.00635 0.00102978
10 4 2.22173 1.34214 11.6796
17 4 0.412694 4.33819 15.4221
18 4 -0.257924 6.17877 12.7931
24 4 7.26747 1.47263 17.4615
26 4 4.65065 2.4875 10.4715
38 4 4.27412 6.34309 12.9267
28 4 4.35535 2.17334 16.0309
251 3 4.41337 3.47697 15.2226
140 2 1.6923 4.03718 9.44657
326 2 -0.349267 2.49092 18.161
37 4 2.44111 5.88673 17.4799
69 2 1.72768 0.360408 10.3
36 4 5.67277 4.39806 14.8392
73 2 -1.74453 5.58452 12.186
78 2 3.44308 2.58254 17.3598
110 2 0.259867 2.26639 10.4681
111 2 0.567903 3.27713 12.0723
112 2 -0.185103 1.5398 12.1775
113 2 2.13512 2.94406 14.8322
114 2 0.767843 2.60902 13.563
115 2 0.710828 1.81853 15.3434
253 3 1.60863 4.99172 16.2663
34 4 1.02804 6.27141 9.89259
141 2 3.00178 5.02605 10.4378
142 2 2.79281 4.84672 14.0765
143 2 3.14933 4.12983 12.4088
144 2 2.16996 5.61645 12.4687
195 1 0.543061 2.23346 11.5874
196 1 1.01893 2.75616 14.7334
205 1 2.32671 4.97003 9.56847
206 1 2.95417 5.06954 12.9926
224 3 2.4909 0.375797 12.9306
230 3 -1.00275 3.88548 16.0771
231 3 0.16108 5.52272 14.1209
237 3 4.73164 0.915388 9.87036
238 3 3.36136 2.55578 11.4064
239 3 3.68214 0.868173 15.2386
240 3 5.82825 1.7756 16.6379
241 3 5.94529 2.72494 11.4218
242 3 7.88157 1.46584 12.8699
27 4 8.60619 0.233318 13.4167
248 3 0.804291 6.4567 11.6481
334 1 -6.36392 10.525 5.52656
12 4 -4.4425 7.08338 4.22336
13 4 -0.430274 6.92514 0.517222
16 4 -2.27438 6.7118 6.78317
333 2 -5.50165 11.2485 5.48093
21 4 -3.34788 10.5035 7.121
194 1 -1.15895 8.71226 0.0902775
40 4 0.820998 9.57821 4.19903
42 4 2.00382 8.56194 7.94923
74 2 -4.58186 9.86538 6.06261
79 2 0.298151 6.94654 4.67978
80 2 -1.06887 7.92031 6.4588
344 2 0.368181 10.938 9.08979
84 2 0.358238 9.10457 5.92968
86 2 0.706531 9.59416 7.58438
87 2 2.54725 7.79626 6.54854
105 2 -4.63649 9.36171 3.23087
106 2 -3.89096 8.06315 2.01737
107 2 -2.86528 8.73996 3.55027
108 2 -0.0935988 8.68945 1.3842
77 2 -0.350774 12.5991 6.21774
128 2 -1.65937 11.7448 2.81374
129 2 -1.176 11.4328 0.92262
145 2 0.026011 8.2061 3.13017
146 2 -1.6199 9.39885 4.5517
147 2 -1.26954 7.60953 4.72412
346 1 -0.347123 11.8929 9.09587
149 2 -2.29889 11.602 5.07674
150 2 -1.01944 10.9353 6.3211
193 1 -3.90654 8.47194 3.05957
20 4 -2.87023 8.26858 9.12687
201 1 -1.16187 12.1647 1.76497
207 1 -0.839137 8.586 4.66023
208 1 -2.0024 11.5159 6.14519
228 3 -3.29439 6.81367 5.59837
233 3 -3.0091 6.7408 8.5248
234 3 -2.58069 9.31789 7.82293
235 3 -3.91723 11.4841 8.26071
370 3 -7.36598 12.6375 3.75416
257 3 2.21448 7.14166 2.90862
259 3 0.425153 10.9822 3.68389
345 2 -1.37893 11.8795 8.49832
309 4 -6.26013 12.4484 0.318546
322 2 -7.39918 12.4587 8.85527
311 2 -5.78175 10.4729 1.34984
312 2 -4.50339 11.8167 2.01664
313 1 -4.87936 11.2869 1.14094
262 3 1.49487 7.58923 8.94655
323 2 -6.07033 12.6395 7.40105
332 2 -6.85628 10.5302 6.54538
148 2 -2.18452 12.5248 6.82884
310 2 -4.02872 10.8315 0.56141
109 2 -2.00148 9.44 0.334964
331 2 -6.08568 9.44756 5.14283
6 4 -4.72934 12.3271 9.2735
8 4 -5.76952 12.4503 14.3118
22 4 -3.74511 10.0274 13.398
363 2 -4.50845 8.12252 17.3723
43 4 -1.54667 9.92039 11.1271
45 4 1.41338 10.959 11.9866
120 2 -2.45179 6.94834 13.7867
75 2 -3.1979 9.21683 14.8215
88 2 -1.90883 11.1495 10.0185
99 2 -6.52116 11.1264 10.6211
100 2 -5.02455 11.6874 11.5311
101 2 -5.01626 10.1125 10.4197
119 2 -1.0234 8.17092 13.5156
337 2 -2.10317 12.2096 18.4985
121 2 -2.26266 7.64302 12.0703
126 2 -3.9796 7.35869 13.4324
265 3 3.48398 7.82546 13.3788
151 2 3.02866 8.22317 16.9289
152 2 3.41201 6.94807 15.5827
154 2 1.17032 7.3995 14.6855
155 2 0.460827 9.16529 14.5675
156 2 1.45363 8.51394 16.184
191 1 -5.4429 11.1526 10.635
198 1 -1.74863 7.31979 13.0299
200 1 -4.53972 8.33418 13.7235
209 1 3.51791 7.23558 16.7161
210 1 1.32404 8.4873 15.0557
232 3 -4.52089 8.42974 10.0911
236 3 -4.70202 11.3962 13.9568
317 2 -4.07789 12.6747 18.3893
263 3 -1.58434 8.56442 10.3276
264 3 -2.71219 10.0734 12.2474
266 3 -0.0580522 10.1263 11.7117
71 2 -1.57327 7.48746 18.2027
315 3 -6.65406 12.0204 17.8234
316 3 -6.96473 11.6512 15.1147
319 2 -1.34942 11.7413 13.6017
320 2 1.04814 9.69935 18.5709
330 2 -0.219016 9.27474 17.755
336 2 -1.86438 12.0675 16.5616
125 2 -5.03242 8.27261 14.8676
338 2 -0.304145 12.1254 17.7467
339 1 -1.38749 12.4163 17.5959
127 2 -5.36486 8.67276 12.7531
347 2 -0.185863 12.7856 9.77391
255 3 1.24828 6.76504 18.254
212 1 8.67064 3.68368 8.61075
47 4 10.5849 2.2477 3.81589
50 4 10.2744 2.76007 8.7926
51 4 13.2102 2.13985 5.4663
55 4 11.8883 4.78284 2.1586
81 2 6.85661 3.39097 7.8309
57 4 12.3158 4.53257 7.16111
136 2 5.52848 4.83438 4.17983
89 2 16.4844 1.08761 3.16087
352 2 15.5856 1.79966 8.54296
93 2 13.4251 5.43233 7.98226
137 2 6.83948 6.15787 4.73351
133 2 7.64803 5.1892 1.99319
134 2 8.76579 3.78558 1.29839
135 2 8.42589 3.73165 3.07628
351 1 15.0296 0.603805 1.92549
170 2 9.07901 5.75878 3.94961
157 2 8.26554 2.6056 4.49571
158 2 9.1447 4.2576 4.88717
159 2 9.64243 2.74177 5.8782
161 2 8.58272 3.78169 7.46818
166 2 13.4133 4.23818 0.0874467
167 2 13.3456 3.04909 1.58994
49 4 14.0542 0.150618 7.96179
172 2 8.33567 5.63099 5.74126
203 1 7.98033 4.04162 2.057
357 2 10.9038 1.81951 1.1454
211 1 9.21276 3.12008 4.87005
354 1 14.5985 1.63515 9.20368
214 1 13.4011 4.19683 1.1922
329 2 14.8171 2.09907 0.292084
269 3 9.79209 0.999145 3.03939
271 3 9.87465 1.29745 8.08901
272 3 14.4405 1.96575 4.51806
273 3 11.7846 1.73175 4.78576
274 3 13.3858 0.87136 6.81013
280 3 11.0289 3.52148 2.78933
281 3 12.5818 5.83182 3.21341
282 3 10.9685 5.59155 0.866575
283 3 11.514 3.59351 8.08096
284 3 13.1363 3.53938 6.19173
288 3 11.2911 5.54709 6.52028
348 2 14.7993 1.75153 1.78392
359 1 10.7001 2.30878 0.0816231
353 2 13.8703 2.49646 9.18802
204 1 5.74767 6.04782 4.48399
371 3 12.7885 0.44637 0.178556
72 2 15.0686 3.48847 8.68762
350 2 14.8709 0.116752 3.03394
216 1 8.8946 6.27118 4.98738
162 2 8.91804 4.74286 9.09331
349 2 15.9638 0.206722 1.30172
160 2 7.85992 3.08062 9.19002
9 4 15.2366 2.62909 16.4729
48 4 12.3639 1.57249 17.6583
174 2 8.30245 5.53905 13.8919
53 4 9.86475 1.56632 15.7585
54 4 11.7836 1.95477 11.5601
60 4 11.6704 3.34456 14.192
82 2 6.54872 4.7712 16.2569
252 3 6.69618 3.70683 13.8525
91 2 13.159 1.66908 10.6195
92 2 11.2999 0.355279 11.5298
95 2 12.8531 3.30803 15.4421
96 2 11.7493 4.99398 13.8887
116 2 11.8925 5.0327 10.6775
117 2 12.4446 5.92725 12.2778
369 1 9.98755 5.3565 17.1767
285 3 6.43333 5.36174 9.442
256 3 5.19264 5.80706 14.0943
163 2 7.81297 4.4383 10.8186
164 2 9.3919 3.39234 11.3096
165 2 8.70765 4.88977 12.3899
366 2 9.76835 4.33827 17.6527
197 1 12.5092 5.89702 11.1474
213 1 8.41727 3.97168 11.682
368 2 8.98105 6.0369 17.0431
270 3 13.4524 2.82133 16.9036
275 3 15.2398 1.4872 15.2605
276 3 9.04591 0.422908 14.9068
277 3 11.269 0.963901 16.6463
278 3 8.62695 2.07971 16.9528
279 3 10.7766 2.67359 10.69
355 2 14.8116 1.37122 10.368
289 3 10.3207 2.9323 14.7793
290 3 12.2241 2.52195 12.9726
328 2 16.0936 0.745898 17.998
342 2 6.80937 5.17075 17.9495
343 1 6.22125 6.08809 17.763
173 2 10.0721 6.09272 13.9328
341 2 5.57844 6.13624 16.7822
29 4 7.15233 2.81905 12.4827
327 1 15.9567 1.89624 18.0419
367 2 10.54 5.20809 16.2085
56 4 10.9864 6.56635 18.1253
358 2 10.0382 2.43706 18.4501
361 2 13.4355 6.36362 16.9218
286 3 4.75935 6.39614 11.3479
217 1 8.94956 6.43949 13.7164
118 2 13.5477 5.95626 10.7341
356 2 11.5221 3.62926 18.5625
19 4 9.45854 11.2027 4.43603
296 3 5.94716 11.1705 0.250872
171 2 8.36855 7.21513 4.8287
46 4 4.9139 12.2652 1.15222
186 2 8.7128 10.2476 9.01452
59 4 10.4609 6.78066 5.96846
62 4 4.39745 10.8519 4.04046
64 4 7.03957 8.83919 8.29064
66 4 6.79998 11.2631 6.19494
94 2 11.0013 6.68329 8.91927
85 2 5.02256 7.52823 5.42203
98 2 8.22466 7.73315 7.55522
122 2 9.31595 10.2412 2.10996
123 2 8.07965 9.44694 3.24997
124 2 9.93985 9.01555 3.46277
41 4 2.1044 10.2487 0.475692
25 4 0.585258 12.6223 7.62496
297 3 5.85265 7.85392 9.12284
298 3 3.12468 9.56183 8.52615
179 2 2.89075 10.4724 5.97234
180 2 2.32044 11.8415 4.57822
181 2 3.69165 12.3345 5.96978
182 2 9.66741 8.80758 7.04796
183 2 11.2439 8.30345 7.89677
184 2 9.70463 7.62228 8.46632
23 4 0.602302 12.188 2.36868
199 1 9.15538 9.79983 3.14276
169 2 8.60405 7.77517 0.48469
219 1 3.14011 11.4377 5.33979
220 1 10.2011 7.94988 7.574
76 2 2.00965 11.8539 6.87666
258 3 4.45335 6.94014 1.45169
261 3 1.55858 11.5626 1.15683
287 3 11.4028 7.60817 4.76238
293 3 3.96144 9.01739 3.76782
294 3 4.29801 11.6144 2.63233
138 2 5.48505 6.75476 3.62033
304 3 6.65864 12.3933 7.43693
299 3 4.23212 11.9594 8.88514
301 3 8.2225 11.4206 5.45071
302 3 5.72189 11.1444 4.89464
303 3 6.73079 9.79756 7.05294
260 3 2.77862 9.20203 1.41459
39 4 3.41911 7.91711 2.28239
83 2 2.50374 9.17284 4.02793
15 4 11.6755 7.35356 10.3895
58 4 6.1257 6.7203 10.2202
61 4 8.78103 7.62426 12.1132
63 4 7.15873 10.5589 17.7987
221 1 7.72598 10.0365 9.56308
67 4 4.53407 10.6684 16.5122
364 2 12.0457 7.27973 15.8009
365 2 9.1266 8.16684 17.2344
314 4 9.88577 11.2536 16.7006
175 2 8.63855 7.33466 14.3514
176 2 9.19126 9.97988 12.1899
177 2 8.55674 9.12196 13.8102
178 2 7.32037 9.76486 12.4765
340 2 6.73776 7.07473 18.0576
215 1 9.70337 8.18632 18.2429
188 2 5.87631 10.023 10.4172
189 2 4.52517 8.81103 10.7974
190 2 4.60774 10.3651 11.8262
52 4 6.12508 12.7754 15.0228
218 1 8.36546 9.41002 12.6981
222 1 4.77755 9.86722 10.8542
187 2 7.94683 9.83123 10.7682
44 4 2.85384 9.09995 14.1159
268 3 1.14949 12.4277 12.4642
362 1 12.5396 7.16386 16.9348
291 3 10.2908 7.7335 11.4173
292 3 7.42634 7.25855 11.1863
295 3 8.24164 11.4668 16.7854
97 2 8.06029 9.27304 18.5211
300 3 2.24281 11.1387 10.4787
305 3 3.68941 9.76439 15.3824
306 3 5.97836 9.8537 16.8403
307 3 5.02299 12.0697 15.7976
308 3 3.48598 10.716 17.8894
65 4 3.48329 10.6414 9.64084
321 2 7.53389 11.8996 15.2589
153 2 4.58594 7.20392 17.0169
318 2 10.0453 9.56243 16.8273
267 3 2.34793 10.174 13.0737
90 2 5.93678 12.5179 13.3289
168 2 10.5107 9.05817 18.4341
185 2 6.92901 10.8819 9.39314
ITEM: TIMESTEP
200
ITEM: NUMBER OF ATOMS
371
ITEM: BOX BOUNDS xy xz yz pp pp pp
0.0000000000000000e+00 2.6257914899999999e+01 8.4804148999999995e+00
0.0000000000000000e+00 1.3020299999999999e+01 4.5889999999999997e-01
0.0000000000000000e+00 1.8640300000000000e+01 2.0540000000000000e-01
ITEM: ATOMS id type x y z
1 4 2.18238 1.03213 2.93526
2 2 3.86864 1.36319 3.02562
246 3 4.60629 3.55142 9.22691
4 3 1.96854 0.850099 1.37348
68 2 0.884606 0.759012 7.0879
250 3 4.99912 5.08935 6.96617
325 1 2.25344 0.300778 8.37481
245 3 5.31335 4.1553 1.28938
243 3 6.64453 1.87474 0.618493
202 1 5.53615 2.34943 3.46494
32 4 4.55364 5.55654 0.660549
33 4 5.60327 4.40083 8.39141
35 4 4.38948 5.93217 5.54952
30 4 6.29903 3.04657 1.74476
192 1 2.41084 2.90368 5.845
335 2 7.4484 0.36402 1.30073
324 2 2.3122 1.43997 8.59311
103 2 2.84326 1.86856 5.61947
104 2 2.90944 3.41333 6.68563
130 2 5.45874 1.24178 3.50027
131 2 4.53366 2.8757 3.62558
132 2 6.51739 2.74065 4.03954
212 1 8.90103 3.83312 8.60513
160 2 8.12437 3.2101 9.24425
50 4 10.4455 2.7196 8.9133
162 2 9.0883 4.90186 9.07827
216 1 8.77437 6.2903 5.02588
81 2 7.0376 3.52715 7.97749
136 2 5.58619 4.798 4.10998
137 2 6.8196 6.33163 4.47371
204 1 5.69734 6.05712 4.15717
133 2 7.57563 5.18355 2.29491
134 2 8.51821 3.85254 1.39527
135 2 8.34834 3.60098 3.29867
288 3 11.1686 5.47003 6.57387
170 2 9.28152 5.82047 4.12729
157 2 8.42402 2.43002 4.67289
282 3 10.9073 5.71258 0.784672
158 2 9.12667 4.29341 4.96787
280 3 10.9997 3.55093 2.88128
159 2 9.65911 2.75806 6.01627
161 2 8.55877 3.88774 7.54442
172 2 8.1775 5.51405 5.6684
203 1 7.85409 4.07375 2.2645
211 1 9.29557 3.10137 5.00469
55 4 11.8467 4.80087 2.13533
10 4 2.11763 1.27398 11.6716
165 2 8.2838 4.96083 12.3259
242 3 7.73792 1.35022 12.9196
24 4 7.15065 1.64326 17.6236
26 4 4.67948 2.38022 10.4487
241 3 5.87112 2.80785 11.534
28 4 4.37027 1.96018 16.0314
251 3 4.25855 3.37725 15.2378
240 3 5.75963 1.75211 16.831
239 3 3.75677 0.782893 15.2563
238 3 3.20758 2.56136 11.5108
69 2 1.71187 0.346573 10.2296
36 4 5.58191 4.3436 14.8415
237 3 4.77686 0.923517 9.87391
78 2 3.14927 2.24537 17.1605
224 3 2.29034 0.509499 13.0739
143 2 3.03636 4.06084 12.3326
174 2 7.63521 6.20352 13.6874
53 4 9.80676 1.55079 15.8123
82 2 6.2507 4.79321 16.3596
217 1 8.77381 6.50307 13.5899
286 3 4.96646 6.49208 11.4675
252 3 6.63217 3.56933 13.9691
358 2 10.1986 2.36551 18.3776
56 4 10.8408 6.53153 18.0203
367 2 10.3518 5.1908 15.8278
96 2 11.7471 4.88791 14.0612
29 4 7.00536 2.81401 12.5755
341 2 5.51319 6.21187 16.7939
173 2 9.50584 5.7094 13.3186
343 1 6.1057 6.16457 17.7953
342 2 7.00027 5.4037 17.8432
116 2 12.0348 5.03006 10.7533
117 2 12.6946 6.10353 12.1824
289 3 10.1847 2.88398 14.7682
369 1 9.95284 5.20328 16.8563
285 3 6.52689 5.36578 9.41731
278 3 8.60858 2.10617 16.8904
256 3 5.22357 5.73912 14.1274
366 2 10.072 4.22915 17.4303
163 2 7.54314 4.46295 10.7253
164 2 9.06048 3.49861 11.3206
368 2 8.91038 5.63436 16.9212
213 1 8.12371 4.05575 11.6169
197 1 12.704 5.90762 11.0832
317 2 4.76563 0.435555 18.5636
347 2 8.40927 0.18855 9.66724
334 1 11.173 10.5628 5.60496
12 4 12.9096 7.10895 4.31151
6 4 12.5228 12.4432 9.24466
331 2 11.2708 9.48906 5.3406
333 2 12.0607 11.2243 5.23668
21 4 13.997 10.4972 7.0578
310 2 13.1079 10.9794 0.105836
148 2 15.0531 12.7496 6.22998
332 2 10.8049 10.8197 6.60344
74 2 12.9558 9.85867 5.83075
323 2 11.0041 12.8385 7.27664
313 1 12.6164 11.4573 0.983718
312 2 13.3656 11.7419 1.83892
311 2 11.7578 10.6091 1.46032
322 2 9.85468 12.5311 8.85077
309 4 11.1192 12.4626 0.297912
105 2 12.7483 9.19182 3.24152
106 2 13.0574 7.71037 1.99437
184 2 9.38538 7.50208 8.64212
345 2 15.9712 11.8398 8.32531
77 2 16.7758 12.6852 6.43155
128 2 15.6353 11.9459 2.67764
199 1 9.23567 9.98157 3.17623
370 3 10.1929 12.5331 3.7763
235 3 13.2549 11.5075 8.08154
234 3 14.6747 9.18087 7.81779
208 1 15.1386 11.6033 6.00522
149 2 14.6373 11.2452 4.9698
201 1 16.2925 12.1947 1.7897
193 1 13.4038 8.3046 2.94019
19 4 9.56579 11.3174 4.50119
171 2 8.21645 7.27458 4.75972
186 2 8.81848 10.1362 8.947
59 4 10.4181 6.78602 5.96309
303 3 6.83674 9.67635 7.05219
64 4 7.06444 8.70833 8.25429
301 3 8.27827 11.4323 5.48457
94 2 11.0756 6.74354 8.90573
98 2 8.05429 7.5016 7.61366
138 2 5.42548 6.44943 3.08013
122 2 8.90274 10.4664 2.26746
123 2 8.49737 9.18408 3.52422
287 3 11.5304 7.7568 5.00298
124 2 10.2745 9.5392 3.08899
297 3 5.92675 7.92932 9.10337
182 2 9.48083 8.66707 6.98803
220 1 9.99682 7.84422 7.65056
183 2 11.0269 8.16986 7.89532
169 2 9.03585 7.95298 0.843938
85 2 5.15224 7.48612 5.31238
8 4 11.4491 12.553 14.3785
22 4 13.6246 10.0855 13.4914
363 2 12.5787 8.05144 17.8596
338 2 17.0711 12.5325 17.6525
127 2 12.0078 8.62671 12.9162
339 1 15.9466 12.58 17.5701
75 2 14.3027 9.24823 14.9129
88 2 15.6286 11.3375 10.2608
99 2 10.799 11.3835 10.3604
100 2 12.184 11.5312 11.7036
101 2 12.3248 10.0983 10.3514
125 2 12.1442 8.47677 14.9291
337 2 15.381 12.1054 18.4731
336 2 15.5229 12.2574 16.5358
126 2 13.4534 7.51868 13.9331
319 2 15.9772 11.6415 13.3241
316 3 10.3356 11.7133 15.134
315 3 10.7217 12.0224 17.8198
264 3 14.7682 9.99141 12.3917
187 2 7.98481 9.78555 10.6736
236 3 12.7135 11.4698 13.7392
191 1 11.998 11.2949 10.6093
232 3 12.6862 8.44925 10.1196
200 1 12.7955 8.46388 13.9893
15 4 11.6166 7.32524 10.442
58 4 6.08857 6.69763 10.2728
97 2 8.09047 9.27642 18.5046
61 4 8.74451 7.69749 12.069
221 1 7.79932 9.99374 9.53197
318 2 10.0213 9.51572 16.7124
364 2 12.2702 7.46144 16.0392
365 2 9.11898 8.25247 17.552
314 4 9.88334 11.2725 16.6735
175 2 9.06252 6.96156 14.4958
176 2 9.2143 10.2703 12.414
177 2 8.3713 9.22895 13.7663
178 2 7.36474 9.8494 12.2513
340 2 6.38471 7.27699 18.1773
168 2 10.5673 9.2542 18.3135
295 3 8.28203 11.5164 16.8775
292 3 7.53724 7.1762 11.1898
291 3 10.286 7.61191 11.2034
362 1 12.3946 7.11289 17.1206
215 1 9.85905 8.38395 18.3685
218 1 8.37183 9.55596 12.6392
27 4 17.1398 12.9196 13.4667
349 2 16.101 0.20217 1.47362
47 4 10.5425 2.26573 3.81246
350 2 14.9954 0.270626 3.0228
51 4 13.2362 2.10701 5.61153
223 3 16.9591 2.45223 5.42253
72 2 15.0843 3.62797 8.81141
57 4 12.2849 4.48132 7.21487
371 3 12.94 0.311474 0.220078
89 2 16.4696 1.11385 3.2542
352 2 15.7085 1.97622 8.83901
93 2 13.2792 5.5221 8.05099
353 2 13.8453 2.43091 8.98288
359 1 10.8713 2.37752 0.162646
348 2 15.0189 1.72085 1.65318
284 3 13.1928 3.60065 6.23263
351 1 15.1402 0.585914 1.92014
283 3 11.6284 3.64074 8.31342
102 2 19.4399 3.54919 4.9491
274 3 13.3888 1.04164 6.86183
273 3 11.8446 1.81015 4.71689
272 3 14.4384 2.00331 4.50528
166 2 13.4423 4.30232 0.0774438
167 2 13.099 2.9922 1.34537
49 4 14.1882 0.26734 8.03298
271 3 10.095 1.25847 8.06999
269 3 10.0581 0.946599 2.86927
357 2 11.1178 2.0326 1.20866
329 2 15.0719 1.98492 0.294348
226 3 16.5925 5.98865 1.87156
214 1 13.2491 4.09553 1.19271
3 2 18.6775 2.39201 3.34265
70 2 17.8528 3.62567 1.32067
5 4 15.9256 2.40661 4.23816
7 4 17.9888 2.45413 6.57782
139 2 20.3664 5.37306 8.86879
225 3 16.0992 3.66257 3.30218
11 4 17.086 4.5714 2.50597
249 3 20.1814 6.02104 5.07723
14 4 16.4796 4.47794 8.31249
360 2 14.1089 4.55464 1.84809
244 3 18.5915 4.55762 3.2935
31 4 19.1785 6.15603 3.86161
229 3 16.0513 5.39723 6.95725
227 3 17.568 3.26425 7.89289
281 3 12.5526 5.75991 3.25088