ITEM: TIMESTEP
0
ITEM: NUMBER OF ATOMS
371
ITEM: BOX BOUNDS xy xz yz pp pp pp
-8.8510000000000009e+00 1.7777500000000000e+01 -8.8510000000000009e+00
0.0000000000000000e+00 1.3020299999999999e+01 4.5889999999999997e-01
0.0000000000000000e+00 1.8640300000000000e+01 2.0540000000000000e-01
ITEM: ATOMS id type x y z
1 4 2.16028 0.974246 2.86266
2 2 3.78114 1.26403 3.14187
3 2 1.43419 2.40919 3.2814
4 3 2.09934 0.739384 1.26194
68 2 0.721133 0.692995 7.33902
7 4 0.57787 2.26284 6.49041
11 4 -0.235755 4.50912 2.58989
14 4 -0.867463 4.4822 8.02494
360 2 -2.95021 4.75463 1.61866
31 4 1.77081 6.1078 4.25093
32 4 4.50321 5.41719 0.61322
33 4 5.49325 4.41093 8.46199
35 4 4.38964 5.80101 5.71341
30 4 6.26043 2.98877 1.81806
70 2 0.35361 3.60717 1.28986
335 2 7.23322 0.490605 1.34655
102 2 2.43252 3.31108 5.08973
103 2 2.6789 1.5611 5.94108
104 2 2.88147 3.27147 6.95824
130 2 5.54307 0.894693 3.12578
131 2 4.84918 2.46864 3.98753
132 2 6.71201 2.14342 3.87099
324 2 2.44408 1.37276 8.53536
192 1 2.37992 2.68579 6.05427
202 1 5.67824 1.96208 3.36635
223 3 -0.404322 2.19124 5.28266
225 3 -1.33255 3.70923 3.36192
226 3 -0.945213 5.80326 1.75076
227 3 0.132547 3.35468 7.57988
229 3 -1.33995 5.45972 6.69084
243 3 6.51005 1.89435 0.661003
244 3 1.13452 4.84271 3.449
245 3 5.10557 4.26173 1.59988
325 1 2.34217 0.251874 8.35518
249 3 2.92372 5.78347 5.22398
250 3 4.83326 5.15527 7.15609
247 3 -0.241006 5.35176 9.22352
139 2 3.08825 5.40226 8.69434
10 4 2.17356 1.30775 11.6326
17 4 0.405296 4.31477 15.3517
18 4 -0.488708 6.11206 12.7497
24 4 7.30956 1.49623 17.4926
26 4 4.75812 2.40808 10.5511
38 4 4.33707 6.38309 12.962
28 4 4.51785 2.08646 16.1608
251 3 4.58765 3.4613 15.3236
246 3 4.53275 3.48454 9.34018
326 2 -0.428238 2.49902 18.0906
37 4 2.41286 5.76833 17.4656
69 2 1.69269 0.465897 10.2061
36 4 5.65153 4.42193 14.7816
73 2 -1.99344 5.67261 12.0906
78 2 3.33103 2.50298 17.2985
110 2 0.226101 1.68527 10.5008
111 2 0.37577 3.19492 11.6308
112 2 -0.219069 1.55548 12.3534
113 2 2.24591 3.0183 14.8098
114 2 0.836681 2.53221 13.5249
115 2 0.758095 1.97341 15.3549
253 3 1.48343 4.81125 16.4826
34 4 0.993248 6.13945 9.69448
141 2 3.00163 4.89603 10.5246
142 2 2.62909 5.08223 13.8869
143 2 3.11426 4.09572 12.2786
144 2 1.94566 5.67266 12.1758
195 1 0.451275 2.10573 11.616
196 1 1.12913 2.78645 14.6619
205 1 2.43664 4.92568 9.52101
206 1 2.91212 5.14961 12.7836
224 3 2.43996 0.238097 12.8989
230 3 -1.12673 3.88321 16.1572
231 3 -0.0772166 5.21702 13.976
237 3 4.85752 0.875686 9.9071
238 3 3.28984 2.4245 11.4853
239 3 3.75459 0.855352 15.2973
240 3 5.90127 1.59494 16.7229
241 3 5.99184 2.63445 11.4565
242 3 7.96286 1.47245 12.6895
254 3 3.56868 5.11896 18.3429
248 3 0.593787 6.39116 11.569
118 2 -3.83447 6.14211 11.4375
140 2 2.04511 3.92618 9.32749
334 1 -6.24487 10.5781 5.53055
12 4 -4.19989 7.18253 4.14664
13 4 -0.358787 6.89406 0.537777
16 4 -2.21357 6.81612 6.75602
333 2 -5.38529 11.21 5.33509
21 4 -3.2912 10.3914 7.03503
331 2 -6.15443 9.35836 5.2534
40 4 0.826787 9.49828 4.14684
42 4 1.9619 8.65584 7.98344
74 2 -4.48033 9.76223 5.99756
79 2 0.546771 6.93905 5.11265
80 2 -1.24204 8.21361 6.95837
344 2 0.350264 10.9322 8.95473
84 2 0.086497 9.00225 5.78979
86 2 0.659682 9.61807 7.72566
87 2 2.09603 8.25241 6.36893
105 2 -4.75622 9.28345 3.17199
106 2 -3.26305 8.31162 2.33284
107 2 -2.87498 9.40149 3.81203
108 2 -0.122552 8.61887 1.25376
77 2 -0.845363 12.8743 6.66114
128 2 -1.75654 11.9688 2.77098
129 2 -1.24577 11.3595 1.11795
145 2 0.0319465 8.15984 2.9755
146 2 -1.57503 8.97246 4.19453
147 2 -1.00589 7.20935 4.4735
346 1 -0.260294 11.9018 8.99644
149 2 -2.57963 11.0345 4.954
150 2 -0.948049 11.2316 6.05831
193 1 -3.67221 8.75952 3.33818
20 4 -2.8206 8.15838 9.16445
201 1 -1.25081 12.2076 1.82199
207 1 -0.664402 8.26357 4.29831
208 1 -2.07125 11.4486 6.00443
228 3 -3.19147 6.98371 5.42738
233 3 -3.10315 6.58471 8.43927
234 3 -2.47878 9.22046 7.83848
235 3 -4.01037 11.5286 8.1682
370 3 -7.25505 12.5484 3.73247
257 3 2.22305 7.11891 3.17408
259 3 0.558584 10.9381 3.62331
345 2 -1.30786 11.785 8.4221
309 4 -6.29002 12.4797 0.208367
322 2 -7.47321 12.6479 8.79588
311 2 -6.0059 10.3333 0.953843
312 2 -5.19241 11.5863 2.26943
313 1 -5.13913 11.1544 1.18118
262 3 1.51879 7.36636 8.77042
323 2 -6.28888 12.7127 7.3019
332 2 -6.71291 10.7409 6.51293
148 2 -2.45676 12.4906 6.27586
310 2 -4.13209 10.8093 0.838028
6 4 -4.7212 12.3904 9.25024
109 2 -2.06919 9.14157 0.302866
83 2 2.44513 9.16326 4.44954
8 4 -5.77665 12.4391 14.4293
22 4 -3.73363 10.0631 13.4631
363 2 -4.75683 8.16116 17.5513
43 4 -1.50254 10.0557 11.1342
45 4 1.39422 10.8663 11.9179
120 2 -2.45183 7.15378 14.0097
75 2 -3.07562 8.9637 14.6953
88 2 -1.82797 11.3468 10.0655
99 2 -6.3739 11.5567 10.6088
100 2 -4.6685 11.6032 11.4889
101 2 -4.98811 10.0471 10.4197
119 2 -0.995168 8.27268 13.3181
337 2 -1.85311 12.0134 18.271
121 2 -2.52133 7.69814 12.2429
126 2 -4.14777 7.44556 13.414
265 3 3.52529 7.72403 13.4085
151 2 2.86414 8.13387 16.8831
152 2 3.09097 6.83405 15.4347
154 2 1.22523 7.43586 14.5852
155 2 0.391333 9.18329 14.124
156 2 0.940249 8.76218 15.8814
191 1 -5.18702 11.2245 10.5743
198 1 -1.81652 7.38584 13.023
200 1 -4.63054 8.3964 13.694
209 1 3.38061 7.14136 16.5117
210 1 1.13695 8.55456 14.7966
232 3 -4.48994 8.35949 10.0356
236 3 -4.63573 11.3174 13.9844
317 2 -4.09455 12.698 18.6019
263 3 -1.68299 8.70786 10.2958
264 3 -2.60457 10.139 12.3498
266 3 -0.062345 10.3579 11.8302
71 2 -1.493 7.33208 18.0515
315 3 -6.61663 11.9418 17.7087
316 3 -7.11533 11.7931 15.1027
319 2 -1.39328 11.725 13.2613
194 1 -0.777856 8.75338 18.5575
330 2 -0.251836 9.08738 17.5744
336 2 -1.77563 12.1808 16.3526
320 2 0.833796 9.92919 18.589
338 2 -0.219748 12.2561 17.4245
339 1 -1.30508 12.4632 17.3927
127 2 -5.37022 8.73121 12.7935
347 2 -0.175185 12.5301 9.99266
255 3 1.37029 6.66204 18.3665
361 2 -3.80148 6.67322 17.1124
27 4 -0.22081 12.9315 13.3647
125 2 -5.12976 8.30156 14.8121
212 1 8.48563 3.51585 8.51869
47 4 10.529 2.2177 3.83257
50 4 10.1817 2.74107 8.81463
51 4 13.1517 1.94659 5.59069
55 4 12.0879 4.80289 2.12865
81 2 6.64967 3.3289 7.79246
57 4 12.1852 4.4109 7.07492
136 2 5.55793 5.14267 3.88065
89 2 16.4792 1.03097 3.10305
352 2 15.707 1.9473 8.59316
93 2 13.4511 5.28024 7.80761
137 2 6.94665 6.16712 4.75304
133 2 7.61062 4.96628 2.1859
134 2 8.61391 3.7697 1.14056
135 2 8.51392 3.51374 2.98081
351 1 15.0722 0.538631 1.82454
170 2 9.10568 5.80799 4.08278
157 2 8.30595 2.3789 4.82507
158 2 9.13932 4.08239 5.01235
159 2 9.71012 2.49269 5.98482
161 2 8.39168 3.59094 7.40711
166 2 13.1819 3.55199 0.480647
167 2 13.8013 2.92815 2.17386
49 4 14.1302 0.256135 8.0641
172 2 8.43899 5.24241 5.74343
203 1 7.98918 3.90194 2.0535
357 2 10.9969 1.80919 1.24046
211 1 9.24071 2.87517 4.98811
354 1 14.7136 1.77587 9.17895
214 1 13.5831 3.84709 1.54528
329 2 14.6681 1.96303 0.227608
269 3 9.74199 0.895467 3.05511
271 3 9.94747 1.32033 8.21374
272 3 14.4092 1.81409 4.67697
273 3 11.7482 1.78237 4.70367
274 3 13.0701 0.828019 7.05249
280 3 11.1257 3.60891 2.81852
281 3 12.5416 6.01025 3.11332
282 3 11.214 5.68754 0.666696
283 3 11.2847 3.56053 8.09684
284 3 13.1316 3.45047 6.21329
288 3 11.2054 5.4901 6.42762
348 2 15.0301 1.7195 1.52862
359 1 10.6907 2.25812 0.234182
353 2 13.9414 2.63208 9.09725
204 1 5.77508 6.15775 4.46673
371 3 12.6823 0.309788 0.121328
72 2 15.0618 3.65807 8.63055
350 2 14.799 0.380443 2.96734
216 1 8.93535 6.09827 5.10832
162 2 8.61945 4.49735 9.11609
349 2 16.1192 0.130764 1.62505
5 4 15.8778 2.27296 4.15709
160 2 7.75361 2.72946 9.04581
356 2 10.9384 3.37912 0.248381
9 4 15.204 2.64463 16.4982
48 4 12.2958 1.54667 17.7442
174 2 8.23418 5.66539 13.5566
53 4 9.82592 1.63818 15.6969
54 4 11.8963 1.9766 11.5215
60 4 11.8265 3.25675 14.2386
82 2 6.42585 4.96826 16.2569
252 3 6.73742 3.61672 13.8268
91 2 13.1619 1.73702 10.434
92 2 11.432 0.411909 11.7954
95 2 12.9747 2.92226 15.4898
96 2 12.0613 4.94334 14.1164
116 2 12.3298 5.08828 10.2974
117 2 11.8714 5.4959 12.1534
369 1 9.86676 5.46675 17.2116
217 1 9.02195 6.50238 13.6101
256 3 5.29646 5.84048 14.1456
163 2 7.65914 4.5193 10.783
164 2 9.39421 3.5725 11.235
165 2 8.69629 5.04756 12.2995
366 2 9.63518 4.41882 17.4628
197 1 12.4028 5.8374 11.1892
213 1 8.38411 4.14224 11.5776
368 2 8.88954 6.1903 17.4389
270 3 13.4313 2.84587 17
275 3 15.2126 1.4174 15.253
276 3 9.02337 0.371811 14.8761
277 3 11.1808 1.04392 16.6832
278 3 8.57078 2.21128 16.8532
279 3 10.7846 2.71731 10.7176
355 2 14.8878 1.28308 10.1991
289 3 10.3707 2.95106 14.762
290 3 12.4327 2.65615 12.897
328 2 16.1459 0.852271 18.0754
342 2 6.91386 5.00203 17.9208
343 1 6.3055 5.97465 17.963
173 2 10.131 6.11256 13.7724
341 2 5.73129 6.38289 17.0213
29 4 7.20951 2.95912 12.4772
327 1 15.9221 1.92403 18.0405
367 2 10.2886 5.68049 16.1074
56 4 11.0181 6.56239 18.0678
358 2 10.0519 2.22796 18.5377
285 3 6.33469 5.48978 9.33824
19 4 9.50107 11.3125 4.53375
296 3 5.86991 11.1748 0.413535
171 2 8.39469 7.17921 5.27267
46 4 4.95637 12.1434 1.18466
186 2 8.84971 10.1886 9.05402
59 4 10.5328 6.8039 5.9425
62 4 4.35066 10.7361 4.10427
64 4 6.98143 8.89284 8.27995
66 4 6.6434 11.0568 6.21235
94 2 10.7403 6.7205 8.82661
85 2 5.15582 7.46828 5.75516
98 2 8.26818 7.82969 7.79014
122 2 9.40147 10.7133 2.01373
123 2 7.85938 10.118 2.99401
124 2 9.50205 9.30557 3.40213
41 4 1.97455 10.2793 0.524231
25 4 0.663794 12.7142 7.57865
297 3 6.04291 8.04546 9.20466
298 3 3.18306 9.49408 8.34001
179 2 2.59713 10.5952 5.81017
180 2 2.41726 12.0161 4.45693
181 2 3.53825 12.2949 5.99909
182 2 9.62672 8.85479 6.9027
183 2 11.298 8.50532 7.5651
184 2 9.80533 8.16901 8.67473
23 4 0.563359 12.2074 2.4465
199 1 8.9552 10.2608 2.99911
169 2 8.97526 7.96418 0.697086
219 1 3.10627 11.5011 5.26391
220 1 10.2049 8.13123 7.59508
76 2 1.90707 11.8834 6.76657
258 3 4.2974 7.0159 1.44386
261 3 1.55891 11.6233 1.26455
287 3 11.4142 7.71136 4.93401
293 3 3.93948 8.94411 3.6019
294 3 4.39182 11.6082 2.64736
138 2 5.43948 7.04081 3.83357
304 3 6.5534 12.3742 7.369
299 3 4.46922 11.9872 9.12798
301 3 8.23546 11.0948 5.55927
302 3 5.6148 11.0169 5.03438
303 3 6.30915 9.67216 7.04787
97 2 7.59098 9.05667 0.0303107
39 4 3.25344 8.04455 2.35441
260 3 2.45563 9.07282 1.39579
15 4 11.6063 7.2555 10.3236
58 4 6.19163 6.72976 10.319
61 4 8.74036 7.63359 12.0436
63 4 7.07803 10.5306 17.8812
221 1 7.76522 10.195 9.48122
67 4 4.456 10.5914 16.534
364 2 12.186 7.39465 15.8129
365 2 9.02318 8.397 17.5526
314 4 9.87003 11.2153 16.5718
175 2 8.72819 7.40844 14.3092
176 2 8.91711 10.1094 12.1803
177 2 8.13637 9.33699 13.7897
178 2 7.04395 9.67505 12.3441
340 2 6.85144 6.81528 18.5279
215 1 9.80192 8.42374 18.343
188 2 5.89231 10.1782 10.2646
189 2 4.5843 8.95921 10.8698
190 2 4.8384 10.6424 11.8035
52 4 6.03707 12.7301 15.1195
218 1 8.09064 9.39919 12.6575
222 1 4.86848 10.0392 10.8113
187 2 7.73138 9.87558 10.6838
44 4 2.80122 9.16644 14.1312
268 3 1.08666 12.5853 12.5895
362 1 12.541 7.22538 16.9771
291 3 10.3662 7.64975 11.3666
292 3 7.5802 7.00757 11.1903
295 3 8.11711 11.3075 16.9706
286 3 4.99269 6.63256 11.3751
300 3 2.27592 10.9097 10.6131
305 3 3.71569 9.7873 15.3089
306 3 5.86277 9.77489 16.9827
307 3 4.79567 12.1443 15.9404
308 3 3.39206 10.5327 17.8798
65 4 3.55148 10.7467 9.64725
321 2 7.34483 11.7566 15.5481
153 2 4.55272 7.15815 16.7107
318 2 10.1426 9.53649 16.6793
267 3 2.30937 10.2741 13.0704
90 2 5.97969 12.2881 13.5114
168 2 10.3614 9.37563 18.377
185 2 7.29703 11.1904 9.33279
ITEM: TIMESTEP
100
ITEM: NUMBER OF ATOMS
371
ITEM: BOX BOUNDS xy xz yz pp pp pp
-8.8510000000000009e+00 1.7786820150000000e+01 -8.8510000000000009e+00
0.0000000000000000e+00 1.3020299999999999e+01 4.6822015000000050e-01
0.0000000000000000e+00 1.8640300000000000e+01 2.0540000000000000e-01
ITEM: ATOMS id type x y z
1 4 2.19298 1.04004 2.87198
2 2 3.81497 1.2685 3.33886
3 2 1.53534 2.53992 3.08443
4 3 2.13404 0.721731 1.30755
68 2 0.702014 0.657978 7.4234
7 4 0.62411 2.25877 6.68343
11 4 -0.223754 4.54571 2.43232
14 4 -0.917965 4.39705 8.09214
360 2 -3.07209 4.70219 1.66759
31 4 1.74225 6.15335 4.00893
32 4 4.48903 5.5857 0.625339
33 4 5.5991 4.42101 8.39468
35 4 4.38143 5.90815 5.78353
30 4 6.32195 3.12061 1.80014
70 2 0.134553 3.50262 1.15442
335 2 7.26588 0.358532 1.38963
102 2 2.19681 3.42231 5.04313
103 2 2.93438 1.95867 6.01929
104 2 2.5359 3.62531 6.99304
130 2 5.48262 1.17778 3.26124
131 2 4.5371 2.80328 3.60871
132 2 6.37141 2.6671 4.09209
324 2 2.37546 1.34202 8.61071
192 1 2.34026 2.914 6.04245
202 1 5.52896 2.28823 3.39215
223 3 -0.363565 2.29519 5.43681
225 3 -1.25867 3.69851 3.31275
226 3 -0.787286 6.07773 1.84712
227 3 0.275601 3.4145 7.7156
229 3 -1.47064 5.37253 6.84026
243 3 6.66061 1.81608 0.675108
244 3 1.11549 4.94225 3.33169
245 3 5.22878 4.3511 1.39339
325 1 2.33101 0.206535 8.44406
249 3 2.91817 5.88332 5.15342
250 3 4.98685 5.1767 7.06525
247 3 -0.362603 5.33977 9.24401
139 2 2.82269 5.2546 8.56793
246 3 4.44631 3.58375 9.05737
5 4 -1.3324 2.35603 4.19603
254 3 3.102 5.00635 0.00102978
10 4 2.22696 1.34214 11.6796
17 4 0.418321 4.33819 15.4221
18 4 -0.254546 6.17877 12.7931
24 4 7.27556 1.47263 17.4615
26 4 4.65469 2.4875 10.4715
38 4 4.27748 6.34309 12.9267
28 4 4.36237 2.17334 16.0309
251 3 4.41932 3.47697 15.2226
140 2 1.69505 4.03718 9.44657
326 2 -0.341332 2.49092 18.161
37 4 2.44701 5.88673 17.4799
69 2 1.7327 0.360408 10.3
36 4 5.67807 4.39806 14.8392
73 2 -1.74116 5.58452 12.186
78 2 3.45057 2.58254 17.3598
110 2 0.264025 2.26639 10.4681
111 2 0.572368 3.27713 12.0723
112 2 -0.179717 1.5398 12.1775
113 2 2.14114 2.94406 14.8322
114 2 0.773394 2.60902 13.563
115 2 0.717675 1.81853 15.3434
253 3 1.61436 4.99172 16.2663
34 4 1.0299 6.27141 9.89259
141 2 3.00454 5.02605 10.4378
142 2 2.79751 4.84672 14.0765
143 2 3.15354 4.12983 12.4088
144 2 2.17345 5.61645 12.4687
195 1 0.547802 2.23346 11.5874
196 1 1.025 2.75616 14.7334
205 1 2.32906 4.97003 9.56847
206 1 2.95821 5.06954 12.9926
224 3 2.49725 0.375797 12.9306
230 3 -0.996566 3.88548 16.0771
231 3 0.165457 5.52272 14.1209
237 3 4.73617 0.915388 9.87036
238 3 3.36585 2.55578 11.4064
239 3 3.68941 0.868173 15.2386
240 3 5.83577 1.7756 16.6379
241 3 5.9497 2.72494 11.4218
242 3 7.88734 1.46584 12.8699
27 4 8.61285 0.233318 13.4167
248 3 0.806951 6.4567 11.6481
334 1 -6.36639 10.525 5.52656
12 4 -4.4439 7.08338 4.22336
13 4 -0.433475 6.92514 0.517222
16 4 -2.27431 6.7118 6.78317
333 2 -5.50451 11.2485 5.48093
21 4 -3.34953 10.5035 7.121
194 1 -1.16326 8.71226 0.0902775
40 4 0.818331 9.57821 4.19903
42 4 2.00356 8.56194 7.94923
74 2 -4.58373 9.86538 6.06261
79 2 0.297043 6.94654 4.67978
80 2 -1.06957 7.92031 6.4588
344 2 0.367307 10.938 9.08979
84 2 0.356684 9.10457 5.92968
86 2 0.705568 9.59416 7.58438
87 2 2.54666 7.79626 6.54854
105 2 -4.63953 9.36171 3.23087
106 2 -3.89398 8.06315 2.01737
107 2 -2.86785 8.73996 3.55027
108 2 -0.0972438 8.68945 1.3842
77 2 -0.353931 12.5991 6.21774
128 2 -1.66382 11.7448 2.81374
129 2 -1.18125 11.4328 0.92262
145 2 0.0234903 8.2061 3.13017
146 2 -1.6223 9.39885 4.5517
147 2 -1.27095 7.60953 4.72412
346 1 -0.348472 11.8929 9.09587
149 2 -2.30213 11.602 5.07674
150 2 -1.02171 10.9353 6.3211
193 1 -3.90923 8.47194 3.05957
20 4 -2.86975 8.26858 9.12687
201 1 -1.16706 12.1647 1.76497
207 1 -0.841074 8.586 4.66023
208 1 -2.00505 11.5159 6.14519
228 3 -3.29497 6.81367 5.59837
233 3 -3.00816 6.7408 8.5248
234 3 -2.58139 9.31789 7.82293
235 3 -3.91879 11.4841 8.26071
370 3 -7.3704 12.6375 3.75416
257 3 2.21238 7.14166 2.90862
259 3 0.421524 10.9822 3.68389
345 2 -1.38057 11.8795 8.49832
309 4 -6.2662 12.4484 0.318546
322 2 -7.40093 12.4587 8.85527
311 2 -5.7863 10.4729 1.34984
312 2 -4.50828 11.8167 2.01664
313 1 -4.88443 11.2869 1.14094
262 3 1.4956 7.58923 8.94655
323 2 -6.07291 12.6395 7.40105
332 2 -6.85823 10.5302 6.54538
148 2 -2.18733 12.5248 6.82884
310 2 -4.03385 10.8315 0.56141
109 2 -2.00603 9.44 0.334964
331 2 -6.08781 9.44756 5.14283
6 4 -4.73082 12.3271 9.2735
8 4 -5.76851 12.4503 14.3118
22 4 -3.74336 10.0274 13.398
363 2 -4.50373 8.12252 17.3723
43 4 -1.546 9.92039 11.1271
45 4 1.41396 10.959 11.9866
120 2 -2.44829 6.94834 13.7867
75 2 -3.19501 9.21683 14.8215
88 2 -1.90934 11.1495 10.0185
99 2 -6.52136 11.1264 10.6211
100 2 -5.02456 11.6874 11.5311
101 2 -5.01605 10.1125 10.4197
119 2 -1.02066 8.17092 13.5156
337 2 -2.09992 12.2096 18.4985
121 2 -2.26038 7.64302 12.0703
126 2 -3.97649 7.35869 13.4324
265 3 3.48683 7.82546 13.3788
151 2 3.03311 8.22317 16.9289
152 2 3.41641 6.94807 15.5827
154 2 1.17404 7.3995 14.6855
155 2 0.463608 9.16529 14.5675
156 2 1.45756 8.51394 16.184
191 1 -5.4431 11.1526 10.635
198 1 -1.74571 7.31979 13.0299
200 1 -4.53695 8.33418 13.7235
209 1 3.52275 7.23558 16.7161
210 1 1.32741 8.4873 15.0557
232 3 -4.52001 8.42974 10.0911
236 3 -4.70066 11.3962 13.9568
317 2 -4.07493 12.6747 18.3893
263 3 -1.58341 8.56442 10.3276
264 3 -2.71104 10.0734 12.2474
266 3 -0.057195 10.1263 11.7117
71 2 -1.56781 7.48746 18.2027
315 3 -6.65106 12.0204 17.8234
316 3 -6.96292 11.6512 15.1147
319 2 -1.34841 11.7413 13.6017
320 2 1.05268 9.69935 18.5709
330 2 -0.214678 9.27474 17.755
336 2 -1.86204 12.0675 16.5616
125 2 -5.02904 8.27261 14.8676
338 2 -0.301237 12.1254 17.7467
339 1 -1.38481 12.4163 17.5959
127 2 -5.36274 8.67276 12.7531
347 2 -0.187315 12.7856 9.77391
255 3 1.25412 6.76504 18.254
212 1 8.67316 3.68368 8.61075
47 4 10.5857 2.2477 3.81589
50 4 10.2775 2.76007 8.7926
51 4 13.2119 2.13985 5.4663
55 4 11.887 4.78284 2.1586
81 2 6.85888 3.39097 7.8309
57 4 12.3172 4.53257 7.16111
136 2 5.52818 4.83438 4.17983
89 2 16.4855 1.08761 3.16087
352 2 15.589 1.79966 8.54296
93 2 13.4265 5.43233 7.98226
137 2 6.83879 6.15787 4.73351
133 2 7.64645 5.1892 1.99319
134 2 8.76456 3.78558 1.29839
135 2 8.42558 3.73165 3.07628
351 1 15.0303 0.603805 1.92549
170 2 9.07813 5.75878 3.94961
157 2 8.26651 2.6056 4.49571
158 2 9.14504 4.2576 4.88717
159 2 9.64403 2.74177 5.8782
161 2 8.58461 3.78169 7.46818
166 2 13.4112 4.23818 0.0874467
167 2 13.3449 3.04909 1.58994
49 4 14.0581 0.150618 7.96179
172 2 8.33576 5.63099 5.74126
203 1 7.97935 4.04162 2.057
357 2 10.9034 1.81951 1.1454
211 1 9.21367 3.12008 4.87005
354 1 14.6023 1.63515 9.20368
214 1 13.3996 4.19683 1.1922
329 2 14.8162 2.09907 0.292084
269 3 9.79313 0.999145 3.03939
271 3 9.87809 1.29745 8.08901
272 3 14.4418 1.96575 4.51806
273 3 11.7861 1.73175 4.78576
274 3 13.3888 0.87136 6.81013
280 3 11.0285 3.52148 2.78933
281 3 12.5805 5.83182 3.21341
282 3 10.9661 5.59155 0.866575
283 3 11.5163 3.59351 8.08096
284 3 13.1377 3.53938 6.19173
288 3 11.2916 5.54709 6.52028
348 2 14.7993 1.75153 1.78392
359 1 10.699 2.30878 0.0816231
353 2 13.8737 2.49646 9.18802
204 1 5.74691 6.04782 4.48399
371 3 12.7884 0.44637 0.178556
72 2 15.0713 3.48847 8.68762
350 2 14.8724 0.116752 3.03394
216 1 8.89398 6.27118 4.98738
162 2 8.92027 4.74286 9.09331
349 2 15.9644 0.206722 1.30172
160 2 7.86303 3.08062 9.19002
9 4 15.2436 2.62909 16.4729
48 4 12.372 1.57249 17.6583
174 2 8.3067 5.53905 13.8919
53 4 9.87193 1.56632 15.7585
54 4 11.7884 1.95477 11.5601
60 4 11.6759 3.34456 14.192
82 2 6.55455 4.7712 16.2569
252 3 6.70133 3.70683 13.8525
91 2 13.1636 1.66908 10.6195
92 2 11.3055 0.355279 11.5298
95 2 12.8592 3.30803 15.4421
96 2 11.7539 4.99398 13.8887
116 2 11.8954 5.0327 10.6775
117 2 12.4479 5.92725 12.2778
369 1 9.99355 5.3565 17.1767
285 3 6.43542 5.36174 9.442
256 3 5.19687 5.80706 14.0943
163 2 7.81622 4.4383 10.8186
164 2 9.39592 3.39234 11.3096
165 2 8.71146 4.88977 12.3899
366 2 9.7751 4.33827 17.6527
197 1 12.5119 5.89702 11.1474
213 1 8.42119 3.97168 11.682
368 2 8.98665 6.0369 17.0431
270 3 13.4595 2.82133 16.9036
275 3 15.2468 1.4872 15.2605
276 3 9.05323 0.422908 14.9068
277 3 11.2769 0.963901 16.6463
278 3 8.63448 2.07971 16.9528
279 3 10.7807 2.67359 10.69
355 2 14.8162 1.37122 10.368
289 3 10.3267 2.9323 14.7793
290 3 12.2294 2.52195 12.9726
328 2 16.1023 0.745898 17.998
342 2 6.81586 5.17075 17.9495
343 1 6.22718 6.08809 17.763
173 2 10.0761 6.09272 13.9328
341 2 5.58385 6.13624 16.7822
29 4 7.15723 2.81905 12.4827
327 1 15.9649 1.89624 18.0419
367 2 10.5456 5.20809 16.2085
56 4 10.9923 6.56635 18.1253
358 2 10.0463 2.43706 18.4501
361 2 13.4409 6.36362 16.9218
286 3 4.76189 6.39614 11.3479
217 1 8.95327 6.43949 13.7164
118 2 13.5502 5.95626 10.7341
356 2 11.5297 3.62926 18.5625
19 4 9.45518 11.2027 4.43603
296 3 5.9417 11.1705 0.250872
171 2 8.36738 7.21513 4.8287
46 4 4.90835 12.2652 1.15222
186 2 8.71223 10.2476 9.01452
59 4 10.4605 6.78066 5.96846
62 4 4.39407 10.8519 4.04046
64 4 7.03934 8.83919 8.29064
66 4 6.79748 11.2631 6.19494
94 2 11.0024 6.68329 8.91927
85 2 5.02154 7.52823 5.42203
98 2 8.22461 7.73315 7.55522
122 2 9.3119 10.2412 2.10996
123 2 8.07657 9.44694 3.24997
124 2 9.93709 9.01555 3.46277
41 4 2.09951 10.2487 0.475692
25 4 0.582802 12.6223 7.62496
297 3 5.85334 7.85392 9.12284
298 3 3.12421 9.56183 8.52615
179 2 2.88853 10.4724 5.97234
180 2 2.31684 11.8415 4.57822
181 2 3.6885 12.3345 5.96978
182 2 9.66657 8.80758 7.04796
183 2 11.2437 8.30345 7.89677
184 2 9.7051 7.62228 8.46632
23 4 0.597406 12.188 2.36868
199 1 9.15207 9.79983 3.14276
169 2 8.6004 7.77517 0.48469
219 1 3.13709 11.4377 5.33979
220 1 10.201 7.94988 7.574
76 2 2.0072 11.8539 6.87666
258 3 4.45062 6.94014 1.45169
261 3 1.55338 11.5626 1.15683
287 3 11.4014 7.60817 4.76238
293 3 3.95883 9.01739 3.76782
294 3 4.29353 11.6144 2.63233
138 2 5.4835 6.75476 3.62033
304 3 6.6562 12.3933 7.43693
299 3 4.23063 11.9594 8.88514
301 3 8.21955 11.4206 5.45071
302 3 5.7188 11.1444 4.89464
303 3 6.72946 9.79756 7.05294
260 3 2.77474 9.20203 1.41459
39 4 3.41631 7.91711 2.28239
83 2 2.50119 9.17284 4.02793
15 4 11.6771 7.35356 10.3895
58 4 6.1275 6.7203 10.2202
61 4 8.78334 7.62426 12.1132
63 4 7.16245 10.5589 17.7987
221 1 7.72579 10.0365 9.56308
67 4 4.53708 10.6684 16.5122
364 2 12.05 7.27973 15.8009
365 2 9.13123 8.16684 17.2344
314 4 9.88859 11.2536 16.7006
175 2 8.64214 7.33466 14.3514
176 2 9.19244 9.97988 12.1899
177 2 8.55916 9.12196 13.8102
178 2 7.32179 9.76486 12.4765
340 2 6.74335 7.07473 18.0576
215 1 9.7085 8.18632 18.2429
188 2 5.87656 10.023 10.4172
189 2 4.52622 8.81103 10.7974
190 2 4.60853 10.3651 11.8262
52 4 6.12628 12.7754 15.0228
218 1 8.36717 9.41002 12.6981
222 1 4.77811 9.86722 10.8542
187 2 7.94736 9.83123 10.7682
44 4 2.85643 9.09995 14.1159
268 3 1.14958 12.4277 12.4642
362 1 12.5446 7.16386 16.9348
291 3 10.2927 7.7335 11.4173
292 3 7.42837 7.25855 11.1863
295 3 8.2444 11.4668 16.7854
97 2 8.06502 9.27304 18.5211
300 3 2.24254 11.1387 10.4787
305 3 3.6923 9.76439 15.3824
306 3 5.98195 9.8537 16.8403
307 3 5.02494 12.0697 15.7976
308 3 3.48966 10.716 17.8894
65 4 3.48284 10.6414 9.64084
321 2 7.53565 11.8996 15.2589
153 2 4.59094 7.20392 17.0169
318 2 10.0491 9.56243 16.8273
267 3 2.34945 10.174 13.0737
90 2 5.93726 12.5179 13.3289
168 2 10.5154 9.05817 18.4341
185 2 6.92831 10.8819 9.39314
ITEM: TIMESTEP
200
ITEM: NUMBER OF ATOMS
371
ITEM: BOX BOUNDS xy xz yz pp pp pp
0.0000000000000000e+00 2.6263740300000002e+01 8.4675999999999991e+00
0.0000000000000000e+00 1.3020299999999999e+01 4.7754030000000114e-01
0.0000000000000000e+00 1.8640300000000000e+01 2.0540000000000000e-01
ITEM: ATOMS id type x y z
1 4 2.18407 1.03248 2.93517
2 2 3.86978 1.36574 3.02409
246 3 4.61297 3.55111 9.22723
4 3 1.96936 0.850239 1.37339
68 2 0.890525 0.75967 7.08988
250 3 5.00099 5.0897 6.96597
325 1 2.26124 0.300833 8.37418
245 3 5.31053 4.15536 1.28902
243 3 6.64267 1.875 0.618348
202 1 5.53752 2.35021 3.46559
32 4 4.5487 5.55654 0.660374
33 4 5.60758 4.40101 8.39118
35 4 4.38911 5.93241 5.54926
30 4 6.29772 3.04708 1.74473
192 1 2.4141 2.90397 5.84494
335 2 7.45069 0.362715 1.30158
324 2 2.3213 1.4402 8.59124
103 2 2.84702 1.86905 5.61884
104 2 2.91307 3.41345 6.6857
130 2 5.46149 1.24233 3.50083
131 2 4.53489 2.87587 3.62754
132 2 6.51908 2.7423 4.0395
212 1 8.90585 3.83291 8.60494
160 2 8.13038 3.20675 9.24183
50 4 10.4513 2.7193 8.91351
162 2 9.09077 4.90029 9.08126
216 1 8.77316 6.28989 5.02616
81 2 7.04271 3.52824 7.97631
136 2 5.58539 4.79737 4.1088
137 2 6.81806 6.33205 4.47289
204 1 5.6959 6.05765 4.15637
133 2 7.57348 5.1834 2.29478
134 2 8.51649 3.85274 1.39472
135 2 8.34783 3.60051 3.29823
288 3 11.1693 5.47 6.57371
170 2 9.28036 5.82051 4.12759
157 2 8.42518 2.43037 4.67365
282 3 10.9021 5.71264 0.784902
158 2 9.12695 4.29301 4.96782
280 3 10.9994 3.55089 2.8816
159 2 9.66047 2.75775 6.01622
161 2 8.56362 3.88998 7.54453
172 2 8.17734 5.51326 5.66858
203 1 7.85283 4.07366 2.26451
211 1 9.29643 3.10112 5.00467
55 4 11.8443 4.80123 2.13492
10 4 2.1279 1.27356 11.6717
165 2 8.29138 4.96115 12.3255
242 3 7.7495 1.35049 12.9198
24 4 7.16631 1.6433 17.6238
26 4 4.68813 2.37994 10.4486
241 3 5.88055 2.80718 11.534
28 4 4.38447 1.96002 16.0317
251 3 4.27037 3.37744 15.2384
240 3 5.7745 1.75225 16.8311
239 3 3.77171 0.782792 15.256
238 3 3.21683 2.56097 11.5113
69 2 1.72074 0.347697 10.2288
36 4 5.59185 4.34395 14.8409
237 3 4.78601 0.923643 9.87379
78 2 3.1638 2.24476 17.1606
224 3 2.30296 0.509115 13.074
143 2 3.04691 4.0607 12.3332
174 2 7.64167 6.20304 13.6871
53 4 9.82117 1.55063 15.8124
82 2 6.26158 4.79435 16.3584
217 1 8.78016 6.50329 13.5897
286 3 4.97125 6.4917 11.4675
252 3 6.64254 3.5696 13.9689
358 2 10.2156 2.3643 18.3773
56 4 10.8522 6.53168 18.0209
367 2 10.3635 5.19269 15.829
96 2 11.758 4.88858 14.0615
29 4 7.01538 2.81376 12.5755
341 2 5.52041 6.2155 16.7951
173 2 9.51364 5.71088 13.3186
343 1 6.11712 6.16566 17.7949
342 2 7.01236 5.40418 17.8404
116 2 12.041 5.02976 10.7536
117 2 12.7 6.10311 12.1828
289 3 10.1976 2.8845 14.7688
369 1 9.9649 5.20321 16.8572
285 3 6.53098 5.36636 9.41691
278 3 8.62353 2.10607 16.8902
256 3 5.23158 5.73875 14.127
366 2 10.086 4.2289 17.4313
163 2 7.55019 4.46137 10.7248
164 2 9.07004 3.49939 11.32
368 2 8.91925 5.63416 16.9226
213 1 8.13221 4.05532 11.6165
197 1 12.7086 5.90785 11.083
317 2 4.78451 0.435593 18.5637
347 2 8.42373 0.184676 9.66973
334 1 11.1689 10.5626 5.60457
12 4 12.9078 7.10875 4.31136
6 4 12.5197 12.4433 9.24485
331 2 11.2672 9.48932 5.34031
333 2 12.0557 11.2247 5.23521
21 4 13.9934 10.4974 7.05804
310 2 13.0958 10.9795 0.105182
148 2 15.0472 12.7496 6.22973
332 2 10.8004 10.8197 6.60283
74 2 12.9525 9.85842 5.83136
323 2 10.9981 12.8371 7.27653
313 1 12.6054 11.4573 0.983653
312 2 13.3561 11.7417 1.83819
311 2 11.7474 10.6098 1.46089
322 2 9.85114 12.5309 8.85236
309 4 11.1071 12.4625 0.297734
105 2 12.7439 9.19207 3.24127
106 2 13.053 7.71055 1.99386
184 2 9.38603 7.50008 8.64173
345 2 15.9649 11.847 8.32372
77 2 16.7708 12.6848 6.4312
128 2 15.6257 11.9447 2.67844
199 1 9.22902 9.98098 3.17627
370 3 10.1847 12.5331 3.77606
235 3 13.2517 11.5077 8.08167
234 3 14.6729 9.1809 7.81771
208 1 15.1336 11.6034 6.00423
149 2 14.6313 11.2456 4.96902
201 1 16.2823 12.1941 1.78995
193 1 13.3993 8.30486 2.94035
19 4 9.55936 11.317 4.50124
171 2 8.21488 7.27399 4.76073
186 2 8.81769 10.1375 8.94622
59 4 10.4177 6.78581 5.96308
303 3 6.83375 9.67667 7.05225
64 4 7.06432 8.70881 8.25409
301 3 8.27257 11.4321 5.48489
94 2 11.0779 6.7441 8.90635
98 2 8.0543 7.50221 7.61331
138 2 5.42323 6.44985 3.07941
122 2 8.89506 10.4655 2.26752
123 2 8.49198 9.18344 3.52508
287 3 11.527 7.75605 5.0044
124 2 10.2682 9.53919 3.08873
297 3 5.92827 7.9296 9.1038
182 2 9.48042 8.66822 6.99001
220 1 9.99694 7.84393 7.65055
183 2 11.0269 8.16993 7.89613
169 2 9.02685 7.95195 0.843662
85 2 5.15073 7.4861 5.31204
8 4 11.4513 12.553 14.3779
22 4 13.6279 10.0856 13.4917
363 2 12.5863 8.05287 17.858
338 2 17.0758 12.5328 17.6503
127 2 12.0131 8.62091 12.918
339 1 15.9508 12.5804 17.5702
75 2 14.3068 9.24985 14.9136
88 2 15.6274 11.3376 10.2627
99 2 10.7966 11.3836 10.3598
100 2 12.1829 11.5324 11.7031
101 2 12.3246 10.0983 10.3517
125 2 12.1486 8.47153 14.929
337 2 15.388 12.1048 18.4739
336 2 15.5248 12.2578 16.5362
126 2 13.4633 7.51695 13.9328
319 2 15.9781 11.6415 13.3249
316 3 10.3394 11.7127 15.1336
315 3 10.728 12.0223 17.8196
264 3 14.7708 9.99118 12.3921
187 2 7.98615 9.78526 10.673
236 3 12.7164 11.4697 13.7383
191 1 11.9968 11.295 10.6091
232 3 12.688 8.44954 10.1199
200 1 12.8002 8.46545 13.9885
15 4 11.6196 7.3252 10.442
58 4 6.09246 6.6972 10.273
97 2 8.09894 9.2754 18.5039
61 4 8.74899 7.69767 12.0686
221 1 7.79924 9.99413 9.53175
318 2 10.028 9.51561 16.7126
364 2 12.2797 7.45959 16.0374
365 2 9.1292 8.25143 17.5515
314 4 9.88877 11.2725 16.6737
175 2 9.06877 6.96236 14.4953
176 2 9.21749 10.2699 12.4124
177 2 8.3756 9.23128 13.7663
178 2 7.36804 9.84903 12.2516
340 2 6.3966 7.27768 18.1774
168 2 10.5768 9.25365 18.3136
295 3 8.28779 11.5167 16.8777
292 3 7.54136 7.1759 11.1896
291 3 10.2893 7.61183 11.2034
362 1 12.405 7.11226 17.121
215 1 9.86843 8.38359 18.3687
218 1 8.37522 9.55619 12.6389
27 4 17.1401 12.9197 13.467
349 2 16.1024 0.204076 1.4718
47 4 10.544 2.26589 3.81248
350 2 14.9985 0.270116 3.02213
51 4 13.2395 2.10692 5.61171
223 3 16.9623 2.45152 5.42257
72 2 15.0882 3.62683 8.80939
57 4 12.2873 4.48158 7.21427
371 3 12.9402 0.311166 0.220348
89 2 16.4714 1.11314 3.25428
352 2 15.7168 1.97527 8.83625
93 2 13.2807 5.52168 8.05197
353 2 13.8528 2.43119 8.98415
359 1 10.8694 2.37692 0.163344
348 2 15.0194 1.72304 1.65286
284 3 13.1955 3.60087 6.23221
351 1 15.1415 0.586584 1.91976
283 3 11.6326 3.64077 8.31355
102 2 19.4423 3.54972 4.9495
274 3 13.394 1.04167 6.86203
273 3 11.8471 1.81045 4.71767
272 3 14.4409 2.00254 4.50574
166 2 13.4386 4.30365 0.0766414
167 2 13.0971 2.99362 1.34406
49 4 14.1961 0.267456 8.0328
271 3 10.1018 1.25883 8.07057
269 3 10.0603 0.946621 2.86964
357 2 11.1164 2.03208 1.20948
329 2 15.0696 1.98717 0.293399
226 3 16.5885 5.98846 1.87188
214 1 13.2461 4.09627 1.19185
3 2 18.6774 2.39156 3.34278
70 2 17.8509 3.62604 1.32011
5 4 15.9276 2.40614 4.23849
7 4 17.993 2.45443 6.57785
139 2 20.3707 5.37138 8.86818
225 3 16.0994 3.66192 3.30246
11 4 17.0843 4.57132 2.50594
249 3 20.1805 6.02078 5.07717
14 4 16.483 4.4783 8.31244
360 2 14.1056 4.55587 1.84751
244 3 18.5901 4.5583 3.29361
31 4 19.1765 6.15591 3.86232
229 3 16.0534 5.3972 6.95696
227 3 17.572 3.26495 7.89248
281 3 12.5504 5.76055 3.25057