ITEM: TIMESTEP
0
ITEM: NUMBER OF ATOMS
371
ITEM: BOX BOUNDS xy xz yz pp pp pp
-8.8510000000000009e+00 1.7777500000000000e+01 -8.8510000000000009e+00
0.0000000000000000e+00 1.3020299999999999e+01 4.5889999999999997e-01
0.0000000000000000e+00 1.8640300000000000e+01 2.0540000000000000e-01
ITEM: ATOMS id type q x y z
3 2 -0.0487164 0.352568 0.757106 1.51589
7 4 1.12228 1.31239 2.5587 6.09527
11 4 1.19953 0.332841 4.74339 2.54306
14 4 1.20344 -0.482995 4.00631 7.95935
70 2 0.0858014 1.46499 4.40349 1.33634
223 3 -0.853988 0.368642 2.21869 4.91701
225 3 -0.844128 -0.53517 3.43347 2.82263
226 3 -0.815884 -0.683211 6.01253 2.01148
227 3 -0.823536 0.851598 2.98374 7.50138
229 3 -0.80558 -1.02953 5.02134 6.86351
244 3 -0.801192 1.38223 5.20974 3.86441
324 2 0.200576 1.20156 0.9718 8.364
5 4 1.30597 -0.914623 2.37597 3.97477
166 2 0.186899 -3.34198 5.01195 0.052045
360 2 0.230051 -2.35889 4.27501 1.43874
247 3 -0.793686 0.0660482 4.88964 9.25498
72 2 -0.010877 -1.64072 2.96885 8.57863
281 3 -0.78528 -3.8428 5.76811 3.29306
16 4 1.25849 -1.8502 6.40795 7.04567
233 3 -0.823931 -2.63111 6.33395 8.47475
201 1 -0.64597 7.87934 0.199918 1.93875
250 3 -0.831155 5.07818 5.26397 6.89761
25 4 0.726886 8.4965 0.279556 8.11412
68 2 0.0293652 2.49755 1.24708 6.34085
131 2 0.162873 4.44804 0.73803 2.21942
139 2 0.257741 2.82472 4.53753 9.27578
202 1 -0.667542 4.49683 1.58044 2.90777
77 2 0.0625377 6.80541 1.11092 8.29681
102 2 0.219008 2.85802 4.08604 5.35693
192 1 -0.667342 3.18374 2.91321 5.59935
243 3 -0.747957 6.18003 2.11478 0.480207
245 3 -0.786392 4.63139 4.28602 1.64563
246 3 -0.79481 4.72614 3.18266 8.54611
132 2 0.150666 3.58013 2.35422 2.81897
254 3 -0.814576 2.35633 5.38673 0.32305
30 4 1.06228 5.60054 2.8553 1.77105
32 4 1.25532 4.15569 5.65488 0.901549
2 2 -0.00894193 2.71707 0.739241 2.68943
103 2 0.169119 3.66837 2.37886 4.61915
104 2 0.238932 3.88793 3.05693 6.41948
130 2 0.149138 4.97608 1.35756 3.92689
33 4 1.25813 5.53294 4.48375 8.22507
335 2 0.200252 7.77124 1.35339 2.23944
129 2 0.185245 7.65397 0.0421818 0.818183
10 4 1.05233 1.78085 1.82682 11.4002
17 4 1.26284 0.0925698 4.8002 15.6401
34 4 1.2777 0.968819 6.0987 9.89178
37 4 1.20784 1.95415 6.35261 17.8374
69 2 -0.00520862 1.16738 0.808244 10.1374
18 4 1.03479 -0.611643 6.34873 12.9751
110 2 0.160628 -0.285813 2.8388 10.7803
111 2 0.203205 0.648284 3.89158 12.1043
112 2 0.167572 -0.317541 2.35417 12.6005
113 2 0.220427 2.23647 3.62971 15.0268
114 2 0.193114 0.744713 3.30692 13.6997
115 2 0.159497 0.742316 2.56855 15.5718
144 2 0.242058 1.8734 5.705 12.5858
195 1 -0.68929 0.264574 2.88328 11.7789
196 1 -0.654402 1.11908 3.43824 14.8666
230 3 -0.77891 -1.51603 4.14111 16.2041
231 3 -0.829534 -0.0492526 5.73827 14.3764
253 3 -0.806607 0.994993 5.45759 16.8539
326 2 0.166522 -0.19114 2.69407 17.5343
224 3 -0.817392 2.10976 0.921831 12.719
248 3 -0.759322 0.361503 6.31519 11.6899
73 2 0.0272347 -2.1785 5.73677 12.5235
239 3 -0.857392 3.63437 1.07202 15.0036
205 1 -0.643436 2.75285 5.47296 9.9048
240 3 -0.862876 5.64524 1.60034 16.686
237 3 -0.811776 4.00284 0.825416 9.55516
238 3 -0.758108 3.03556 2.8203 10.9937
242 3 -0.85001 7.03008 0.917257 13.178
140 2 0.206659 2.82679 5.24448 11.0248
347 2 0.203398 8.04178 0.751418 10.3193
252 3 -0.835951 5.96124 3.50102 13.419
241 3 -0.813763 5.99722 2.30788 10.9799
251 3 -0.831289 4.23072 3.63099 15.5418
24 4 1.2449 7.0416 1.67337 17.3831
26 4 1.38242 4.5197 2.25401 10.058
28 4 1.24062 4.21611 1.96833 16.087
29 4 1.36351 6.67643 2.33194 12.4464
36 4 1.26244 5.45946 4.23811 14.7015
78 2 -0.0282697 3.06158 1.96664 17.318
142 2 0.214473 2.6149 4.74496 14.2107
143 2 0.217447 3.29406 4.42652 12.5243
206 1 -0.679721 2.78697 5.21048 13.1559
346 1 -0.628552 7.31175 0.200122 9.61852
341 2 0.186626 5.0603 5.46073 17.1592
141 2 0.238079 3.42246 6.35659 9.65171
8 4 1.43372 2.62531 0.230445 14.0341
38 4 1.3209 4.13013 6.50448 13.1917
12 4 1.23432 -3.81629 6.9444 4.48216
21 4 1.01391 -3.89217 10.3615 7.30127
74 2 -0.0135389 -4.59667 9.79775 5.86198
105 2 0.157738 -4.10451 9.26134 3.87108
106 2 0.169453 -2.90432 8.25281 2.61097
107 2 0.146101 -2.26709 8.81229 4.36588
330 2 0.162553 -3.2746 8.82799 0.370684
148 2 0.177768 -2.74526 12.3074 7.40159
193 1 -0.684815 -3.23281 8.5258 3.79039
208 1 -0.676799 -2.20179 11.4674 6.91616
228 3 -0.821608 -2.78771 6.65786 5.83603
234 3 -0.864065 -3.46806 9.14163 8.1813
235 3 -0.831586 -4.79098 11.3554 8.09927
109 2 0.206168 -3.31362 7.16426 1.49861
332 2 0.152789 -6.14977 10.6452 5.63375
333 2 0.1658 -5.57576 10.5754 3.84672
334 1 -0.650001 -6.1536 10.038 4.68343
6 4 1.15525 -5.58916 12.2461 9.13018
149 2 0.0951717 -2.55803 11.0963 5.69678
194 1 -0.65546 -2.72541 7.70218 0.724725
4 3 -0.822055 -6.65518 11.8654 0.748287
312 2 0.15192 -3.81881 10.993 0.918906
20 4 1.37793 -3.16626 7.94034 9.23284
1 4 0.94637 -7.25197 12.5362 1.94547
325 1 -0.677695 -7.32323 12.7127 8.41416
323 2 0.167324 -7.01049 12.3015 7.37543
370 3 -0.794251 -7.71246 11.4886 3.01224
331 2 0.232378 -5.91521 8.83579 4.87751
311 2 0.0606063 -5.29466 9.43106 0.0656526
259 3 -0.769198 0.494244 11.4859 3.83716
108 2 0.0100113 -1.44327 8.69061 1.73266
87 2 0.00389933 1.22971 8.48693 6.70612
146 2 0.15192 -1.1091 9.93561 6.20336
31 4 1.1898 1.83567 6.66625 4.18739
262 3 -0.819824 1.14129 7.49824 9.1207
86 2 -0.0331002 0.1669 9.98287 8.7312
84 2 -0.0151427 0.861195 10.4081 6.3285
145 2 -0.00277585 -0.0996246 8.79444 3.84954
150 2 0.127151 -1.67748 10.7106 7.59791
128 2 0.15875 -1.5879 12.2727 2.6287
76 2 0.0176386 -0.55602 12.3453 6.50174
147 2 0.140499 -0.955138 8.24836 5.22876
207 1 -0.661753 -0.34915 9.05437 5.7646
13 4 1.09064 -0.870252 7.16468 0.979435
257 3 -0.873329 2.07663 7.48222 2.82636
40 4 0.687984 0.902654 10.1128 4.55366
42 4 0.95668 1.4233 8.87562 8.40637
79 2 -0.0195447 0.58684 7.49673 5.07304
80 2 0.0085532 -0.4781 7.49645 6.88212
249 3 -0.76417 3.23374 6.59372 5.32453
344 2 0.0168069 -0.485199 11.5594 9.11996
22 4 0.991622 -3.92854 10.8874 13.585
75 2 0.0782845 -3.10975 12.1346 14.6958
88 2 0.00465164 -2.15348 11.174 9.52547
100 2 0.276122 -5.76807 11.4061 11.7665
101 2 0.191357 -5.65706 10.2975 10.2125
126 2 0.0492641 -4.0158 9.35566 14.7031
317 2 0.0768192 -3.85692 12.2069 17.5327
191 1 -0.677956 -6.08986 11.2348 10.647
200 1 -0.636648 -2.95334 10.5068 15.3104
232 3 -0.769012 -4.61841 7.31559 10.1198
236 3 -0.831245 -5.34934 11.5546 13.4822
263 3 -0.824281 -2.15061 8.58059 10.2111
264 3 -0.784457 -2.97173 10.4409 12.1983
316 3 -0.803466 -7.62575 12.6079 15.0291
121 2 0.216582 -2.79303 7.76842 12.2183
345 2 0.204191 -2.44369 12.7342 10.1978
310 2 0.151036 -2.58109 10.326 18.1084
127 2 0.170053 -3.25213 10.6274 16.509
315 3 -0.812395 -6.38983 11.1884 16.79
71 2 0.123614 -2.1749 7.15901 18.2658
309 4 0.992447 -5.47993 11.3671 18.1209
120 2 0.151962 -2.55977 7.50972 14.0177
313 1 -0.643303 -3.53749 10.8104 18.4988
198 1 -0.668214 -2.02833 7.63536 13.0871
99 2 0.157335 -7.20242 11.2025 10.5359
337 2 0.165376 -1.56011 12.0251 18.4186
125 2 0.143184 -1.89274 10.0793 15.1655
27 4 1.33287 -0.615818 12.7723 13.7321
266 3 -0.848203 -0.380745 10.1538 11.2555
320 2 0.064706 1.22693 9.26671 18.5751
209 1 -0.685369 3.10316 7.20939 16.722
336 2 0.178122 -1.71532 12.1958 16.519
152 2 0.22147 2.85005 6.77137 15.6593
338 2 0.181816 -0.125348 12.8693 17.4902
210 1 -0.686122 0.899955 8.6098 15.1048
43 4 1.20344 -1.91448 10.0666 10.875
151 2 0.175072 2.80382 8.32302 16.8931
44 4 1.3029 2.40968 9.12646 14.101
265 3 -0.80647 3.28281 7.74073 13.5791
156 2 0.191756 1.01196 8.73081 16.1599
319 2 -0.0128166 -1.56992 11.3726 14.3204
119 2 0.175528 -1.13507 8.52799 13.1124
339 1 -0.672084 -1.27461 12.6441 17.5066
45 4 1.44949 0.826237 11.0205 11.804
267 3 -0.777015 1.73966 9.99778 12.8486
154 2 0.228738 0.620709 7.49727 14.7733
155 2 0.151749 0.186699 9.39226 14.6387
153 2 0.200989 4.18359 7.08624 16.9754
268 3 -0.868418 0.302553 12.3525 12.5887
255 3 -0.818974 0.679002 7.71482 18.633
133 2 0.175453 7.20189 4.3264 2.94548
134 2 0.169553 8.17343 3.09025 1.87938
357 2 0.243742 10.5207 1.99974 1.19587
157 2 0.168534 9.87012 3.19521 5.37983
158 2 0.170822 9.00081 3.47959 3.65702
159 2 0.211486 10.4059 4.64661 4.20936
161 2 0.164879 8.93143 4.38701 8.01411
172 2 0.149763 8.51566 5.38635 5.98332
203 1 -0.664229 7.27692 3.25173 2.61497
211 1 -0.666989 9.96141 3.61262 4.27665
269 3 -0.799555 10.3882 0.97064 2.78579
271 3 -0.784177 9.69988 1.26697 8.38108
359 1 -0.694793 10.5112 2.66963 0.226729
204 1 -0.645015 5.81278 5.88522 4.33852
212 1 -0.67382 8.97718 3.86169 9.02606
137 2 0.165566 6.51354 4.96763 4.55455
81 2 -0.0124662 7.19336 4.04438 8.17156
366 2 0.169168 7.95861 5.55659 1.6436
50 4 1.2855 10.4911 2.59583 9.10074
369 1 -0.642816 8.8783 5.83385 2.16652
368 2 0.176307 9.36192 4.95453 2.84862
170 2 0.16831 8.88482 6.12298 4.20557
136 2 0.231766 4.97974 5.70397 3.58247
56 4 0.922815 10.237 6.22492 0.686509
35 4 1.04391 4.78728 6.40766 5.8522
216 1 -0.655504 8.92198 6.32416 5.41964
160 2 0.156225 8.17028 3.0253 9.1884
135 2 0.138671 7.24914 2.57186 3.54367
355 2 0.137243 16.0614 1.36208 8.94906
167 2 0.197495 13.7286 3.25616 0.510313
214 1 -0.682154 13.9957 4.24693 0.903289
356 2 0.212123 11.1758 3.55113 0.296732
371 3 -0.772844 12.4971 0.625835 0.10428
280 3 -0.803353 12.1245 3.38047 2.8046
89 2 0.00407979 16.1412 0.855084 3.16169
283 3 -0.842403 11.7039 3.36642 8.41272
282 3 -0.763136 11.562 5.56228 1.27086
348 2 0.182226 14.4632 2.23472 1.50987
349 2 0.141403 15.7038 0.664662 1.49336
47 4 1.2739 11.2842 2.3391 3.71365
351 1 -0.667514 14.6717 1.11691 1.8764
350 2 0.197905 14.4531 0.935842 2.98654
284 3 -0.821451 13.1819 3.773 6.35482
288 3 -0.843705 11.1004 5.37009 6.88328
51 4 1.48338 13.6177 2.31771 5.61039
55 4 1.32418 12.777 4.80436 2.22894
57 4 1.34327 12.2641 4.44901 7.3647
93 2 0.0991992 13.3124 5.42986 8.27844
272 3 -0.840459 15.0007 2.48472 4.69346
273 3 -0.802822 12.1937 1.7143 4.91058
274 3 -0.814784 13.8355 1.1223 6.83038
53 4 1.40442 9.60569 1.84037 15.6588
82 2 0.0248197 6.74296 4.40082 15.7626
162 2 0.205596 8.99103 4.5969 9.83671
163 2 0.206272 8.52608 3.4196 10.975
164 2 0.248536 9.18826 2.49536 12.4308
165 2 0.202824 8.37184 4.20972 12.6971
173 2 0.212778 7.47795 5.4721 13.4913
213 1 -0.644379 8.32968 3.2014 12.079
278 3 -0.78982 8.23466 2.53286 16.6752
279 3 -0.80914 10.8327 2.4283 10.695
289 3 -0.788729 10.1409 2.95007 14.4901
292 3 -0.790635 7.48503 6.31379 10.9291
175 2 0.181575 9.38079 5.34218 13.7604
362 1 -0.654469 10.1834 5.68741 17.6334
277 3 -0.796811 10.995 1.42362 16.6645
217 1 -0.67495 8.4676 6.01731 13.6485
256 3 -0.789065 5.1679 5.84781 14.3714
276 3 -0.85238 8.98763 0.581462 14.9177
363 2 0.171675 10.8837 5.02688 17.0893
291 3 -0.796185 10.2819 6.50324 11.4878
364 2 0.136669 9.70644 6.50756 16.9542
358 2 0.191984 9.93013 3.14867 18.5054
285 3 -0.823288 5.48815 5.41976 9.48808
361 2 0.143959 9.34339 5.00282 18.2058
342 2 0.178447 6.54656 5.15187 18.1985
343 1 -0.678502 5.69055 5.88413 17.9924
354 1 -0.659334 14.9612 1.25541 9.38991
118 2 0.0252434 12.871 6.30041 12.7663
60 4 0.927067 11.7512 2.95351 14.0221
91 2 -0.0209221 13.4587 1.36385 10.6566
353 2 0.141456 14.8201 0.462665 10.2071
327 1 -0.672524 16.286 1.95017 17.5908
197 1 -0.657709 13.256 4.88637 11.7506
96 2 -0.0199343 12.2478 4.51323 13.3655
270 3 -0.74572 13.3522 2.70094 16.8761
95 2 0.103718 12.7529 2.82819 15.3765
94 2 0.106808 12.0972 4.36948 10.6805
290 3 -0.79866 12.089 1.76852 13.0165
328 2 0.173478 16.628 0.948281 17.0961
117 2 0.143435 13.4401 3.90906 12.3375
275 3 -0.797879 15.1502 1.62767 14.9744
9 4 1.21171 15.1552 2.70787 16.2781
48 4 1.31818 12.0552 1.81218 17.7623
54 4 0.938311 11.9189 1.47337 11.4675
15 4 0.95655 11.9433 6.30283 11.1607
352 2 0.15845 14.4225 2.25159 9.47463
116 2 0.175004 14.0935 5.18135 11.1039
329 2 0.192998 15.8561 1.76828 18.6395
23 4 1.27731 0.73088 12.4743 2.42153
41 4 1.27865 1.98837 10.2407 0.297771
46 4 1.36418 4.75867 12.5188 1.09669
62 4 1.28974 4.59927 11.0677 3.97654
85 2 0.0919116 5.51615 7.88476 6.36585
179 2 0.14603 2.9802 11.04 5.83256
180 2 0.22533 2.79788 12.3812 4.42758
49 4 1.24695 5.55954 12.8247 7.91784
219 1 -0.669927 3.48995 11.8584 5.21354
258 3 -0.828649 4.32386 7.08757 1.57881
298 3 -0.769977 2.94046 9.43435 8.49876
293 3 -0.741682 3.99898 9.2878 3.64619
294 3 -0.841927 4.59755 11.7344 2.50938
299 3 -0.78906 4.49427 11.7318 8.7667
302 3 -0.849413 5.85437 11.0232 4.96059
260 3 -0.855441 3.05498 9.42207 1.09277
39 4 1.43998 3.34199 8.27246 2.18298
261 3 -0.807473 1.29636 11.3924 1.28183
83 2 0.0729593 2.59934 9.64752 4.20451
138 2 0.159641 6.33111 6.91368 4.19254
296 3 -0.852202 5.74191 11.7575 0.0976474
181 2 0.275625 4.16008 12.5554 5.8864
367 2 0.179098 8.74652 6.86876 2.66414
185 2 0.200806 8.43871 10.9862 8.47427
304 3 -0.823903 6.90091 11.9448 7.35177
169 2 0.163347 9.37553 8.7348 0.675134
215 1 -0.642031 10.2959 8.12752 0.678259
199 1 -0.675825 8.63347 8.73881 3.36051
287 3 -0.772575 11.6739 7.18994 5.01149
303 3 -0.785222 6.55277 9.22915 6.8401
220 1 -0.68708 10.6268 8.10089 7.67497
221 1 -0.692005 8.23255 10.0141 9.15656
59 4 1.08551 10.6496 6.76316 6.20532
19 4 1.10277 9.25176 10.3684 4.11798
301 3 -0.78924 8.40952 10.8611 5.49868
64 4 1.05151 7.20233 8.73572 8.25987
66 4 1.46337 6.8902 10.8832 6.147
98 2 -0.0156726 8.69243 7.82493 7.96034
122 2 0.175797 7.54791 8.94591 3.20289
123 2 0.163518 8.75471 7.83726 4.13616
124 2 0.180962 9.25363 8.5312 2.35598
168 2 0.160643 11.2118 8.58863 1.40275
171 2 0.121499 8.47384 7.36048 5.7588
182 2 0.152081 10.0533 9.08925 7.59676
97 2 -0.00765634 6.68046 9.27921 0.324421
184 2 0.174745 10.308 7.50167 8.59563
322 2 0.160035 9.17159 12.0593 8.87159
183 2 0.194616 11.7594 8.2733 7.6124
186 2 0.140583 9.17847 9.39705 9.23069
67 4 1.47864 4.11411 10.9734 16.2865
188 2 0.149624 4.8991 10.6274 11.3325
190 2 0.238663 3.68555 9.15449 11.3654
222 1 -0.657589 4.4194 9.73897 10.7785
300 3 -0.790066 2.02345 11.3412 10.559
305 3 -0.778582 3.3821 10.074 15.1008
306 3 -0.774398 5.59777 10.1034 16.899
307 3 -0.808429 4.69455 12.2914 15.6076
308 3 -0.807335 2.99625 10.9988 17.5558
189 2 0.269724 5.1687 9.06254 10.1648
65 4 1.19408 3.45142 10.6975 9.53123
340 2 0.180085 6.00963 6.96841 17.857
92 2 0.0903953 2.73491 12.6587 11.2355
52 4 0.973709 6.07796 12.8389 15.0614
286 3 -0.802073 4.95064 6.67522 11.6148
90 2 -0.046511 6.47233 12.1466 13.6012
58 4 1.50761 5.98707 6.59812 10.4251
297 3 -0.820093 6.30082 7.99359 9.3558
321 2 0.0798243 7.34143 12.0268 15.9109
314 4 1.20133 9.63409 11.2805 15.8819
61 4 1.09504 8.79009 6.838 11.9059
174 2 0.1557 8.42445 6.80304 14.4378
295 3 -0.796122 8.29373 11.122 16.7978
187 2 0.158887 7.80911 10.3791 10.1415
365 2 0.125086 11.154 8.27947 18.1697
177 2 0.154264 9.51413 9.17933 12.6312
178 2 0.158054 7.57881 8.70749 12.7439
63 4 1.14666 6.71067 10.7545 17.8842
176 2 0.172393 8.37654 9.18665 11.0093
218 1 -0.650131 8.54481 8.75783 12.1333
318 2 -0.0339556 9.57165 10.0904 14.6749
ITEM: TIMESTEP
100
ITEM: NUMBER OF ATOMS
371
ITEM: BOX BOUNDS xy xz yz pp pp pp
-8.8137194000000001e+00 1.7777500000000000e+01 -8.8137194000000001e+00
0.0000000000000000e+00 1.3020299999999999e+01 4.5889999999999997e-01
0.0000000000000000e+00 1.8640300000000000e+01 2.0540000000000000e-01
ITEM: ATOMS id type q x y z
3 2 -0.0369298 0.786369 1.01596 1.55318
7 4 1.12284 1.38083 2.4867 6.02794
11 4 1.22797 0.316198 4.76186 2.56507
14 4 1.26678 -0.440486 4.06041 8.00762
70 2 0.0681648 1.27325 4.40538 1.21056
223 3 -0.838282 0.474127 1.97923 4.88399
225 3 -0.848878 -0.50644 3.36443 2.921
226 3 -0.819877 -0.66514 5.91629 1.89396
227 3 -0.83951 0.747881 3.12985 7.24991
229 3 -0.824381 -1.02351 5.09594 6.96439
244 3 -0.840021 1.34453 5.28721 3.74323
324 2 0.186787 1.38844 1.25255 8.29374
5 4 1.30733 -0.897001 2.32377 4.02885
166 2 0.176874 -2.97929 4.97763 0.146793
360 2 0.229977 -2.10504 3.94825 1.49156
247 3 -0.847492 0.141024 4.93252 9.19081
335 2 0.179001 7.56931 1.30387 2.45571
281 3 -0.744939 -3.81294 5.83014 3.40539
16 4 1.31128 -1.83599 6.38812 7.0864
233 3 -0.825792 -2.62081 6.39934 8.52704
201 1 -0.657549 7.80329 0.184651 2.25663
139 2 0.242214 2.64127 4.62338 9.11596
25 4 0.711443 8.58392 0.340223 8.13513
68 2 0.0224874 2.54103 1.18197 6.4592
131 2 0.154302 4.21622 0.692447 2.03256
72 2 -0.0151258 -1.67901 3.0801 8.6855
202 1 -0.672194 4.29446 1.60795 2.71027
77 2 0.0593408 6.89019 1.1365 7.98117
102 2 0.195935 3.0491 3.92987 5.36572
192 1 -0.666821 3.28372 2.72702 5.59559
243 3 -0.761647 5.98145 2.23157 0.180516
245 3 -0.806136 4.66803 4.23467 1.63759
246 3 -0.807996 4.83643 3.18869 8.54902
132 2 0.161221 3.34299 2.21002 2.93772
254 3 -0.803582 2.34633 5.47467 0.281238
30 4 1.04269 5.51051 2.86575 1.79824
32 4 1.26047 4.10682 5.58087 1.00289
2 2 -0.000519854 2.68986 0.489648 3.05948
103 2 0.168121 3.71409 2.24313 4.60737
104 2 0.202181 3.97843 2.50095 6.52117
130 2 0.129493 5.01072 1.48433 3.62276
33 4 1.25433 5.5408 4.64876 8.33735
325 1 -0.68658 1.50411 0.148695 8.42394
135 2 0.13894 6.83753 2.4733 3.68356
141 2 0.216961 3.28927 6.26602 9.3128
10 4 1.01646 1.85862 1.83703 11.4055
17 4 1.25096 0.093565 4.7881 15.5514
34 4 1.36169 0.846585 6.09241 9.991
37 4 1.17699 1.88816 6.42558 17.7786
69 2 -0.0143609 1.02189 0.938144 10.1913
18 4 1.09336 -0.69366 6.29417 12.8616
110 2 0.144279 -0.501539 2.5184 11.038
111 2 0.19417 0.658786 3.80728 11.7272
112 2 0.189544 -0.19375 2.43484 12.878
113 2 0.197947 1.9375 3.40497 15.2417
114 2 0.200867 0.716338 3.04029 13.7844
115 2 0.205002 0.378561 2.28467 15.5528
144 2 0.238861 1.83263 5.64913 12.4385
195 1 -0.68511 0.262321 2.70647 11.8513
196 1 -0.663481 0.84018 3.17794 14.9819
230 3 -0.746588 -1.50946 4.11199 15.9936
231 3 -0.813822 -0.168929 5.77752 14.228
253 3 -0.819857 0.956854 5.56597 16.6987
326 2 0.165523 -0.280214 2.95713 17.6756
224 3 -0.783718 2.17824 0.952213 12.7741
248 3 -0.833016 0.243849 6.20031 11.5949
73 2 0.0257755 -2.29351 5.66194 12.6312
239 3 -0.844516 3.55907 0.977736 14.9725
205 1 -0.65209 2.66668 5.49072 9.78831
240 3 -0.825304 5.71152 1.6033 16.5004
237 3 -0.802062 4.05307 0.678232 9.58731
238 3 -0.769365 3.03144 2.95526 10.8137
242 3 -0.843141 7.10319 0.983803 13.1437
140 2 0.221751 3.04762 5.23703 10.8059
347 2 0.198384 7.75578 1.18092 10.1668
252 3 -0.821731 6.02356 3.49407 13.569
241 3 -0.804127 5.79323 2.28899 11.0522
251 3 -0.82586 4.19165 3.51319 15.522
24 4 1.26215 7.01835 1.78825 17.402
26 4 1.3823 4.45491 2.26525 9.94795
28 4 1.24091 4.16122 1.98963 16.0391
29 4 1.35731 6.61978 2.46226 12.433
36 4 1.25383 5.48374 4.31948 14.8135
78 2 -0.0332636 3.15731 1.89633 17.377
142 2 0.206653 2.52085 4.87952 13.9569
143 2 0.225842 3.18869 4.45774 12.245
206 1 -0.697601 2.77983 5.25129 12.9501
346 1 -0.634149 7.21535 0.448581 9.48952
341 2 0.168555 5.05538 5.1536 17.2121
116 2 0.147432 -3.17235 5.19411 11.1781
38 4 1.32652 4.12914 6.53514 13.208
345 2 0.238133 6.25035 0.163129 9.96929
12 4 1.28169 -3.85355 6.87312 4.57206
21 4 0.976296 -3.76893 10.2515 7.14365
74 2 0.00356648 -4.53178 9.70186 5.67342
105 2 0.144603 -3.86954 9.16967 4.08956
106 2 0.180174 -2.88744 8.07347 2.76079
107 2 0.146529 -2.05525 8.66877 4.51053
330 2 0.180318 -3.24198 8.72633 0.434166
148 2 0.161108 -2.78079 12.2926 6.78865
193 1 -0.672113 -3.08876 8.35816 3.92611
208 1 -0.648194 -2.20469 11.2871 6.51749
228 3 -0.810062 -2.80968 6.60277 5.88596
234 3 -0.838497 -3.40055 8.99544 8.06927
235 3 -0.783091 -4.68807 11.3655 7.97548
109 2 0.200164 -3.55158 7.26352 1.59817
332 2 0.165529 -6.33244 10.9302 5.57766
333 2 0.140751 -5.52841 10.6269 3.767
334 1 -0.662327 -6.16487 10.2154 4.66685
6 4 1.11468 -5.58545 12.1739 9.07418
149 2 0.107342 -2.45885 10.7737 5.40837
194 1 -0.670784 -2.82151 7.74133 0.827577
4 3 -0.808241 -6.42385 11.7651 0.784192
312 2 0.150319 -3.6467 10.8526 0.693477
79 2 -0.00427975 0.737151 7.26066 5.39535
1 4 0.902126 -7.20736 12.4411 2.02257
80 2 0.00612111 -0.702341 7.75984 7.06493
323 2 0.170868 -7.28245 12.4234 7.46045
249 3 -0.807287 3.27036 6.59196 4.95449
331 2 0.244122 -5.92039 9.11307 4.914
322 2 0.153122 -8.18285 12.5451 9.06589
259 3 -0.790339 0.587628 11.518 3.80697
108 2 0.0141877 -1.53359 8.59344 1.9142
87 2 -0.0172961 1.18969 8.41243 6.65974
146 2 0.159821 -1.01282 9.79402 5.89357
31 4 1.2647 1.90882 6.65656 4.21597
262 3 -0.83245 1.04925 7.43051 9.16681
86 2 -0.0336907 0.139069 9.78627 8.59141
84 2 -0.00956676 0.907358 10.277 6.1861
145 2 0.0176455 -0.0341007 8.7362 3.69964
150 2 0.10706 -1.52861 10.6196 7.32196
128 2 0.168247 -1.54137 12.2631 2.95871
76 2 0.00207136 -0.393148 11.9647 6.83828
147 2 0.143445 -0.919693 8.06166 5.04755
207 1 -0.668776 -0.288885 8.89011 5.5721
13 4 1.04677 -0.924045 7.18639 0.944043
257 3 -0.859451 2.01207 7.73705 2.97668
40 4 0.697824 0.969669 10.0382 4.41373
42 4 0.94946 1.43758 8.73778 8.33431
129 2 0.171997 -1.31513 12.7505 1.1307
337 2 0.166507 -2.2712 12.089 0.170922
22 4 1.05684 -3.89624 10.9178 13.3078
75 2 0.0900049 -3.05511 12.2007 14.4457
88 2 -0.00735169 -2.06195 11.3589 9.73042
100 2 0.263363 -5.58149 11.3132 11.5394
101 2 0.190745 -5.50316 9.8899 10.1975
126 2 0.0604569 -4.02625 9.42981 14.6247
317 2 0.0542614 -3.9566 12.2442 17.4699
191 1 -0.65682 -5.89762 11.0091 10.4922
200 1 -0.645148 -3.01936 10.6088 15.1505
232 3 -0.846359 -4.53864 7.47452 10.1301
236 3 -0.850285 -5.36822 11.526 13.3519
263 3 -0.819629 -2.2529 8.51037 10.4435
264 3 -0.874362 -2.94375 10.5449 12.1358
316 3 -0.800691 -7.75937 12.535 15.0459
121 2 0.209254 -2.89597 7.59305 12.4677
344 2 0.0495748 -0.385264 11.9151 9.53408
310 2 0.15495 -2.56769 10.192 17.8115
127 2 0.174813 -3.18634 10.6789 16.3303
315 3 -0.832919 -6.41833 11.0903 16.9142
71 2 0.122458 -2.24663 7.18568 18.4464
309 4 1.00944 -5.35891 11.3319 18.0706
120 2 0.151283 -2.41611 7.56371 14.3487
313 1 -0.654211 -3.45913 10.681 18.3076
198 1 -0.669148 -2.10454 7.54296 13.1945
311 2 0.0800321 -4.49073 9.49898 18.4902
20 4 1.42617 -3.20787 7.93028 9.3704
125 2 0.145074 -2.01962 10.1745 14.9701
27 4 1.35045 -0.632173 12.8537 13.6805
266 3 -0.853481 -0.413055 10.1731 11.2794
320 2 0.0756048 1.06172 9.409 18.5208
209 1 -0.663584 3.26344 7.26478 16.8813
336 2 0.175589 -1.78331 12.2546 16.8855
152 2 0.201288 2.95886 6.94365 15.7927
338 2 0.197267 -0.281235 12.8698 17.8385
210 1 -0.686837 1.03494 8.58406 15.1545
43 4 1.23173 -1.97276 10.126 10.9591
151 2 0.181517 3.07927 8.38551 17.0564
44 4 1.35637 2.47306 9.16331 14.0846
265 3 -0.823526 3.30987 7.8482 13.5865
156 2 0.186174 1.46581 8.6342 16.152
319 2 -0.00407457 -1.46093 11.3863 14.2677
119 2 0.176492 -1.22821 8.43223 12.9948
339 1 -0.667981 -1.39895 12.7559 17.8735
45 4 1.50014 0.831899 10.9412 11.8877
267 3 -0.832705 1.65075 10.0533 12.9889
154 2 0.233099 0.688088 7.58378 14.8132
155 2 0.172522 0.269911 9.35232 14.9883
153 2 0.187664 4.33267 6.76675 17.2384
268 3 -0.869384 0.292057 12.2525 12.5619
255 3 -0.804323 0.645232 7.82905 18.5794
99 2 0.133817 -7.12329 11.1525 10.4493
8 4 1.41068 -6.21169 12.9119 14.0488
133 2 0.186331 7.07919 4.35501 3.35184
134 2 0.165681 8.04386 3.01694 2.40129
357 2 0.28523 10.5724 1.80209 1.34151
157 2 0.185702 9.95085 3.11023 5.42371
158 2 0.175812 8.89064 3.41685 3.80661
159 2 0.195069 10.3567 4.57863 4.31532
161 2 0.163717 8.96932 4.05393 7.83446
172 2 0.158159 8.30282 5.42775 5.8509
203 1 -0.674871 7.09699 3.27547 2.93594
211 1 -0.6725 9.95692 3.52595 4.3323
269 3 -0.779178 10.3654 1.02978 2.81181
271 3 -0.781811 9.85798 1.35933 8.19111
359 1 -0.668695 10.6951 2.38816 0.290262
204 1 -0.647133 5.89894 5.84956 4.54575
212 1 -0.662597 8.9625 3.89675 8.97031
137 2 0.170456 6.4515 5.05995 5.09276
81 2 -0.00170948 7.20204 4.2365 8.06399
366 2 0.162184 8.03883 5.38576 1.52985
50 4 1.32041 10.5082 2.5547 9.0634
369 1 -0.642451 8.89222 5.75156 2.19654
368 2 0.175026 9.32562 4.97383 2.97633
170 2 0.158904 8.85448 6.12855 4.18148
136 2 0.229179 5.28224 5.45597 3.67482
56 4 0.926716 10.2923 6.21905 0.742689
274 3 -0.79999 13.7669 1.1157 6.87855
216 1 -0.672788 8.88472 6.24066 5.41392
250 3 -0.843472 5.09564 5.567 7.08114
273 3 -0.809216 12.419 1.9641 4.78673
272 3 -0.842753 15.0594 2.53094 4.82706
167 2 0.186358 13.9059 3.14569 0.349882
214 1 -0.684751 14.2556 4.12059 0.917701
356 2 0.223218 11.2679 3.33151 0.422208
371 3 -0.748619 12.5221 0.423178 0.209892
280 3 -0.816031 12.1477 3.41383 2.62532
89 2 0.0323212 16.2182 0.789185 3.24281
283 3 -0.865975 11.7736 3.28184 8.5029
282 3 -0.756825 11.6412 5.53283 1.02429
348 2 0.181985 14.5773 2.12356 1.5457
349 2 0.151211 15.8901 0.721283 1.60442
47 4 1.28482 11.3589 2.4797 3.6636
351 1 -0.693768 14.8036 1.03714 1.87674
350 2 0.201637 14.5575 0.849589 2.91881
284 3 -0.808566 13.4182 3.74938 6.43359
288 3 -0.839852 11.2069 5.17502 6.76409
51 4 1.56441 13.7248 2.36004 5.70594
55 4 1.23102 12.8983 4.67209 2.01618
57 4 1.28163 12.3666 4.38925 7.5017
93 2 0.0756662 13.2393 5.57003 8.38075
329 2 0.186264 15.5152 1.55165 0.072926
355 2 0.14173 16.1103 1.36373 9.30059
53 4 1.45342 9.55902 1.74833 15.7449
82 2 0.0117874 6.79826 4.26192 15.8805
162 2 0.18098 9.3289 4.79469 9.59092
163 2 0.199799 8.52536 3.38144 10.8595
164 2 0.234407 9.0055 2.27747 12.3884
165 2 0.204275 8.45017 4.11917 12.7417
173 2 0.191714 7.65373 5.277 13.6196
213 1 -0.640233 8.30042 3.15464 12.047
278 3 -0.825488 8.45239 2.43847 16.6875
279 3 -0.813841 10.6804 2.2962 10.6506
289 3 -0.804361 10.364 2.97762 14.5145
292 3 -0.756981 7.60443 6.35272 11.1244
175 2 0.215758 9.38432 5.08476 14.3289
362 1 -0.655427 10.1704 5.86989 17.6348
277 3 -0.797972 10.8471 1.24883 16.7756
217 1 -0.676213 8.64812 5.8075 13.8964
256 3 -0.817938 5.11757 5.81005 14.3579
276 3 -0.87745 8.97626 0.596272 14.9148
363 2 0.180995 10.971 5.3307 17.0751
160 2 0.155929 7.99811 3.40833 9.40726
352 2 0.156386 14.4132 2.30741 9.32399
358 2 0.202007 10.1842 2.76346 18.3407
285 3 -0.824881 5.60844 5.42684 9.67775
361 2 0.151896 9.33526 5.23869 18.0839
342 2 0.201767 6.52015 4.8825 18.4867
343 1 -0.660807 5.69393 5.57309 18.087
354 1 -0.678161 14.9931 1.30073 9.37831
118 2 0.067515 12.9908 6.02067 12.7777
60 4 0.980555 11.7718 2.93278 13.9856
91 2 -0.00548002 13.3719 1.63983 10.4478
353 2 0.110306 14.6889 0.484775 10.2509
327 1 -0.680825 16.3243 2.05262 17.6456
197 1 -0.655079 13.1905 4.9046 11.758
96 2 0.000898088 12.2465 4.48717 13.4513
270 3 -0.780455 13.311 2.76166 16.9166
95 2 0.106758 12.7622 2.79806 15.4293
94 2 0.0659929 12.0027 4.73907 10.4597
290 3 -0.827274 12.3034 1.91086 12.8228
328 2 0.182061 16.7328 1.14105 17.0237
117 2 0.175509 13.3895 3.91228 12.183
275 3 -0.789388 15.2705 1.59583 15.0292
9 4 1.19209 15.1384 2.66565 16.3383
48 4 1.29473 12.113 1.67881 17.6527
54 4 0.953824 11.9008 1.48605 11.3672
15 4 1.02377 11.9949 6.46129 11.0915
23 4 1.26547 0.70073 12.4923 2.5059
41 4 1.3098 1.89597 10.2727 0.292413
46 4 1.35463 4.86933 12.4802 1.05127
62 4 1.25716 4.62411 11.0888 3.98952
85 2 0.0878758 5.4469 8.12007 6.18522
179 2 0.133021 2.97547 10.9385 5.644
180 2 0.236297 2.74244 12.3716 4.27433
49 4 1.28815 5.48234 12.8756 8.04579
219 1 -0.681709 3.41266 11.8667 5.10965
258 3 -0.856365 4.30824 7.06741 1.60157
298 3 -0.803376 2.83091 9.47083 8.55504
293 3 -0.738225 4.01427 9.2997 3.62336
294 3 -0.799179 4.42488 11.7156 2.5112
299 3 -0.776889 4.27943 11.9035 8.64924
302 3 -0.827045 6.05786 11.1251 4.82502
260 3 -0.854427 2.95111 9.3405 1.0723
39 4 1.46184 3.37613 8.23914 2.14472
261 3 -0.778816 1.24899 11.4538 1.08888
83 2 0.115146 2.63616 9.61687 4.00867
138 2 0.156808 6.52057 6.8111 4.35947
296 3 -0.838411 5.90425 11.7048 0.0957892
181 2 0.28274 3.79593 12.6349 5.8834
367 2 0.16597 8.72837 6.82282 2.64349
185 2 0.183342 8.51152 10.653 8.37337
304 3 -0.810947 6.69402 11.9715 7.30805
169 2 0.157391 9.19415 8.5346 0.637566
215 1 -0.671578 10.2596 8.13085 0.636586
199 1 -0.653276 8.65939 8.75195 3.33679
287 3 -0.775979 11.698 7.35183 5.06682
303 3 -0.795401 6.5281 9.33142 6.87375
220 1 -0.687932 10.4086 7.8761 7.61897
221 1 -0.693014 8.20507 9.95136 9.24626
59 4 1.07987 10.6871 6.5831 6.13187
19 4 1.10531 9.21371 10.4614 4.15423
301 3 -0.800448 8.53741 10.722 5.66319
64 4 1.04676 7.14695 8.73442 8.29579
66 4 1.46362 6.94949 10.8881 6.13935
98 2 -0.00860756 8.46486 7.65066 7.77895
122 2 0.176262 7.53545 8.9804 3.17191
123 2 0.15535 8.80615 7.76398 4.08718
124 2 0.174217 9.23928 8.57711 2.36284
168 2 0.186037 10.7805 8.61102 1.38033
171 2 0.134144 8.52127 7.27525 5.78325
182 2 0.161966 9.74963 8.75955 7.46101
97 2 -0.0124655 6.55398 9.12414 0.181896
184 2 0.153357 10.0351 7.19217 8.41612
35 4 1.01272 4.76672 6.54516 5.88897
183 2 0.199652 11.4518 8.20688 7.89536
370 3 -0.792514 9.15084 11.623 3.02391
67 4 1.50304 3.92562 10.9691 16.3656
188 2 0.147101 5.20556 10.8737 11.1532
190 2 0.216451 3.90111 9.60052 11.5939
222 1 -0.682096 4.52594 10.0675 10.7824
300 3 -0.794824 1.92725 11.419 10.5564
305 3 -0.823643 3.33017 10.1064 15.125
306 3 -0.83646 5.27924 10.2533 16.9446
307 3 -0.780822 4.58405 12.5519 15.6538
308 3 -0.824558 2.89199 11.0836 17.5506
189 2 0.257189 5.087 9.30717 10.1808
65 4 1.18632 3.31901 10.723 9.52625
340 2 0.156903 6.09713 6.61387 17.9026
92 2 0.103899 2.62158 12.6173 11.3213
52 4 0.965818 5.95007 12.8649 15.0063
286 3 -0.787111 5.01025 6.93947 11.7278
90 2 -0.0414958 5.90106 12.2472 13.4455
58 4 1.48366 6.02399 6.74063 10.4961
364 2 0.143121 9.79555 6.81767 17.1408
321 2 0.102718 7.19296 11.9554 15.8405
314 4 1.14296 9.7109 11.29 15.901
61 4 1.0214 8.75697 6.81425 12.2078
174 2 0.138593 8.45932 6.74595 14.5444
295 3 -0.751259 8.01914 11.0218 16.7877
187 2 0.154501 7.65474 10.4854 10.1212
365 2 0.146421 11.2472 8.28858 18.2094
177 2 0.159269 9.62961 9.07298 12.7082
178 2 0.147245 7.8259 8.84076 13.0736
63 4 1.19123 6.5608 10.6375 17.8089
176 2 0.177487 8.32488 9.13216 11.2115
218 1 -0.65395 8.61472 8.70469 12.2989
318 2 -0.0293808 9.96138 9.90431 14.9948
186 2 0.15637 9.08451 9.36993 9.61517
291 3 -0.762204 10.5782 6.61587 11.6179
297 3 -0.836306 6.23989 7.96085 9.37628
ITEM: TIMESTEP
200
ITEM: NUMBER OF ATOMS
371
ITEM: BOX BOUNDS xy xz yz pp pp pp
0.0000000000000000e+00 2.6319661199999999e+01 8.5421611999999989e+00
0.0000000000000000e+00 1.3020299999999999e+01 4.5889999999999997e-01
0.0000000000000000e+00 1.8640300000000000e+01 2.0540000000000000e-01
ITEM: ATOMS id type q x y z