ITEM: TIMESTEP
0
ITEM: NUMBER OF ATOMS
371
ITEM: BOX BOUNDS xy xz yz pp pp pp
-8.8510000000000009e+00 1.7777500000000000e+01 -8.8510000000000009e+00
0.0000000000000000e+00 1.3020299999999999e+01 4.5889999999999997e-01
0.0000000000000000e+00 1.8640300000000000e+01 2.0540000000000000e-01
ITEM: ATOMS id type q x y z
3 2 -0.0233672 0.357452 0.630871 1.01762
2 2 -0.0265706 2.47349 1.21721 2.21647
345 2 0.0319144 7.40947 0.521268 8.99525
324 2 0.139321 0.969618 0.859773 8.29181
68 2 0.0415252 1.86779 1.21714 6.73712
7 4 1.0847 0.946234 2.45708 5.86232
11 4 1.27831 0.0166247 4.174 2.33706
14 4 1.29309 -0.598787 4.84374 7.43705
30 4 1.09028 5.69789 3.01889 1.50485
31 4 1.29008 1.61331 6.08035 4.02532
72 2 0.00429798 -2.00778 4.09598 7.90811
33 4 1.26264 5.53553 4.33884 8.20522
35 4 1.05395 4.1908 5.54274 5.64597
247 3 -0.818904 0.0454981 5.41423 8.70654
70 2 -0.0279181 1.02329 3.61124 1.09072
237 3 -0.818672 3.64245 0.859417 9.19877
102 2 0.143503 3.43254 1.55214 4.98176
103 2 0.202147 3.39508 3.01103 6.20954
104 2 0.158746 2.51629 3.14957 4.40117
130 2 0.155985 3.91843 2.18044 3.58971
131 2 0.151666 4.26806 1.18553 1.98142
132 2 0.155774 3.35686 2.86453 1.90104
250 3 -0.840998 4.64169 4.91098 7.04436
192 1 -0.681874 2.81849 2.39745 5.43026
202 1 -0.672303 4.15914 2.23068 2.47033
223 3 -0.813898 -0.152746 1.61827 4.92131
225 3 -0.853537 -0.936488 2.95832 2.83183
226 3 -0.829674 -0.780733 5.40923 1.74055
227 3 -0.8025 0.355776 3.62994 6.70152
229 3 -0.835913 -1.12066 6.00227 6.52657
243 3 -0.7833 6.20529 1.92284 0.416721
244 3 -0.864244 1.03046 4.80267 3.36252
245 3 -0.798272 5.05798 4.38799 0.926613
136 2 0.00923247 5.15148 5.04818 4.22408
249 3 -0.832061 2.70218 5.7064 5.16063
32 4 1.23683 4.45437 5.86345 0.576787
139 2 0.253425 2.65633 4.32364 9.31039
246 3 -0.815408 4.69945 3.26377 9.00338
254 3 -0.786214 2.62988 5.60524 0.0475778
135 2 0.113717 6.59948 3.044 3.53972
148 2 0.1541 6.24397 0.101291 7.14261
10 4 1.03475 1.76777 1.75516 11.7764
17 4 1.22396 0.0912653 4.76256 15.4314
141 2 0.213021 3.28384 6.01852 9.34783
24 4 1.28137 7.05735 1.40638 17.5564
26 4 1.46389 4.1646 2.14597 10.0839
252 3 -0.845376 6.02969 3.12186 13.5429
28 4 1.21655 4.27286 1.96223 16.2971
29 4 1.30141 6.54254 2.17533 12.3991
253 3 -0.802793 1.1135 5.61375 16.4901
36 4 1.23663 5.61643 4.04941 14.732
37 4 1.22036 2.02625 6.39473 17.6813
251 3 -0.809579 4.36674 3.50195 15.6822
248 3 -0.793733 0.361372 6.27132 11.2409
327 1 -0.681552 -0.814318 2.61625 18.4144
78 2 -0.0367004 3.61524 1.99068 17.7882
110 2 0.167719 -0.251204 2.97012 10.8759
111 2 0.179991 0.702904 3.73875 12.3726
73 2 0.0448127 -2.25812 6.19249 12.1978
113 2 0.19038 0.678614 2.95983 13.838
114 2 0.201781 0.447728 2.25315 15.6044
115 2 0.194329 1.98438 3.40428 15.2621
69 2 -0.00614752 0.480581 1.16977 10.7269
140 2 0.218746 2.72868 5.20455 10.9751
326 2 0.161853 -0.0662615 3.43524 18.4772
142 2 0.20403 2.90734 4.48656 14.0039
143 2 0.248363 2.98176 4.11463 12.2636
144 2 0.21223 2.04077 5.6972 12.7858
195 1 -0.677967 0.129089 2.75452 11.8915
196 1 -0.666872 0.875016 3.1151 14.9833
205 1 -0.643728 2.55366 5.2911 9.80718
206 1 -0.701001 2.90587 4.94572 12.9794
224 3 -0.787961 2.1004 0.826486 12.9918
230 3 -0.746439 -1.35831 4.28296 16.2198
231 3 -0.799612 -0.202389 5.64622 13.9542
18 4 1.04871 -0.481229 6.43742 12.6286
238 3 -0.824366 2.96908 2.66299 11.0496
239 3 -0.840102 3.36799 0.960464 15.4574
240 3 -0.827695 5.86342 1.45753 16.4767
241 3 -0.790934 5.42527 1.79024 11.2206
242 3 -0.775678 7.5839 0.837172 13.1618
328 2 0.153946 -0.291501 1.6512 18.1747
38 4 1.31117 4.29728 6.2374 13.0692
34 4 1.34536 0.981821 6.38222 9.668
112 2 0.14985 -0.634103 2.22174 12.5865
331 2 0.167873 -5.5231 9.58012 4.20312
201 1 -0.669204 -0.892755 12.7649 2.07602
13 4 1.04318 -0.947096 6.69596 0.800896
16 4 1.24518 -2.27471 7.16927 6.71552
20 4 1.37671 -3.23051 8.73093 9.10947
21 4 1.0619 -3.80412 10.7279 6.91133
325 1 -0.669828 -7.66118 12.5545 8.03011
40 4 0.724029 0.790616 9.47333 4.2539
42 4 0.951819 1.91464 9.12326 8.32658
74 2 -0.00814171 -4.40704 9.89031 5.46935
79 2 0.044315 0.255302 6.79043 4.85608
80 2 0.0126237 -1.46142 8.67219 6.26402
320 2 0.0512545 0.607658 8.97568 0.051285
84 2 -0.00788417 0.196099 8.69831 5.83522
86 2 -0.0191204 0.780783 10.3971 8.255
87 2 -0.0672791 2.03608 8.85081 6.74524
105 2 0.159169 -5.39431 9.0156 2.64845
106 2 0.174112 -3.76468 8.01934 1.95508
107 2 0.122718 -3.6442 9.12428 3.55678
108 2 0.0184812 -1.67761 8.01445 1.66015
262 3 -0.806017 1.26473 7.8193 9.04866
323 2 0.219643 -7.60084 12.3738 6.98913
370 3 -0.796529 -7.77909 11.7569 2.85991
145 2 0.0486911 -0.0147804 8.41313 2.88275
146 2 0.145211 -1.56786 9.24462 4.42628
147 2 0.208817 -1.36658 7.34807 4.41851
12 4 1.27746 -4.46271 7.1206 4.30336
149 2 0.131836 -2.81232 12.3408 5.36563
150 2 0.151014 -1.48187 11.4334 6.49289
193 1 -0.651111 -4.39995 8.50712 2.90686
194 1 -0.658827 -2.80253 7.14649 0.409082
334 1 -0.644805 -6.24392 10.1849 4.98128
207 1 -0.665867 -0.824312 8.36662 4.4349
208 1 -0.662265 -2.5225 11.9966 6.40946
228 3 -0.852115 -3.26936 7.23256 5.52028
233 3 -0.826452 -2.87911 7.13876 8.21957
234 3 -0.885091 -3.13574 9.75342 7.94614
235 3 -0.773849 -4.99611 11.4231 7.58412
312 2 0.0649675 -5.2051 9.18853 0.601068
257 3 -0.889926 2.11077 7.22924 3.03805
259 3 -0.764077 0.456171 10.987 4.06731
333 2 0.153953 -5.88599 11.2745 5.22878
344 2 0.153939 -0.734985 11.113 8.49712
4 3 -0.839126 -6.38625 11.8343 0.627417
1 4 0.927991 -7.17812 12.6213 1.68386
129 2 0.191136 -1.20912 12.5585 1.00066
346 1 -0.63961 -0.17807 12.0987 8.6847
6 4 1.09958 -5.84046 12.2653 8.85273
128 2 0.154662 -1.48554 12.1757 2.88892
109 2 0.19527 -3.44968 6.49336 1.05484
330 2 0.175347 -3.35975 8.12642 0.0676383
83 2 0.084757 2.50729 9.08004 4.28436
88 2 0.0245231 -1.75107 11.7787 9.82837
22 4 1.03372 -3.72947 10.9949 13.6495
121 2 0.234692 -2.56057 8.45406 12.4081
43 4 1.25191 -1.83165 10.5354 10.9902
44 4 1.27743 2.48724 9.11173 13.9145
45 4 1.48238 1.30831 11.1137 11.8666
75 2 0.109459 -2.51134 11.7976 15.0306
311 2 0.143651 -3.654 9.27858 17.2455
99 2 0.270124 -5.36107 10.2373 10.205
27 4 1.28442 -0.151749 12.742 13.9013
101 2 0.228372 -5.53134 11.791 11.3766
119 2 0.139957 -0.61048 8.49166 12.8201
120 2 0.164783 -2.13039 7.7349 14.0649
125 2 0.157445 -1.61847 9.86977 15.0848
126 2 0.0381634 -3.77339 9.30559 14.2867
267 3 -0.839128 1.90035 9.80727 12.6293
8 4 1.42237 -6.21562 12.7528 14.4293
127 2 0.169411 -3.05328 10.2174 16.2379
154 2 0.217838 0.869961 7.45199 15.0269
155 2 0.163981 0.154168 9.02674 14.2494
156 2 0.168461 1.1417 9.14228 15.8406
191 1 -0.670785 -5.88566 11.2613 10.4394
198 1 -0.663109 -1.86329 7.83214 12.9889
200 1 -0.676392 -2.55831 10.4425 15.183
209 1 -0.653684 3.22549 7.37171 16.7407
210 1 -0.691504 0.980887 8.56985 14.8334
232 3 -0.817923 -4.78068 8.58469 9.86086
236 3 -0.844807 -5.19919 11.5694 13.9326
152 2 0.221247 2.90902 7.10946 15.6941
263 3 -0.809968 -2.12222 9.12543 10.3478
264 3 -0.804141 -2.93755 10.8072 12.1875
266 3 -0.81494 -0.307507 10.743 11.4245
339 1 -0.669482 -1.33387 12.2902 17.7253
315 3 -0.837914 -6.5311 10.4314 17.0898
316 3 -0.804812 -7.63683 12.0251 15.1991
319 2 -0.00333138 -0.953967 11.3648 14.5582
313 1 -0.656022 -3.71313 10.0725 18.0863
116 2 0.181725 -3.76913 7.33384 12.4371
336 2 0.181681 -1.57616 11.5884 16.8735
265 3 -0.758121 3.48912 7.53034 13.4932
338 2 0.180108 -0.238881 12.2407 17.9699
317 2 0.0676733 -3.9929 11.5985 17.2973
310 2 0.160822 -2.75283 10.2375 18.5855
347 2 0.259049 0.663224 12.017 9.54942
100 2 0.144503 -7.08729 11.1188 10.4884
309 4 1.02432 -5.5255 10.9278 18.2028
151 2 0.191291 2.87622 8.45274 17.0814
337 2 0.146803 -2.04553 12.1658 18.5783
255 3 -0.802465 0.766535 7.47876 18.6307
71 2 0.127586 -1.94077 6.6608 17.8342
25 4 0.70252 8.92678 1.0589 8.00621
47 4 1.26932 10.9328 1.86955 4.28168
161 2 0.179637 9.99856 5.70608 8.74746
51 4 1.4965 13.5061 2.30501 5.82083
55 4 1.3168 12.1352 4.49886 2.64277
357 2 0.221035 11.0524 2.06351 1.55636
57 4 1.25846 12.346 4.67564 7.44643
170 2 0.168691 8.44113 6.02125 4.52423
350 2 0.146811 15.9798 1.02319 1.57715
358 2 0.190921 10.0122 0.923236 0.465976
93 2 0.0698669 13.3398 5.8963 8.12457
284 3 -0.774582 13.0965 3.83794 6.2116
133 2 0.168284 7.56925 4.56975 2.8206
134 2 0.160713 8.22487 2.8263 2.53904
56 4 0.909961 10.253 5.87878 0.327001
216 1 -0.670376 8.70561 6.07833 5.60885
89 2 0.00984572 15.4932 0.456096 3.1756
157 2 0.163161 8.72205 1.04053 5.0343
158 2 0.174929 8.41584 2.64111 4.09769
159 2 0.148438 9.40078 2.67511 5.8253
366 2 0.194998 8.215 4.28441 0.938368
166 2 0.237063 13.3003 3.25496 0.708351
167 2 0.200576 13.5024 2.52243 2.41425
356 2 0.190592 9.90626 3.05639 0.333877
172 2 0.168705 8.69518 5.02994 6.03427
203 1 -0.653546 7.32773 3.52074 2.67763
288 3 -0.827135 11.0993 5.45039 6.79329
211 1 -0.67655 9.12068 2.04896 4.86945
81 2 -0.0503568 6.85889 3.54673 7.5637
214 1 -0.674634 13.5399 3.49217 1.80782
359 1 -0.650038 10.6231 1.99548 0.500616
269 3 -0.799681 10.6129 0.421057 3.16005
271 3 -0.800438 9.89652 2.14428 8.86083
272 3 -0.841135 14.6538 2.38018 4.64672
273 3 -0.797348 12.0727 1.45403 5.38116
274 3 -0.805263 14.1545 1.53262 7.21476
280 3 -0.797522 11.4422 3.17376 3.4914
281 3 -0.754657 12.9214 5.68029 3.45581
282 3 -0.77157 11.1687 5.21714 1.46656
283 3 -0.816048 11.9263 3.82224 8.7013
77 2 -0.0250351 8.15096 1.75825 6.54645
371 3 -0.781819 13.0653 0.323239 0.23741
5 4 1.31982 15.945 1.92318 3.95965
360 2 0.248906 14.4614 4.09616 1.93549
329 2 0.18266 15.2328 2.2822 0.640439
285 3 -0.836632 6.2143 5.28445 9.27915
355 2 0.178775 16.6755 0.212342 8.94361
335 2 0.182228 8.08697 1.03569 2.3033
9 4 1.17738 15.3993 2.82261 16.9578
48 4 1.22086 12.4445 1.60234 18.0882
368 2 0.157999 8.46866 5.43095 17.9281
53 4 1.38786 9.85874 1.71868 16.1376
54 4 0.993383 11.8228 2.30769 12.2065
60 4 0.956769 11.6275 3.65356 14.9554
82 2 0.005533 6.98697 4.22962 15.7261
212 1 -0.662323 9.64008 4.99764 9.5446
91 2 -0.0260006 13.379 2.01173 11.6432
94 2 -0.00440029 11.1718 6.20696 9.74845
95 2 0.102233 12.777 3.35875 16.2506
96 2 -0.0282311 11.8084 5.34389 14.8154
361 2 0.195551 12.6284 5.45147 17.4918
117 2 0.133291 12.4355 5.76013 11.937
256 3 -0.787819 5.32052 5.67002 14.1891
50 4 1.3459 10.6405 3.27018 9.59998
162 2 0.184669 9.72711 5.43224 10.6319
163 2 0.18449 8.58387 3.53185 12.3045
164 2 0.216691 7.29854 3.89942 10.9392
165 2 0.189953 8.47724 2.41279 10.8141
276 3 -0.840836 9.3193 0.596465 15.1815
92 2 0.0796725 11.1361 0.809877 12.4515
213 1 -0.681699 7.87357 3.11037 11.4671
367 2 0.23264 9.38228 3.89544 17.9039
270 3 -0.753434 13.5726 3.08839 17.5924
275 3 -0.833579 15.5594 1.45263 16.0636
352 2 0.152961 15.5146 1.51568 9.56405
277 3 -0.757134 11.4613 1.1809 16.8418
278 3 -0.778339 8.58003 1.94615 17.2517
279 3 -0.850256 11.0909 3.03145 11.0979
174 2 0.1607 10.1358 6.39482 13.4664
289 3 -0.791759 10.1603 3.3749 15.5223
290 3 -0.831667 12.0787 2.9982 13.6119
175 2 0.191443 8.37919 5.65389 13.3601
341 2 0.161597 6.31785 5.68898 17.3935
364 2 0.144089 11.0776 5.85789 16.4431
369 1 -0.656412 9.1372 4.7797 18.5466
354 1 -0.666614 15.6402 0.399129 9.35982
362 1 -0.649663 11.6949 6.12391 17.3697
286 3 -0.770704 4.98999 6.43005 11.37
160 2 0.188018 8.62418 4.54896 9.36773
19 4 1.115 9.3246 10.6871 4.15161
23 4 1.24476 0.822871 12.1283 2.58144
299 3 -0.790394 4.24777 12.1345 8.57959
46 4 1.33607 5.24351 11.9558 0.994298
215 1 -0.679351 9.51105 7.70614 0.655374
186 2 0.133392 9.06378 10.0745 9.24708
62 4 1.32451 4.62902 10.5042 3.93029
64 4 1.08892 7.28423 8.84019 8.45479
66 4 1.49734 6.88785 10.6088 5.98045
138 2 0.212743 5.38231 6.79845 3.90099
85 2 0.203784 5.12389 7.62539 5.7054
98 2 0.00180495 8.7091 7.83046 8.30132
122 2 0.177191 9.33666 8.3403 3.30302
123 2 0.187494 8.37559 9.65955 2.22953
124 2 0.200817 7.58074 8.86231 3.70461
260 3 -0.857753 2.91732 9.08074 1.19869
59 4 1.12335 10.4682 6.76644 6.15884
168 2 0.156506 8.50187 7.3861 1.01598
171 2 0.136367 8.18243 6.92964 6.19409
179 2 0.151064 2.60198 10.7761 5.48938
180 2 0.282445 2.79222 12.1598 4.21523
181 2 0.207926 4.08134 11.962 5.66822
182 2 0.143178 9.72284 9.06848 7.12722
365 2 0.177023 10.1815 8.10782 1.43032
184 2 0.181057 10.4083 8.19529 8.65511
41 4 1.27377 1.93773 10.0216 0.411462
199 1 -0.661821 8.56277 9.18636 3.24643
351 1 -0.69288 6.97565 12.6807 1.28751
219 1 -0.671716 3.27601 11.4365 4.9578
220 1 -0.702571 10.4769 8.2969 7.53955
322 2 0.156446 9.06181 11.7503 8.67344
204 1 -0.655122 5.59993 6.72205 5.0127
298 3 -0.750095 3.29323 9.50403 8.97071
287 3 -0.799097 11.3019 7.246 4.93993
293 3 -0.777266 4.00188 8.93902 3.79257
294 3 -0.795573 4.81479 11.325 2.45017
183 2 0.180034 11.5619 8.60189 7.31663
49 4 1.3409 5.54022 12.8808 7.92574
349 2 0.196418 7.3293 11.9841 2.12855
301 3 -0.808924 8.37508 10.9916 5.41566
302 3 -0.879324 5.9191 10.5279 4.78963
303 3 -0.815076 6.85689 9.21562 7.06358
304 3 -0.798076 6.39967 11.7938 7.11479
258 3 -0.843817 4.53384 7.07926 1.62343
76 2 0.0457219 0.92817 12.3949 7.28539
348 2 0.162129 7.48272 12.4547 0.275972
261 3 -0.840612 1.41136 11.1594 1.45263
39 4 1.47197 3.34915 7.99428 2.21211
137 2 0.177248 6.76532 6.52239 5.2505
332 2 0.187367 10.8064 9.54022 5.92796
342 2 0.151962 6.58126 6.66641 0.0369062
296 3 -0.836452 5.71568 10.747 0.0215709
15 4 0.988451 11.6031 7.58431 10.7585
58 4 1.53747 6.2003 6.54232 10.3354
61 4 1.04097 8.52756 7.58576 12.0682
63 4 1.23055 6.64443 9.95284 17.5561
292 3 -0.791602 7.60078 6.57781 11.1717
67 4 1.44255 4.22484 10.8493 16.2088
97 2 0.0173132 6.873 8.50102 18.4259
52 4 0.998728 6.33743 12.8545 15.5384
353 2 0.134234 6.63201 12.5397 10.2884
321 2 0.092005 7.46923 11.7316 16.0292
176 2 0.148126 8.3916 10.0512 12.5502
177 2 0.179345 7.27154 9.06359 13.7176
178 2 0.172928 6.61822 9.49298 11.9865
340 2 0.173196 6.22434 7.487 17.021
187 2 0.173656 7.82953 9.91476 10.7902
188 2 0.225844 5.41571 9.68764 10.6505
189 2 0.1769 4.5552 10.665 11.9372
190 2 0.137894 5.9663 11.5202 10.9588
268 3 -0.842548 1.03909 12.2963 12.8765
218 1 -0.66931 7.5592 9.24833 12.6727
222 1 -0.679529 5.06039 10.7212 10.9385
314 4 1.14291 9.72365 10.6176 15.9482
343 1 -0.671221 6.17376 6.71269 17.8682
118 2 0.159588 11.8862 7.11708 13.1845
197 1 -0.673042 12.4747 6.95535 12.2707
291 3 -0.741996 10.0711 8.09136 11.1756
90 2 -0.027512 6.78347 12.8754 13.9188
295 3 -0.802248 8.04706 10.321 16.6877
173 2 0.139029 8.77894 7.20674 14.4795
300 3 -0.799459 2.14684 11.6586 10.5274
305 3 -0.771674 3.25334 10.1157 15.0266
306 3 -0.807279 5.47171 9.78115 16.4696
307 3 -0.805255 4.8621 12.2971 15.6223
308 3 -0.760496 3.0823 10.6959 17.6401
318 2 -0.0244564 10.1051 9.52101 14.778
65 4 1.21375 3.69961 11.0301 9.68533
363 2 0.138332 11.9488 7.32062 17.505
153 2 0.207521 4.38363 7.12088 17.0614
221 1 -0.663944 7.95053 10.2519 9.61879
297 3 -0.79118 6.29965 7.88664 9.46858
185 2 0.188156 7.46494 11.2999 9.39705
169 2 0.17658 9.91966 8.44058 18.3135
217 1 -0.67122 9.06535 6.58061 13.5463
ITEM: TIMESTEP
100
ITEM: NUMBER OF ATOMS
371
ITEM: BOX BOUNDS xy xz yz pp pp pp
-8.8510000000000009e+00 1.7777500000000000e+01 -8.8510000000000009e+00
0.0000000000000000e+00 1.3054937199999999e+01 4.5889999999999997e-01
0.0000000000000000e+00 1.8640300000000000e+01 2.4003719999999973e-01
ITEM: ATOMS id type q x y z
3 2 -0.0117064 0.297191 0.613877 1.29966
2 2 -0.0243564 2.60829 1.11484 2.16255
345 2 0.0329538 7.32866 0.370571 8.9902
324 2 0.127356 0.90518 0.770318 8.36888
68 2 0.0236167 1.91388 1.27649 6.96183
7 4 1.10783 0.870209 2.48817 6.09514
11 4 1.26484 0.109874 4.19299 2.26593
14 4 1.24906 -0.708166 4.81935 7.46007
30 4 1.10828 5.71098 2.95176 1.59491
31 4 1.2832 1.65595 6.07284 4.01392
72 2 0.00687126 -2.02658 3.97725 8.11463
33 4 1.28393 5.56984 4.26897 8.26086
35 4 1.05122 4.24637 5.50439 5.61879
247 3 -0.801323 0.104992 5.48286 8.6909
70 2 -0.0161139 1.23162 3.48147 1.2091
360 2 0.232422 -2.88822 4.39391 1.83535
102 2 0.162075 2.77964 1.487 4.77993
103 2 0.169822 3.3624 2.37961 6.32479
104 2 0.194321 2.59321 3.46942 4.93404
130 2 0.143195 4.31681 2.55472 3.71085
131 2 0.150576 4.29709 1.01685 2.54782
132 2 0.155394 3.35323 2.61451 2.05696
250 3 -0.823129 4.81862 4.87216 6.97838
192 1 -0.690589 2.66555 2.40502 5.46236
202 1 -0.658743 4.23599 2.14432 2.60125
223 3 -0.829162 -0.134314 1.78008 5.0112
225 3 -0.831963 -0.77899 2.88072 2.75153
226 3 -0.852402 -0.72553 5.23767 1.42152
227 3 -0.808427 0.437667 3.67875 6.93511
229 3 -0.803196 -1.25086 5.86192 6.37255
243 3 -0.791435 6.02236 1.91076 0.45624
244 3 -0.85999 0.984053 4.79277 3.47347
245 3 -0.789085 5.15001 4.42448 1.2347
136 2 0.010714 5.27712 4.91208 4.3229
249 3 -0.839714 2.75857 5.9042 5.18621
32 4 1.22863 4.56999 5.81748 0.608252
148 2 0.156929 5.66127 0.192201 6.80504
246 3 -0.8547 4.70952 3.25727 9.06305
109 2 0.179477 -3.28052 6.35268 0.824972
139 2 0.24634 2.41238 4.48335 9.29515
10 4 1.07883 1.88684 1.77288 11.8687
17 4 1.18466 0.14408 4.83964 15.4892
112 2 0.156886 -0.674032 2.02331 12.6523
24 4 1.2902 7.06766 1.40911 17.5828
26 4 1.44434 4.2711 2.25725 10.1766
252 3 -0.780863 6.04559 3.12779 13.5768
28 4 1.24911 4.39131 1.87734 16.19
29 4 1.29717 6.58727 2.15505 12.3573
253 3 -0.78281 1.33485 5.4041 16.6222
36 4 1.22435 5.56811 4.19429 14.749
37 4 1.2239 2.18753 6.40671 17.6334
251 3 -0.788763 4.24873 3.36834 15.4608
248 3 -0.809222 0.179837 6.29913 11.2196
327 1 -0.673059 -0.822231 2.63296 18.2942
78 2 -0.0236999 3.66005 2.05478 17.707
110 2 0.154525 -0.409638 2.43825 10.85
111 2 0.165656 0.539899 3.59422 12.1758
73 2 0.0397482 -2.32002 6.08005 12.3261
113 2 0.179248 0.517088 2.93965 13.7985
114 2 0.17371 0.410105 2.57073 15.7842
115 2 0.22655 2.04515 3.37444 14.9747
69 2 0.0134641 0.808421 1.0683 10.6422
140 2 0.228283 2.75719 5.31312 11.0241
34 4 1.36808 0.900268 6.35629 9.75697
142 2 0.215651 3.03742 4.74662 14.0425
143 2 0.260159 2.88224 4.23132 12.2488
144 2 0.186885 2.01455 5.90442 12.9922
195 1 -0.660444 0.0638205 2.41469 11.8876
196 1 -0.637456 0.90021 3.27507 14.9228
205 1 -0.636651 2.58903 5.4297 9.87549
206 1 -0.672698 2.93805 5.18145 12.9946
224 3 -0.803078 2.08419 0.751395 13.0179
230 3 -0.748 -1.32034 4.22765 16.2022
231 3 -0.791288 -0.218236 5.71452 13.9234
18 4 1.05928 -0.642127 6.46267 12.6146
238 3 -0.809583 2.76972 2.90163 11.1748
239 3 -0.834761 3.4283 0.872231 15.404
240 3 -0.85861 5.86764 1.42133 16.4972
241 3 -0.835156 5.50848 1.84475 11.1189
242 3 -0.809867 7.51991 0.810391 13.0289
328 2 0.147576 -0.423052 1.54822 17.9968
38 4 1.30031 4.27174 6.50832 13.018
326 2 0.206032 -0.11571 3.45427 18.3892
254 3 -0.783413 3.33447 5.71508 18.5152
237 3 -0.819694 3.6078 0.911075 9.4427
141 2 0.216596 3.29253 6.14567 9.3289
331 2 0.187831 -5.46337 9.47081 4.17689
201 1 -0.640771 -0.76326 12.7665 2.17381
13 4 1.06806 -0.793994 6.68019 0.797356
16 4 1.19655 -2.26195 7.18197 6.68533
20 4 1.30734 -3.20738 8.65362 9.09134
21 4 1.05017 -3.8403 10.7441 7.08559
325 1 -0.660535 -7.70397 12.5244 7.97713
40 4 0.702369 0.86529 9.51475 4.28931
42 4 0.937232 1.85425 9.09316 8.37848
74 2 -0.0107201 -4.30941 9.98276 5.5818
79 2 0.0151928 0.367169 7.00249 4.72162
80 2 0.00622694 -1.35964 8.6572 6.37909
83 2 0.057656 2.50638 8.99711 4.6269
84 2 -0.00158565 0.283857 8.52326 5.87476
86 2 -0.0296147 0.712033 10.3306 8.03967
87 2 -0.0454503 2.25857 8.6776 6.83403
105 2 0.156068 -5.07947 8.74451 2.69722
106 2 0.187097 -3.50315 7.83805 1.98756
107 2 0.149986 -3.42735 9.0667 3.4083
108 2 0.00964007 -1.52573 7.9307 1.73886
262 3 -0.799896 1.2267 7.80966 9.13399
323 2 0.205228 -7.58258 12.3635 6.78843
370 3 -0.794872 -7.54469 11.7483 3.05237
145 2 0.0183635 0.225681 8.51581 2.9229
146 2 0.150355 -1.51753 9.47842 4.4664
147 2 0.177155 -1.28248 7.63439 4.22488
12 4 1.29139 -4.45197 6.99228 4.30124
149 2 0.134636 -2.52618 11.9693 5.30057
150 2 0.168411 -1.70906 11.9125 6.99925
193 1 -0.667195 -4.0489 8.29742 2.94949
194 1 -0.656747 -2.62822 7.16301 0.339457
334 1 -0.647531 -6.12583 10.0617 4.83261
207 1 -0.671489 -0.796496 8.58244 4.51039
208 1 -0.680787 -2.67658 12.0523 6.43105
228 3 -0.841599 -3.45434 7.22662 5.57998
233 3 -0.829621 -2.79865 7.11412 8.18374
234 3 -0.897921 -3.04107 9.87644 8.07276
235 3 -0.808497 -5.10797 11.5395 7.73661
312 2 0.0787133 -5.17494 8.99257 0.414295
257 3 -0.893611 2.12906 6.9932 2.82756
259 3 -0.77369 0.612091 11.0835 4.15802
333 2 0.160648 -5.72752 11.0664 5.03615
344 2 0.161268 -0.720632 10.9195 8.597
4 3 -0.822101 -6.61246 11.6231 0.663754
1 4 0.926467 -7.18694 12.571 1.7584
129 2 0.185073 -1.12332 12.5976 1.02839
346 1 -0.653123 -0.26664 11.9043 8.65961
6 4 1.13008 -5.88272 12.3703 8.77067
128 2 0.15361 -1.4453 12.3294 3.00143
337 2 0.141182 -2.51982 12.0629 0.163283
310 2 0.159371 -3.45593 10.4064 0.336055
330 2 0.177473 -3.2302 8.16686 0.13171
88 2 0.0240929 -1.97904 11.5243 9.50535
22 4 1.02144 -3.68372 11.0892 13.6169
121 2 0.220933 -2.8116 8.3828 12.5276
43 4 1.19786 -1.89489 10.5069 10.9031
44 4 1.363 2.58983 9.29807 13.8883
45 4 1.43047 1.11811 11.005 11.8486
75 2 0.0891528 -2.66436 12.2695 14.801
311 2 0.157893 -3.2154 9.49184 17.4965
99 2 0.269068 -5.61909 10.0349 10.083
27 4 1.301 -0.181363 12.8514 13.8168
101 2 0.219586 -5.25812 11.7714 10.8817
119 2 0.155046 -0.859144 8.6387 12.8623
120 2 0.148055 -2.08973 7.62641 14.1443
125 2 0.147371 -1.69503 10.0617 14.9794
126 2 0.0561347 -3.68139 9.36395 14.4251
267 3 -0.870564 2.03236 9.98128 12.5568
8 4 1.44179 -6.32861 12.6845 14.401
127 2 0.158962 -2.93673 10.5118 16.4396
154 2 0.188134 1.06383 7.51741 14.8454
155 2 0.134733 0.233697 9.1457 14.3438
156 2 0.17575 1.17187 9.00869 15.9688
191 1 -0.654527 -5.9772 11.1256 10.2243
198 1 -0.652843 -1.91808 7.8159 13.0096
200 1 -0.651175 -2.64011 10.5918 15.2179
209 1 -0.657849 3.17992 7.53067 16.6087
210 1 -0.68404 1.10637 8.65069 14.9379
232 3 -0.78359 -4.9069 8.35592 9.84559
236 3 -0.783692 -5.30034 11.4315 13.815
152 2 0.202669 2.91452 7.02624 15.5549
263 3 -0.759398 -2.22257 8.91404 10.4755
264 3 -0.787236 -2.9521 10.947 12.1359
266 3 -0.865263 -0.390717 10.5779 11.4818
339 1 -0.658929 -1.39212 12.3233 17.8412
315 3 -0.799222 -6.53583 10.5261 16.9299
316 3 -0.817094 -7.70634 11.9858 14.9514
319 2 -0.00847555 -1.04124 11.4913 14.4098
313 1 -0.661068 -3.71545 10.1084 18.2755
116 2 0.174778 -3.79154 7.23196 12.6121
336 2 0.17902 -1.77844 11.7007 16.9163
265 3 -0.788631 3.58762 7.88341 13.5268
338 2 0.192013 -0.292831 12.1221 18.0701
317 2 0.0463585 -4.10444 11.7435 17.4768
347 2 0.250954 0.635975 11.9108 9.44292
255 3 -0.805845 0.831738 7.4426 18.5093
100 2 0.165234 -7.04846 11.1565 10.4633
309 4 0.99643 -5.53985 10.9042 18.1878
151 2 0.182692 2.82738 8.62977 16.8221
320 2 0.0720442 1.59387 8.95799 18.603
71 2 0.146078 -1.89569 6.82483 17.8087
25 4 0.67204 8.74777 0.929871 7.9487
47 4 1.31992 11.0104 1.88157 4.21709
161 2 0.163853 9.416 5.86272 9.19474
51 4 1.52394 13.6093 2.21711 5.92408
55 4 1.30182 12.2146 4.48236 2.6336
357 2 0.210125 11.507 2.18148 1.69091
57 4 1.25928 12.3493 4.68502 7.43683
170 2 0.173118 8.2699 6.31302 4.56467
350 2 0.156566 15.9198 1.02175 1.72
358 2 0.223514 10.0148 1.30846 0.824812
93 2 0.0796691 13.3137 5.968 7.86748
284 3 -0.781089 13.2624 3.73873 6.46571
133 2 0.172489 7.45221 4.45404 2.80052
134 2 0.176901 8.19655 2.8832 2.01418
56 4 0.919552 10.3088 5.84443 0.200003
216 1 -0.670465 8.52929 6.2841 5.65932
89 2 0.0209458 15.7375 0.443092 3.40086
157 2 0.158305 9.07171 1.04258 5.07198
158 2 0.192716 8.56641 2.68652 4.19432
159 2 0.181739 9.28196 2.79105 5.95796
366 2 0.189286 8.43843 4.09279 0.966419
166 2 0.245603 13.2785 3.38737 0.546198
167 2 0.17845 13.6909 2.71854 2.33685
356 2 0.191139 10.1505 3.11028 0.506492
172 2 0.15745 8.17737 5.37168 6.24797
203 1 -0.666196 7.43151 3.31173 2.64108
288 3 -0.817385 10.9541 5.3355 6.84165
211 1 -0.642183 9.25764 2.17907 5.01572
81 2 -0.0557161 6.89331 3.38606 7.58235
214 1 -0.69278 13.5549 3.63943 1.65864
359 1 -0.643154 10.7988 2.06349 0.745436
269 3 -0.802685 10.6952 0.700784 3.23489
271 3 -0.719123 9.72595 2.07366 8.77456
272 3 -0.860658 14.6052 2.36544 4.66164
273 3 -0.796035 12.0851 1.55421 5.35928
274 3 -0.83444 14.089 1.41752 7.26106
280 3 -0.761326 11.2453 3.47936 3.50833
281 3 -0.793039 12.9879 5.58885 3.49006
282 3 -0.737354 11.1963 5.19836 1.3164
283 3 -0.812855 12.1201 3.87617 8.76859
77 2 -0.0263935 8.0466 1.57487 6.47484
371 3 -0.778239 12.9717 0.280943 0.354151
5 4 1.2936 16.0144 1.9879 4.00799
335 2 0.169022 8.40335 1.12064 2.36859
329 2 0.190724 15.2916 2.46735 0.504271
285 3 -0.861121 6.11176 5.4335 9.13717
355 2 0.163105 16.717 0.127379 8.93407
160 2 0.158566 8.69852 4.14945 9.08211
135 2 0.131764 6.99922 2.69082 3.50877
9 4 1.17262 15.2799 2.82656 16.8864
48 4 1.22093 12.4175 1.57934 18.1847
368 2 0.150052 8.49713 5.4218 18.1327
53 4 1.42377 9.85308 1.72553 16.1321
54 4 0.997531 11.8374 2.27871 12.1758
60 4 0.961758 11.5983 3.62192 14.8764
82 2 -0.00796119 6.81761 4.34772 15.8927
212 1 -0.662069 9.50685 4.84159 9.6662
91 2 -0.0294258 13.3948 1.79726 11.7108
94 2 0.0081187 11.0295 6.03192 9.84031
95 2 0.0848573 12.7426 3.49083 16.1481
96 2 -0.0308605 11.5678 5.30603 14.6852
361 2 0.19294 12.7063 5.66884 17.3312
117 2 0.137188 12.5843 5.63531 11.7944
256 3 -0.790466 5.24313 5.61276 14.1753
50 4 1.28025 10.7798 3.36321 9.60342
162 2 0.199194 9.29483 4.95086 10.7638
163 2 0.187941 8.65803 3.43286 12.3939
164 2 0.214122 7.40202 4.26622 11.2932
165 2 0.183791 8.22794 2.70867 10.6572
276 3 -0.834686 9.20635 0.734918 15.0944
92 2 0.12565 11.1154 0.753954 12.4387
213 1 -0.678726 7.88037 3.28889 11.5808
367 2 0.201239 9.65978 4.0009 17.8358
270 3 -0.764563 13.4761 3.0978 17.5194
275 3 -0.835113 15.2875 1.41567 16.0519
352 2 0.157689 15.352 1.37995 9.64875
277 3 -0.763359 11.1661 1.08688 17.1956
278 3 -0.771963 8.48276 2.01336 17.2359
279 3 -0.84975 11.1434 3.07113 11.0495
217 1 -0.66244 8.92711 6.38848 13.6916
289 3 -0.828022 10.1891 3.16864 15.4001
290 3 -0.837839 12.1009 2.96949 13.567
175 2 0.190348 8.64936 5.43215 13.2731
341 2 0.146692 5.79578 5.67211 17.0512
364 2 0.134681 11.1614 5.8204 16.3282
369 1 -0.653729 9.29047 4.77454 18.5988
354 1 -0.685449 15.6489 0.314832 9.4474
362 1 -0.67377 11.7993 6.25522 17.1246
286 3 -0.739852 5.04813 6.42533 11.5119
174 2 0.148003 10.0125 6.55752 13.8558
342 2 0.140539 7.03832 6.59698 18.1233
19 4 1.1374 9.37191 10.6021 4.11881
23 4 1.10652 0.862023 12.0576 2.66168
299 3 -0.777848 4.22371 12.0997 8.65173
46 4 1.34695 5.26788 11.9753 0.935507
215 1 -0.667219 9.70472 7.55063 0.896037
186 2 0.132709 9.12824 10.0373 9.19414
62 4 1.30717 4.61989 10.4767 3.90813
64 4 1.08399 7.35043 8.75068 8.42744
66 4 1.50673 6.91338 10.7534 6.08468
138 2 0.237433 5.34953 6.81756 3.73086
85 2 0.219909 4.87824 7.67176 5.44778
98 2 -0.0229318 8.70195 7.64911 8.14497
122 2 0.185304 9.18981 8.29603 3.38114
123 2 0.178905 8.39188 9.49383 2.13697
124 2 0.209399 7.37565 9.05789 3.7683
260 3 -0.883106 3.00583 9.00669 1.29266
59 4 1.08846 10.354 6.66452 6.07491
168 2 0.172072 8.65283 7.45516 1.27864
171 2 0.140399 8.16769 7.29966 6.1829
179 2 0.16922 2.70756 11.1167 5.66668
180 2 0.254549 3.04479 12.263 4.28225
181 2 0.225804 4.28553 12.0158 5.60414
182 2 0.161684 9.7168 9.08584 7.14952
365 2 0.187011 10.4706 7.75497 1.67866
184 2 0.170464 10.3929 8.0709 8.47739
41 4 1.34284 2.16481 9.97254 0.416301
199 1 -0.656096 8.45834 9.16579 3.22663
351 1 -0.685992 6.95839 12.6432 1.52337
219 1 -0.679712 3.49763 11.5291 4.98291
220 1 -0.695318 10.4216 8.27218 7.39834
322 2 0.16449 8.96972 11.6448 8.50283
204 1 -0.657399 5.46631 6.76809 4.86411
298 3 -0.783573 3.163 9.73285 9.08232
287 3 -0.775274 11.1961 7.27301 4.81381
293 3 -0.808006 3.96151 8.99234 3.91682
294 3 -0.78949 4.82394 11.3488 2.38702
332 2 0.185265 10.8945 9.42682 5.81591
49 4 1.36254 5.60948 12.8472 7.9056
349 2 0.187965 7.22993 11.9403 2.40224
301 3 -0.793337 8.47358 10.9831 5.39453
302 3 -0.834641 5.9091 10.4588 4.8458
303 3 -0.825051 7.00301 9.40759 7.1154
304 3 -0.869468 6.39337 12.0362 6.85552
258 3 -0.82111 4.64397 6.96234 1.80669
76 2 0.0366483 0.699658 12.3423 7.13203
348 2 0.16091 7.53939 12.2917 0.531726
261 3 -0.808077 1.36474 10.9746 1.16351
39 4 1.42124 3.40418 7.90654 2.36729
183 2 0.168428 11.4873 8.61049 7.11447
137 2 0.183912 6.59872 6.63084 5.17342
169 2 0.153743 9.83826 8.28214 0.0269651
15 4 1.01722 11.5371 7.3862 10.8152
58 4 1.48645 6.25453 6.58869 10.2253
61 4 1.0759 8.53956 7.53921 12.0074
63 4 1.17686 6.49928 9.91903 17.453
292 3 -0.840806 7.53853 6.67319 11.0647
67 4 1.46391 4.139 10.8784 16.1289
97 2 0.00103103 6.72541 8.39095 18.2192
52 4 1.02501 6.27699 12.8451 15.4047
353 2 0.147917 6.60262 12.5072 10.3284
321 2 0.0984211 7.43791 11.7367 15.9228
176 2 0.162302 8.40054 9.93909 12.3445
177 2 0.147631 7.54826 8.83751 13.684
178 2 0.200092 6.67229 9.33816 12.0611
340 2 0.185817 5.66231 7.60425 17.1857
187 2 0.177881 7.86496 9.78812 10.6192
188 2 0.250021 5.27798 9.79606 10.4698
189 2 0.198309 4.4384 10.6918 11.9677
190 2 0.156141 5.61392 11.6346 10.8027
268 3 -0.791727 1.13276 12.4862 13.0146
218 1 -0.675897 7.61798 9.13951 12.5228
222 1 -0.668959 4.87538 10.7943 10.9311
314 4 1.15365 9.59713 10.5967 15.824
343 1 -0.696084 5.9618 6.64858 17.7038
118 2 0.159143 11.6905 6.81638 13.101
197 1 -0.653669 12.4571 6.7824 12.2653
291 3 -0.783207 10.0812 7.88307 11.3527
296 3 -0.832322 6.21538 11.0781 18.5068
295 3 -0.788842 8.11146 10.429 16.6349
173 2 0.153348 8.2215 6.79347 14.5056
300 3 -0.778895 1.9407 11.827 10.6225
305 3 -0.830069 3.31197 10.1865 14.9126
306 3 -0.802326 5.34157 9.67131 16.4206
307 3 -0.830978 4.87882 12.2273 15.527
308 3 -0.775518 3.35829 10.8017 17.7516
318 2 -0.0263286 9.6417 9.34191 14.8437
65 4 1.26672 3.47579 11.1315 9.7224
363 2 0.15329 12.0424 7.35335 16.9024
153 2 0.208169 4.28277 7.24516 16.9323
221 1 -0.661257 7.99695 10.1768 9.50363
297 3 -0.769855 6.17961 8.10116 9.40713
185 2 0.177198 7.60434 11.2766 9.40421
90 2 -0.0328239 6.70377 12.7658 13.8194
ITEM: TIMESTEP
200
ITEM: NUMBER OF ATOMS
371
ITEM: BOX BOUNDS xy xz yz pp pp pp
0.0000000000000000e+00 2.6245100000000001e+01 8.4675999999999991e+00
0.0000000000000000e+00 1.3089574400000000e+01 4.5889999999999997e-01
0.0000000000000000e+00 1.8640300000000000e+01 2.7467440000000032e-01
ITEM: ATOMS id type q x y z