ITEM: TIMESTEP
0
ITEM: NUMBER OF ATOMS
371
ITEM: BOX BOUNDS xy xz yz pp pp pp
-8.8510000000000009e+00 1.7777500000000000e+01 -8.8510000000000009e+00
0.0000000000000000e+00 1.3020299999999999e+01 4.5889999999999997e-01
0.0000000000000000e+00 1.8640300000000000e+01 2.0540000000000000e-01
ITEM: ATOMS id type q x y z
3 2 -0.0487164 0.352568 0.757106 1.51589
7 4 1.12228 1.31239 2.5587 6.09527
11 4 1.19953 0.332841 4.74339 2.54306
14 4 1.20344 -0.482995 4.00631 7.95935
70 2 0.0858014 1.46499 4.40349 1.33634
223 3 -0.853988 0.368642 2.21869 4.91701
225 3 -0.844128 -0.53517 3.43347 2.82263
226 3 -0.815884 -0.683211 6.01253 2.01148
227 3 -0.823536 0.851598 2.98374 7.50138
229 3 -0.80558 -1.02953 5.02134 6.86351
244 3 -0.801192 1.38223 5.20974 3.86441
324 2 0.200576 1.20156 0.9718 8.364
5 4 1.30597 -0.914623 2.37597 3.97477
166 2 0.186899 -3.34198 5.01195 0.052045
360 2 0.230051 -2.35889 4.27501 1.43874
247 3 -0.793686 0.0660482 4.88964 9.25498
72 2 -0.010877 -1.64072 2.96885 8.57863
281 3 -0.78528 -3.8428 5.76811 3.29306
16 4 1.25849 -1.8502 6.40795 7.04567
233 3 -0.823931 -2.63111 6.33395 8.47475
201 1 -0.64597 7.87934 0.199918 1.93875
250 3 -0.831155 5.07818 5.26397 6.89761
25 4 0.726886 8.4965 0.279556 8.11412
68 2 0.0293652 2.49755 1.24708 6.34085
131 2 0.162873 4.44804 0.73803 2.21942
139 2 0.257741 2.82472 4.53753 9.27578
202 1 -0.667542 4.49683 1.58044 2.90777
77 2 0.0625377 6.80541 1.11092 8.29681
102 2 0.219008 2.85802 4.08604 5.35693
192 1 -0.667342 3.18374 2.91321 5.59935
243 3 -0.747957 6.18003 2.11478 0.480207
245 3 -0.786392 4.63139 4.28602 1.64563
246 3 -0.79481 4.72614 3.18266 8.54611
132 2 0.150666 3.58013 2.35422 2.81897
254 3 -0.814576 2.35633 5.38673 0.32305
30 4 1.06228 5.60054 2.8553 1.77105
32 4 1.25532 4.15569 5.65488 0.901549
2 2 -0.00894193 2.71707 0.739241 2.68943
103 2 0.169119 3.66837 2.37886 4.61915
104 2 0.238932 3.88793 3.05693 6.41948
130 2 0.149138 4.97608 1.35756 3.92689
33 4 1.25813 5.53294 4.48375 8.22507
335 2 0.200252 7.77124 1.35339 2.23944
129 2 0.185245 7.65397 0.0421818 0.818183
10 4 1.05233 1.78085 1.82682 11.4002
17 4 1.26284 0.0925698 4.8002 15.6401
34 4 1.2777 0.968819 6.0987 9.89178
37 4 1.20784 1.95415 6.35261 17.8374
69 2 -0.00520862 1.16738 0.808244 10.1374
18 4 1.03479 -0.611643 6.34873 12.9751
110 2 0.160628 -0.285813 2.8388 10.7803
111 2 0.203205 0.648284 3.89158 12.1043
112 2 0.167572 -0.317541 2.35417 12.6005
113 2 0.220427 2.23647 3.62971 15.0268
114 2 0.193114 0.744713 3.30692 13.6997
115 2 0.159497 0.742316 2.56855 15.5718
144 2 0.242058 1.8734 5.705 12.5858
195 1 -0.68929 0.264574 2.88328 11.7789
196 1 -0.654402 1.11908 3.43824 14.8666
230 3 -0.77891 -1.51603 4.14111 16.2041
231 3 -0.829534 -0.0492526 5.73827 14.3764
253 3 -0.806607 0.994993 5.45759 16.8539
326 2 0.166522 -0.19114 2.69407 17.5343
224 3 -0.817392 2.10976 0.921831 12.719
248 3 -0.759322 0.361503 6.31519 11.6899
73 2 0.0272347 -2.1785 5.73677 12.5235
239 3 -0.857392 3.63437 1.07202 15.0036
205 1 -0.643436 2.75285 5.47296 9.9048
240 3 -0.862876 5.64524 1.60034 16.686
237 3 -0.811776 4.00284 0.825416 9.55516
238 3 -0.758108 3.03556 2.8203 10.9937
242 3 -0.85001 7.03008 0.917257 13.178
140 2 0.206659 2.82679 5.24448 11.0248
347 2 0.203398 8.04178 0.751418 10.3193
252 3 -0.835951 5.96124 3.50102 13.419
241 3 -0.813763 5.99722 2.30788 10.9799
251 3 -0.831289 4.23072 3.63099 15.5418
24 4 1.2449 7.0416 1.67337 17.3831
26 4 1.38242 4.5197 2.25401 10.058
28 4 1.24062 4.21611 1.96833 16.087
29 4 1.36351 6.67643 2.33194 12.4464
36 4 1.26244 5.45946 4.23811 14.7015
78 2 -0.0282697 3.06158 1.96664 17.318
142 2 0.214473 2.6149 4.74496 14.2107
143 2 0.217447 3.29406 4.42652 12.5243
206 1 -0.679721 2.78697 5.21048 13.1559
346 1 -0.628552 7.31175 0.200122 9.61852
341 2 0.186626 5.0603 5.46073 17.1592
141 2 0.238079 3.42246 6.35659 9.65171
8 4 1.43372 2.62531 0.230445 14.0341
38 4 1.3209 4.13013 6.50448 13.1917
12 4 1.23432 -3.81629 6.9444 4.48216
21 4 1.01391 -3.89217 10.3615 7.30127
74 2 -0.0135389 -4.59667 9.79775 5.86198
105 2 0.157738 -4.10451 9.26134 3.87108
106 2 0.169453 -2.90432 8.25281 2.61097
107 2 0.146101 -2.26709 8.81229 4.36588
330 2 0.162553 -3.2746 8.82799 0.370684
148 2 0.177768 -2.74526 12.3074 7.40159
193 1 -0.684815 -3.23281 8.5258 3.79039
208 1 -0.676799 -2.20179 11.4674 6.91616
228 3 -0.821608 -2.78771 6.65786 5.83603
234 3 -0.864065 -3.46806 9.14163 8.1813
235 3 -0.831586 -4.79098 11.3554 8.09927
109 2 0.206168 -3.31362 7.16426 1.49861
332 2 0.152789 -6.14977 10.6452 5.63375
333 2 0.1658 -5.57576 10.5754 3.84672
334 1 -0.650001 -6.1536 10.038 4.68343
6 4 1.15525 -5.58916 12.2461 9.13018
149 2 0.0951717 -2.55803 11.0963 5.69678
194 1 -0.65546 -2.72541 7.70218 0.724725
4 3 -0.822055 -6.65518 11.8654 0.748287
312 2 0.15192 -3.81881 10.993 0.918906
20 4 1.37793 -3.16626 7.94034 9.23284
1 4 0.94637 -7.25197 12.5362 1.94547
325 1 -0.677695 -7.32323 12.7127 8.41416
323 2 0.167324 -7.01049 12.3015 7.37543
370 3 -0.794251 -7.71246 11.4886 3.01224
331 2 0.232378 -5.91521 8.83579 4.87751
311 2 0.0606063 -5.29466 9.43106 0.0656526
259 3 -0.769198 0.494244 11.4859 3.83716
108 2 0.0100113 -1.44327 8.69061 1.73266
87 2 0.00389933 1.22971 8.48693 6.70612
146 2 0.15192 -1.1091 9.93561 6.20336
31 4 1.1898 1.83567 6.66625 4.18739
262 3 -0.819824 1.14129 7.49824 9.1207
86 2 -0.0331002 0.1669 9.98287 8.7312
84 2 -0.0151427 0.861195 10.4081 6.3285
145 2 -0.00277585 -0.0996246 8.79444 3.84954
150 2 0.127151 -1.67748 10.7106 7.59791
128 2 0.15875 -1.5879 12.2727 2.6287
76 2 0.0176386 -0.55602 12.3453 6.50174
147 2 0.140499 -0.955138 8.24836 5.22876
207 1 -0.661753 -0.34915 9.05437 5.7646
13 4 1.09064 -0.870252 7.16468 0.979435
257 3 -0.873329 2.07663 7.48222 2.82636
40 4 0.687984 0.902654 10.1128 4.55366
42 4 0.95668 1.4233 8.87562 8.40637
79 2 -0.0195447 0.58684 7.49673 5.07304
80 2 0.0085532 -0.4781 7.49645 6.88212
249 3 -0.76417 3.23374 6.59372 5.32453
344 2 0.0168069 -0.485199 11.5594 9.11996
22 4 0.991622 -3.92854 10.8874 13.585
75 2 0.0782845 -3.10975 12.1346 14.6958
88 2 0.00465164 -2.15348 11.174 9.52547
100 2 0.276122 -5.76807 11.4061 11.7665
101 2 0.191357 -5.65706 10.2975 10.2125
126 2 0.0492641 -4.0158 9.35566 14.7031
317 2 0.0768192 -3.85692 12.2069 17.5327
191 1 -0.677956 -6.08986 11.2348 10.647
200 1 -0.636648 -2.95334 10.5068 15.3104
232 3 -0.769012 -4.61841 7.31559 10.1198
236 3 -0.831245 -5.34934 11.5546 13.4822
263 3 -0.824281 -2.15061 8.58059 10.2111
264 3 -0.784457 -2.97173 10.4409 12.1983
316 3 -0.803466 -7.62575 12.6079 15.0291
121 2 0.216582 -2.79303 7.76842 12.2183
345 2 0.204191 -2.44369 12.7342 10.1978
310 2 0.151036 -2.58109 10.326 18.1084
127 2 0.170053 -3.25213 10.6274 16.509
315 3 -0.812395 -6.38983 11.1884 16.79
71 2 0.123614 -2.1749 7.15901 18.2658
309 4 0.992447 -5.47993 11.3671 18.1209
120 2 0.151962 -2.55977 7.50972 14.0177
313 1 -0.643303 -3.53749 10.8104 18.4988
198 1 -0.668214 -2.02833 7.63536 13.0871
99 2 0.157335 -7.20242 11.2025 10.5359
337 2 0.165376 -1.56011 12.0251 18.4186
125 2 0.143184 -1.89274 10.0793 15.1655
27 4 1.33287 -0.615818 12.7723 13.7321
266 3 -0.848203 -0.380745 10.1538 11.2555
320 2 0.064706 1.22693 9.26671 18.5751
209 1 -0.685369 3.10316 7.20939 16.722
336 2 0.178122 -1.71532 12.1958 16.519
152 2 0.22147 2.85005 6.77137 15.6593
338 2 0.181816 -0.125348 12.8693 17.4902
210 1 -0.686122 0.899955 8.6098 15.1048
43 4 1.20344 -1.91448 10.0666 10.875
151 2 0.175072 2.80382 8.32302 16.8931
44 4 1.3029 2.40968 9.12646 14.101
265 3 -0.80647 3.28281 7.74073 13.5791
156 2 0.191756 1.01196 8.73081 16.1599
319 2 -0.0128166 -1.56992 11.3726 14.3204
119 2 0.175528 -1.13507 8.52799 13.1124
339 1 -0.672084 -1.27461 12.6441 17.5066
45 4 1.44949 0.826237 11.0205 11.804
267 3 -0.777015 1.73966 9.99778 12.8486
154 2 0.228738 0.620709 7.49727 14.7733
155 2 0.151749 0.186699 9.39226 14.6387
153 2 0.200989 4.18359 7.08624 16.9754
268 3 -0.868418 0.302553 12.3525 12.5887
255 3 -0.818974 0.679002 7.71482 18.633
133 2 0.175453 7.20189 4.3264 2.94548
134 2 0.169553 8.17343 3.09025 1.87938
357 2 0.243742 10.5207 1.99974 1.19587
157 2 0.168534 9.87012 3.19521 5.37983
158 2 0.170822 9.00081 3.47959 3.65702
159 2 0.211486 10.4059 4.64661 4.20936
161 2 0.164879 8.93143 4.38701 8.01411
172 2 0.149763 8.51566 5.38635 5.98332
203 1 -0.664229 7.27692 3.25173 2.61497
211 1 -0.666989 9.96141 3.61262 4.27665
269 3 -0.799555 10.3882 0.97064 2.78579
271 3 -0.784177 9.69988 1.26697 8.38108
359 1 -0.694793 10.5112 2.66963 0.226729
204 1 -0.645015 5.81278 5.88522 4.33852
212 1 -0.67382 8.97718 3.86169 9.02606
137 2 0.165566 6.51354 4.96763 4.55455
81 2 -0.0124662 7.19336 4.04438 8.17156
366 2 0.169168 7.95861 5.55659 1.6436
50 4 1.2855 10.4911 2.59583 9.10074
369 1 -0.642816 8.8783 5.83385 2.16652
368 2 0.176307 9.36192 4.95453 2.84862
170 2 0.16831 8.88482 6.12298 4.20557
136 2 0.231766 4.97974 5.70397 3.58247
56 4 0.922815 10.237 6.22492 0.686509
35 4 1.04391 4.78728 6.40766 5.8522
216 1 -0.655504 8.92198 6.32416 5.41964
160 2 0.156225 8.17028 3.0253 9.1884
135 2 0.138671 7.24914 2.57186 3.54367
355 2 0.137243 16.0614 1.36208 8.94906
167 2 0.197495 13.7286 3.25616 0.510313
214 1 -0.682154 13.9957 4.24693 0.903289
356 2 0.212123 11.1758 3.55113 0.296732
371 3 -0.772844 12.4971 0.625835 0.10428
280 3 -0.803353 12.1245 3.38047 2.8046
89 2 0.00407979 16.1412 0.855084 3.16169
283 3 -0.842403 11.7039 3.36642 8.41272
282 3 -0.763136 11.562 5.56228 1.27086
348 2 0.182226 14.4632 2.23472 1.50987
349 2 0.141403 15.7038 0.664662 1.49336
47 4 1.2739 11.2842 2.3391 3.71365
351 1 -0.667514 14.6717 1.11691 1.8764
350 2 0.197905 14.4531 0.935842 2.98654
284 3 -0.821451 13.1819 3.773 6.35482
288 3 -0.843705 11.1004 5.37009 6.88328
51 4 1.48338 13.6177 2.31771 5.61039
55 4 1.32418 12.777 4.80436 2.22894
57 4 1.34327 12.2641 4.44901 7.3647
93 2 0.0991992 13.3124 5.42986 8.27844
272 3 -0.840459 15.0007 2.48472 4.69346
273 3 -0.802822 12.1937 1.7143 4.91058
274 3 -0.814784 13.8355 1.1223 6.83038
53 4 1.40442 9.60569 1.84037 15.6588
82 2 0.0248197 6.74296 4.40082 15.7626
162 2 0.205596 8.99103 4.5969 9.83671
163 2 0.206272 8.52608 3.4196 10.975
164 2 0.248536 9.18826 2.49536 12.4308
165 2 0.202824 8.37184 4.20972 12.6971
173 2 0.212778 7.47795 5.4721 13.4913
213 1 -0.644379 8.32968 3.2014 12.079
278 3 -0.78982 8.23466 2.53286 16.6752
279 3 -0.80914 10.8327 2.4283 10.695
289 3 -0.788729 10.1409 2.95007 14.4901
292 3 -0.790635 7.48503 6.31379 10.9291
175 2 0.181575 9.38079 5.34218 13.7604
362 1 -0.654469 10.1834 5.68741 17.6334
277 3 -0.796811 10.995 1.42362 16.6645
217 1 -0.67495 8.4676 6.01731 13.6485
256 3 -0.789065 5.1679 5.84781 14.3714
276 3 -0.85238 8.98763 0.581462 14.9177
363 2 0.171675 10.8837 5.02688 17.0893
291 3 -0.796185 10.2819 6.50324 11.4878
364 2 0.136669 9.70644 6.50756 16.9542
358 2 0.191984 9.93013 3.14867 18.5054
285 3 -0.823288 5.48815 5.41976 9.48808
361 2 0.143959 9.34339 5.00282 18.2058
342 2 0.178447 6.54656 5.15187 18.1985
343 1 -0.678502 5.69055 5.88413 17.9924
354 1 -0.659334 14.9612 1.25541 9.38991
118 2 0.0252434 12.871 6.30041 12.7663
60 4 0.927067 11.7512 2.95351 14.0221
91 2 -0.0209221 13.4587 1.36385 10.6566
353 2 0.141456 14.8201 0.462665 10.2071
327 1 -0.672524 16.286 1.95017 17.5908
197 1 -0.657709 13.256 4.88637 11.7506
96 2 -0.0199343 12.2478 4.51323 13.3655
270 3 -0.74572 13.3522 2.70094 16.8761
95 2 0.103718 12.7529 2.82819 15.3765
94 2 0.106808 12.0972 4.36948 10.6805
290 3 -0.79866 12.089 1.76852 13.0165
328 2 0.173478 16.628 0.948281 17.0961
117 2 0.143435 13.4401 3.90906 12.3375
275 3 -0.797879 15.1502 1.62767 14.9744
9 4 1.21171 15.1552 2.70787 16.2781
48 4 1.31818 12.0552 1.81218 17.7623
54 4 0.938311 11.9189 1.47337 11.4675
15 4 0.95655 11.9433 6.30283 11.1607
352 2 0.15845 14.4225 2.25159 9.47463
116 2 0.175004 14.0935 5.18135 11.1039
329 2 0.192998 15.8561 1.76828 18.6395
23 4 1.27731 0.73088 12.4743 2.42153
41 4 1.27865 1.98837 10.2407 0.297771
46 4 1.36418 4.75867 12.5188 1.09669
62 4 1.28974 4.59927 11.0677 3.97654
85 2 0.0919116 5.51615 7.88476 6.36585
179 2 0.14603 2.9802 11.04 5.83256
180 2 0.22533 2.79788 12.3812 4.42758
49 4 1.24695 5.55954 12.8247 7.91784
219 1 -0.669927 3.48995 11.8584 5.21354
258 3 -0.828649 4.32386 7.08757 1.57881
298 3 -0.769977 2.94046 9.43435 8.49876
293 3 -0.741682 3.99898 9.2878 3.64619
294 3 -0.841927 4.59755 11.7344 2.50938
299 3 -0.78906 4.49427 11.7318 8.7667
302 3 -0.849413 5.85437 11.0232 4.96059
260 3 -0.855441 3.05498 9.42207 1.09277
39 4 1.43998 3.34199 8.27246 2.18298
261 3 -0.807473 1.29636 11.3924 1.28183
83 2 0.0729593 2.59934 9.64752 4.20451
138 2 0.159641 6.33111 6.91368 4.19254
296 3 -0.852202 5.74191 11.7575 0.0976474
181 2 0.275625 4.16008 12.5554 5.8864
367 2 0.179098 8.74652 6.86876 2.66414
185 2 0.200806 8.43871 10.9862 8.47427
304 3 -0.823903 6.90091 11.9448 7.35177
169 2 0.163347 9.37553 8.7348 0.675134
215 1 -0.642031 10.2959 8.12752 0.678259
199 1 -0.675825 8.63347 8.73881 3.36051
287 3 -0.772575 11.6739 7.18994 5.01149
303 3 -0.785222 6.55277 9.22915 6.8401
220 1 -0.68708 10.6268 8.10089 7.67497
221 1 -0.692005 8.23255 10.0141 9.15656
59 4 1.08551 10.6496 6.76316 6.20532
19 4 1.10277 9.25176 10.3684 4.11798
301 3 -0.78924 8.40952 10.8611 5.49868
64 4 1.05151 7.20233 8.73572 8.25987
66 4 1.46337 6.8902 10.8832 6.147
98 2 -0.0156726 8.69243 7.82493 7.96034
122 2 0.175797 7.54791 8.94591 3.20289
123 2 0.163518 8.75471 7.83726 4.13616
124 2 0.180962 9.25363 8.5312 2.35598
168 2 0.160643 11.2118 8.58863 1.40275
171 2 0.121499 8.47384 7.36048 5.7588
182 2 0.152081 10.0533 9.08925 7.59676
97 2 -0.00765634 6.68046 9.27921 0.324421
184 2 0.174745 10.308 7.50167 8.59563
322 2 0.160035 9.17159 12.0593 8.87159
183 2 0.194616 11.7594 8.2733 7.6124
186 2 0.140583 9.17847 9.39705 9.23069
67 4 1.47864 4.11411 10.9734 16.2865
188 2 0.149624 4.8991 10.6274 11.3325
190 2 0.238663 3.68555 9.15449 11.3654
222 1 -0.657589 4.4194 9.73897 10.7785
300 3 -0.790066 2.02345 11.3412 10.559
305 3 -0.778582 3.3821 10.074 15.1008
306 3 -0.774398 5.59777 10.1034 16.899
307 3 -0.808429 4.69455 12.2914 15.6076
308 3 -0.807335 2.99625 10.9988 17.5558
189 2 0.269724 5.1687 9.06254 10.1648
65 4 1.19408 3.45142 10.6975 9.53123
340 2 0.180085 6.00963 6.96841 17.857
92 2 0.0903953 2.73491 12.6587 11.2355
52 4 0.973709 6.07796 12.8389 15.0614
286 3 -0.802073 4.95064 6.67522 11.6148
90 2 -0.046511 6.47233 12.1466 13.6012
58 4 1.50761 5.98707 6.59812 10.4251
297 3 -0.820093 6.30082 7.99359 9.3558
321 2 0.0798243 7.34143 12.0268 15.9109
314 4 1.20133 9.63409 11.2805 15.8819
61 4 1.09504 8.79009 6.838 11.9059
174 2 0.1557 8.42445 6.80304 14.4378
295 3 -0.796122 8.29373 11.122 16.7978
187 2 0.158887 7.80911 10.3791 10.1415
365 2 0.125086 11.154 8.27947 18.1697
177 2 0.154264 9.51413 9.17933 12.6312
178 2 0.158054 7.57881 8.70749 12.7439
63 4 1.14666 6.71067 10.7545 17.8842
176 2 0.172393 8.37654 9.18665 11.0093
218 1 -0.650131 8.54481 8.75783 12.1333
318 2 -0.0339556 9.57165 10.0904 14.6749
ITEM: TIMESTEP
100
ITEM: NUMBER OF ATOMS
371
ITEM: BOX BOUNDS xy xz yz pp pp pp
-8.8687020000000008e+00 1.7813054999999999e+01 -8.8687020000000008e+00
0.0000000000000000e+00 1.3020299999999999e+01 4.5981779999999972e-01
0.0000000000000000e+00 1.8640300000000000e+01 2.0540000000000000e-01
ITEM: ATOMS id type q x y z
3 2 -0.0371143 0.776976 1.00871 1.54779
7 4 1.12288 1.38079 2.48672 6.02781
11 4 1.22794 0.316194 4.76187 2.56508
14 4 1.26681 -0.440653 4.06049 8.00786
70 2 0.0681231 1.27325 4.4054 1.21056
223 3 -0.838284 0.474119 1.97921 4.88401
225 3 -0.848894 -0.506415 3.36443 2.92099
226 3 -0.819883 -0.665136 5.91629 1.89398
227 3 -0.839397 0.747715 3.12953 7.24998
229 3 -0.824378 -1.0237 5.09563 6.96455
244 3 -0.840069 1.34452 5.28722 3.74324
324 2 0.186731 1.39685 1.25256 8.29416
5 4 1.30727 -0.896979 2.32381 4.02888
166 2 0.176873 -2.97922 4.9776 0.146768
360 2 0.229981 -2.10503 3.94819 1.49152
247 3 -0.847512 0.141029 4.93261 9.19063
335 2 0.179085 7.57632 1.30662 2.45699
281 3 -0.74491 -3.81287 5.83014 3.40537
16 4 1.31119 -1.83587 6.38807 7.0864
233 3 -0.825766 -2.62081 6.39947 8.5271
201 1 -0.657577 7.80275 0.184895 2.25664
139 2 0.242179 2.64302 4.62324 9.11579
25 4 0.711414 8.58391 0.340239 8.13514
68 2 0.0226413 2.54159 1.18155 6.45883
131 2 0.154282 4.21734 0.694286 2.03295
72 2 -0.0153479 -1.68295 3.08387 8.68787
202 1 -0.6725 4.29727 1.60898 2.71188
77 2 0.0593502 6.88972 1.13612 7.98136
102 2 0.195769 3.04955 3.93138 5.36466
192 1 -0.666769 3.28386 2.72689 5.59549
243 3 -0.761772 5.98142 2.23172 0.180355
245 3 -0.806389 4.66805 4.23471 1.63754
246 3 -0.808096 4.8365 3.18872 8.54892
132 2 0.161203 3.34644 2.21373 2.93776
254 3 -0.803594 2.34631 5.47467 0.281224
30 4 1.04323 5.51084 2.86636 1.79747
32 4 1.2605 4.10677 5.58091 1.00293
2 2 -0.000328109 2.68549 0.500865 3.05434
103 2 0.168269 3.71526 2.24359 4.60863
104 2 0.202203 3.9782 2.50138 6.52157
130 2 0.130151 5.00981 1.48291 3.62387
33 4 1.25431 5.54086 4.64884 8.33729
325 1 -0.686962 1.51089 0.148548 8.42363
135 2 0.139197 6.83827 2.4731 3.68323
141 2 0.216913 3.28924 6.26637 9.31313
10 4 1.01677 1.85801 1.83708 11.405
17 4 1.25122 0.0934981 4.78829 15.5513
34 4 1.3619 0.846591 6.09244 9.99096
37 4 1.17701 1.88816 6.42557 17.7786
69 2 -0.0144082 1.02326 0.94038 10.1897
18 4 1.09353 -0.691277 6.29544 12.8626
110 2 0.14438 -0.503056 2.52019 11.0381
111 2 0.194147 0.658914 3.80737 11.7268
112 2 0.189762 -0.194022 2.43527 12.8776
113 2 0.198113 1.93746 3.40446 15.2412
114 2 0.201013 0.716233 3.04032 13.7843
115 2 0.205233 0.378821 2.28435 15.5525
144 2 0.238679 1.83255 5.64932 12.4388
195 1 -0.684787 0.261723 2.707 11.8508
196 1 -0.663459 0.84027 3.17768 14.9817
230 3 -0.746613 -1.50954 4.11194 15.9936
231 3 -0.814354 -0.168203 5.77742 14.2286
253 3 -0.819849 0.956882 5.566 16.6987
326 2 0.165507 -0.280254 2.95724 17.6755
224 3 -0.784014 2.17024 0.953205 12.7742
248 3 -0.833292 0.243886 6.20022 11.5944
73 2 0.0259506 -2.29267 5.66152 12.6313
239 3 -0.843698 3.55309 0.978572 14.9724
205 1 -0.652019 2.66672 5.49071 9.78829
240 3 -0.825426 5.71082 1.60315 16.4997
237 3 -0.801898 4.05337 0.678341 9.58713
238 3 -0.769371 3.03158 2.9554 10.8138
242 3 -0.843354 7.10346 0.98427 13.1435
140 2 0.221707 3.04801 5.23708 10.8061
347 2 0.198311 7.75707 1.18163 10.1658
252 3 -0.821775 6.02355 3.49405 13.569
241 3 -0.804202 5.79338 2.28902 11.0521
251 3 -0.825851 4.19153 3.51263 15.5219
24 4 1.26197 7.0181 1.78818 17.4019
26 4 1.38221 4.45547 2.26538 9.94772
28 4 1.2408 4.16064 1.98858 16.0373
29 4 1.3574 6.61974 2.46222 12.433
36 4 1.25367 5.48349 4.31889 14.8138
78 2 -0.0330297 3.15877 1.89731 17.3766
142 2 0.206652 2.52076 4.87947 13.957
143 2 0.22589 3.1883 4.45726 12.245
206 1 -0.697582 2.77999 5.25111 12.9502
346 1 -0.634025 7.21596 0.44854 9.48959
341 2 0.16858 5.05538 5.15367 17.2121
116 2 0.147508 -3.17602 5.19293 11.1775
38 4 1.32651 4.12921 6.53519 13.2081
345 2 0.238009 6.25102 0.162561 9.97075
12 4 1.28168 -3.85349 6.87311 4.57206
21 4 0.976418 -3.76865 10.2513 7.1438
74 2 0.0034165 -4.53015 9.70098 5.67399
105 2 0.144509 -3.86946 9.16985 4.08938
106 2 0.180195 -2.88719 8.07338 2.76096
107 2 0.146469 -2.05475 8.66877 4.51068
330 2 0.180316 -3.24175 8.72622 0.434036
148 2 0.160971 -2.78105 12.2936 6.78913
193 1 -0.672085 -3.0886 8.35812 3.92615
208 1 -0.648164 -2.20466 11.287 6.5174
228 3 -0.810056 -2.80962 6.60267 5.88598
234 3 -0.838597 -3.40049 8.99554 8.06936
235 3 -0.782971 -4.68815 11.3653 7.97546
109 2 0.200189 -3.5517 7.26352 1.59826
332 2 0.165703 -6.32911 10.9288 5.57937
333 2 0.141064 -5.52758 10.6261 3.76905
334 1 -0.661748 -6.16471 10.2144 4.66868
6 4 1.11532 -5.58516 12.1739 9.07488
149 2 0.107254 -2.45953 10.7734 5.40799
194 1 -0.670769 -2.82153 7.74122 0.827721
4 3 -0.808558 -6.42303 11.7669 0.782873
312 2 0.150382 -3.64534 10.8525 0.691936
79 2 -0.00427142 0.737358 7.26069 5.39525
1 4 0.902812 -7.20562 12.4421 2.02067
80 2 0.0061033 -0.702276 7.75996 7.0645
323 2 0.170902 -7.27836 12.4251 7.45863
249 3 -0.807329 3.27036 6.59197 4.95447
331 2 0.24406 -5.91868 9.11036 4.91481
322 2 0.152924 -8.17473 12.545 9.06639
259 3 -0.790519 0.587473 11.5178 3.80684
108 2 0.0141907 -1.53361 8.59346 1.91417
87 2 -0.017285 1.1895 8.41266 6.6599
146 2 0.159776 -1.01292 9.79415 5.89302
31 4 1.2647 1.90882 6.65657 4.21598
262 3 -0.832493 1.04926 7.43052 9.16685
86 2 -0.0336856 0.139253 9.78626 8.59165
84 2 -0.00957659 0.907397 10.2772 6.1864
145 2 0.0176364 -0.0341701 8.73623 3.69907
150 2 0.107211 -1.52993 10.6193 7.32121
128 2 0.168266 -1.53964 12.2617 2.96044
76 2 0.00208231 -0.393111 11.9638 6.83804
147 2 0.143435 -0.919946 8.06197 5.04717
207 1 -0.668813 -0.288869 8.89009 5.57188
13 4 1.04676 -0.923994 7.18636 0.944043
257 3 -0.859432 2.01205 7.73706 2.9767
40 4 0.697909 0.969567 10.0382 4.41365
42 4 0.949449 1.43759 8.73783 8.33434
129 2 0.17221 -1.317 12.7513 1.13283
337 2 0.166373 -2.27099 12.0923 0.173183
22 4 1.0561 -3.89901 10.9207 13.3089
75 2 0.0894502 -3.05846 12.2024 14.4443
88 2 -0.00734 -2.06153 11.359 9.73073
100 2 0.264516 -5.58639 11.3081 11.5473
101 2 0.190677 -5.50297 9.89096 10.2006
126 2 0.0607794 -4.02995 9.43112 14.6256
317 2 0.0542373 -3.95629 12.2436 17.4688
191 1 -0.656794 -5.89662 11.0096 10.495
200 1 -0.645238 -3.02145 10.6077 15.15
232 3 -0.846366 -4.53848 7.47428 10.1303
236 3 -0.84948 -5.37153 11.5235 13.3472
263 3 -0.819532 -2.25295 8.51045 10.4435
264 3 -0.873284 -2.9441 10.5452 12.136
316 3 -0.800089 -7.76674 12.5372 15.0451
121 2 0.209411 -2.89738 7.59492 12.4685
344 2 0.0496182 -0.384773 11.915 9.53409
310 2 0.155 -2.56748 10.1916 17.8099
127 2 0.174858 -3.1864 10.6776 16.3297
315 3 -0.833146 -6.41823 11.0897 16.9147
71 2 0.122442 -2.24663 7.18546 18.4466
309 4 1.00965 -5.35865 11.3319 18.0704
120 2 0.151328 -2.41544 7.56362 14.3489
313 1 -0.654209 -3.45846 10.6806 18.3065
198 1 -0.668685 -2.10493 7.54255 13.1945
311 2 0.0800557 -4.48978 9.49925 18.4906
20 4 1.42627 -3.20788 7.93024 9.37043
125 2 0.145233 -2.02188 10.1749 14.967
27 4 1.35058 -0.632192 12.8543 13.6806
266 3 -0.853437 -0.413114 10.173 11.2794
320 2 0.0756289 1.06182 9.40894 18.5207
209 1 -0.663576 3.26345 7.26479 16.8813
336 2 0.175581 -1.78351 12.2548 16.8864
152 2 0.201287 2.95887 6.94368 15.7927
338 2 0.197355 -0.281027 12.8689 17.8392
210 1 -0.686967 1.03488 8.5839 15.1543
43 4 1.23156 -1.9729 10.1259 10.9592
151 2 0.181521 3.07931 8.38556 17.0564
44 4 1.35628 2.47309 9.16331 14.0846
265 3 -0.823577 3.30986 7.84819 13.5865
156 2 0.186158 1.46582 8.63395 16.1518
319 2 -0.00389996 -1.46549 11.3862 14.2658
119 2 0.176048 -1.22558 8.43236 12.9939
339 1 -0.667956 -1.39881 12.7564 17.8737
45 4 1.50021 0.831776 10.9413 11.8878
267 3 -0.832724 1.65073 10.0532 12.9889
154 2 0.233011 0.687617 7.584 14.8134
155 2 0.172517 0.270164 9.35256 14.9882
153 2 0.187672 4.33277 6.76679 17.2384
268 3 -0.869469 0.291762 12.2518 12.5622
255 3 -0.804342 0.645204 7.82906 18.5794
99 2 0.133701 -7.12165 11.1512 10.4516
8 4 1.40766 -6.22333 12.9122 14.0489
133 2 0.186257 7.07849 4.35463 3.35191
134 2 0.165596 8.044 3.01719 2.40193
357 2 0.285167 10.5722 1.80265 1.34095
157 2 0.185724 9.95105 3.11033 5.42382
158 2 0.175721 8.89071 3.41672 3.80665
159 2 0.195091 10.3566 4.57868 4.31536
161 2 0.163721 8.96936 4.05387 7.83443
172 2 0.158147 8.30222 5.428 5.85075
203 1 -0.67504 7.09715 3.27483 2.93591
211 1 -0.67251 9.95705 3.52598 4.33241
269 3 -0.779126 10.3651 1.02975 2.81187
271 3 -0.781826 9.85796 1.35932 8.1911
359 1 -0.668749 10.6951 2.38825 0.290059
204 1 -0.647167 5.89898 5.84958 4.54574
212 1 -0.662617 8.96252 3.89675 8.9703
137 2 0.170436 6.45151 5.05999 5.09279
81 2 -0.0017069 7.20215 4.23664 8.06392
366 2 0.162176 8.03875 5.38562 1.52994
50 4 1.32049 10.5082 2.55469 9.06339
369 1 -0.642436 8.89217 5.75151 2.19651
368 2 0.175017 9.32556 4.9738 2.97629
170 2 0.158926 8.85441 6.12859 4.18146
136 2 0.22914 5.28226 5.45597 3.67485
56 4 0.926726 10.2923 6.21903 0.742692
274 3 -0.800078 13.7668 1.11562 6.87831
216 1 -0.672727 8.88458 6.2407 5.41381
250 3 -0.843501 5.09564 5.56704 7.08111
273 3 -0.809178 12.4189 1.96414 4.78667
355 2 0.141867 16.1097 1.36454 9.29452
167 2 0.186353 13.9059 3.14572 0.349841
214 1 -0.684753 14.2556 4.12059 0.91768
356 2 0.223226 11.268 3.33141 0.422183
371 3 -0.74863 12.5221 0.423201 0.209884
280 3 -0.816054 12.1477 3.41383 2.62529
89 2 0.0317468 16.2182 0.789347 3.24286
283 3 -0.865932 11.7735 3.28179 8.50279
282 3 -0.756822 11.6412 5.53283 1.02427
348 2 0.182002 14.5773 2.12373 1.5457
349 2 0.150908 15.89 0.721369 1.60439
47 4 1.28483 11.3589 2.47981 3.66361
351 1 -0.693757 14.8036 1.03721 1.87676
350 2 0.201598 14.5575 0.849701 2.91884
284 3 -0.808528 13.4181 3.74943 6.43359
288 3 -0.839891 11.2069 5.17501 6.76412
51 4 1.56442 13.7248 2.36005 5.70594
55 4 1.23103 12.8983 4.6721 2.01618
57 4 1.28163 12.3666 4.38928 7.50171
93 2 0.0756438 13.2393 5.56999 8.38084
272 3 -0.842731 15.0594 2.53094 4.82707
329 2 0.186269 15.5152 1.55167 0.072883
53 4 1.45342 9.55894 1.7483 15.7449
82 2 0.0118383 6.79796 4.26106 15.881
162 2 0.180951 9.32893 4.79469 9.59089
163 2 0.19979 8.52536 3.38146 10.8595
164 2 0.234361 9.00559 2.27762 12.3884
165 2 0.204277 8.45013 4.11921 12.7417
173 2 0.191756 7.6537 5.27703 13.6197
213 1 -0.640175 8.30047 3.15468 12.047
278 3 -0.825444 8.45223 2.43841 16.6876
279 3 -0.813969 10.6804 2.29633 10.6505
289 3 -0.804382 10.3638 2.97753 14.5146
292 3 -0.756981 7.60444 6.35273 11.1244
175 2 0.215756 9.38425 5.08481 14.3289
362 1 -0.655407 10.1704 5.86991 17.6348
277 3 -0.797952 10.8471 1.24883 16.7757
217 1 -0.676222 8.64809 5.80751 13.8964
256 3 -0.817758 5.11745 5.81003 14.358
276 3 -0.877588 8.97649 0.59637 14.9148
363 2 0.180993 10.9709 5.33067 17.0752
160 2 0.155923 7.99811 3.40831 9.40724
352 2 0.156424 14.4177 2.30784 9.3232
358 2 0.202013 10.1843 2.76359 18.3403
285 3 -0.824888 5.60845 5.42684 9.67774
361 2 0.151881 9.33524 5.23869 18.084
342 2 0.201729 6.52027 4.88252 18.4864
343 1 -0.660785 5.69397 5.5731 18.087
354 1 -0.678474 14.9934 1.30037 9.37837
118 2 0.0674404 12.9898 6.01823 12.7816
60 4 0.980438 11.7718 2.93285 13.9856
91 2 -0.00524839 13.3731 1.63994 10.4467
353 2 0.110531 14.6896 0.484762 10.2509
327 1 -0.680846 16.3243 2.05259 17.6456
197 1 -0.655221 13.1862 4.90359 11.7561
96 2 0.000939659 12.246 4.48831 13.4515
270 3 -0.780473 13.311 2.76165 16.9166
95 2 0.10675 12.7621 2.79825 15.4292
94 2 0.0660588 11.9979 4.7404 10.4578
290 3 -0.827371 12.3034 1.91091 12.8229
328 2 0.182215 16.7329 1.14104 17.0236
117 2 0.175763 13.3819 3.90963 12.1779
275 3 -0.789251 15.2705 1.59591 15.0292
9 4 1.19216 15.1384 2.66567 16.3383
48 4 1.29481 12.1131 1.67881 17.6527
54 4 0.953753 11.9006 1.48608 11.3674
15 4 1.02423 11.9944 6.46109 11.0913
23 4 1.26526 0.700532 12.4922 2.50608
41 4 1.30988 1.89597 10.2728 0.292431
46 4 1.35452 4.86922 12.4802 1.05134
62 4 1.25696 4.62412 11.0887 3.98955
85 2 0.0878729 5.44685 8.1201 6.18521
179 2 0.132978 2.97503 10.9383 5.64412
180 2 0.236329 2.74229 12.3711 4.27456
49 4 1.28809 5.48254 12.8758 8.04554
219 1 -0.681724 3.41247 11.8667 5.10955
258 3 -0.856401 4.30823 7.06743 1.60157
298 3 -0.803378 2.83095 9.47082 8.55501
293 3 -0.738262 4.01419 9.29973 3.62331
294 3 -0.799231 4.42494 11.7156 2.51117
299 3 -0.776767 4.27955 11.9035 8.64938
302 3 -0.82721 6.05807 11.1251 4.82481
260 3 -0.854465 2.95108 9.34056 1.07236
39 4 1.46182 3.37611 8.23915 2.14472
261 3 -0.778769 1.24866 11.4537 1.08857
83 2 0.115183 2.6361 9.61676 4.00864
138 2 0.15682 6.52055 6.81113 4.35949
296 3 -0.838478 5.90426 11.7049 0.0960448
181 2 0.282747 3.79603 12.6349 5.88322
367 2 0.165973 8.72826 6.82293 2.64353
185 2 0.183342 8.51204 10.6538 8.37417
304 3 -0.811008 6.69416 11.9715 7.30797
169 2 0.157339 9.19418 8.53448 0.637327
215 1 -0.671604 10.2596 8.13077 0.636432
199 1 -0.653381 8.65949 8.75202 3.33659
287 3 -0.776197 11.698 7.35159 5.0668
303 3 -0.795464 6.52819 9.33143 6.87376
220 1 -0.687983 10.4086 7.8761 7.61894
221 1 -0.693033 8.20532 9.95141 9.24621
59 4 1.07987 10.6872 6.58308 6.13191
19 4 1.1077 9.21492 10.4608 4.15501
301 3 -0.800645 8.53726 10.7226 5.66268
64 4 1.04676 7.14703 8.73459 8.29591
66 4 1.46364 6.94947 10.888 6.13942
98 2 -0.0086002 8.46487 7.65069 7.77892
122 2 0.17608 7.53566 8.98256 3.17247
123 2 0.155293 8.80572 7.76393 4.08713
124 2 0.17432 9.23913 8.57725 2.36264
168 2 0.186061 10.7805 8.61099 1.38016
171 2 0.134087 8.52137 7.27548 5.78317
182 2 0.161943 9.74962 8.7596 7.4611
97 2 -0.0125203 6.55341 9.12382 0.182238
184 2 0.153312 10.0351 7.19203 8.41601
35 4 1.01273 4.76671 6.54516 5.88897
183 2 0.199616 11.4519 8.2067 7.89506
370 3 -0.793664 9.16249 11.6187 3.02786
67 4 1.50314 3.92542 10.9691 16.3655
188 2 0.147116 5.20556 10.8738 11.1531
190 2 0.21644 3.90112 9.60056 11.5939
222 1 -0.682085 4.52594 10.0675 10.7823
300 3 -0.794881 1.92728 11.4191 10.5565
305 3 -0.823674 3.33014 10.1064 15.125
306 3 -0.836404 5.27901 10.2533 16.9446
307 3 -0.780862 4.58399 12.5519 15.6538
308 3 -0.824575 2.89194 11.0836 17.5506
189 2 0.257186 5.08699 9.30717 10.1808
65 4 1.18632 3.319 10.723 9.52626
340 2 0.156928 6.09715 6.61379 17.9025
92 2 0.103965 2.62007 12.6175 11.3225
52 4 0.966117 5.94994 12.865 15.0062
286 3 -0.787117 5.01023 6.93948 11.7277
90 2 -0.0414149 5.9009 12.2473 13.4454
58 4 1.48365 6.02395 6.74066 10.4961
364 2 0.143134 9.79554 6.81762 17.1408
321 2 0.102919 7.192 11.9553 15.8405
314 4 1.14038 9.70996 11.2875 15.9027
61 4 1.02138 8.75688 6.8143 12.2078
174 2 0.138602 8.45928 6.74591 14.5445
295 3 -0.751318 8.01754 11.0206 16.7892
187 2 0.154496 7.65411 10.4844 10.1214
365 2 0.146424 11.2473 8.28841 18.2092
177 2 0.159252 9.62955 9.07302 12.7083
178 2 0.147282 7.82593 8.84082 13.0735
63 4 1.19156 6.56062 10.6373 17.8091
176 2 0.177433 8.32489 9.13223 11.2116
218 1 -0.654009 8.61472 8.70477 12.2989
318 2 -0.0296707 9.95932 9.90134 14.9971
186 2 0.15626 9.08459 9.36933 9.61515
291 3 -0.762272 10.5782 6.61595 11.618
297 3 -0.836309 6.2399 7.96088 9.37625
ITEM: TIMESTEP
200
ITEM: NUMBER OF ATOMS
371
ITEM: BOX BOUNDS xy xz yz pp pp pp
0.0000000000000000e+00 2.6350080400000003e+01 8.5014704000000005e+00
0.0000000000000000e+00 1.3020299999999999e+01 4.6073559999999958e-01
0.0000000000000000e+00 1.8640300000000000e+01 2.0540000000000000e-01